                              Psi4 1.0.54 Driver

  ==> Input File <==

--------------------------------------------------------------------------
set {
	reference rhf
	basis cc-pvtz
}

set_num_threads( 4 )
memory 2 gb

molecule MOL {
0 1

H	 -3.401682	 -1.036167	 0.000000
O	 -3.113760	 -0.140926	 0.000000
C	 -1.775087	 -0.058754	 0.000000
C	 -1.025922	 -0.217567	 1.159295
C	 -1.149292	 0.193337	 -1.209551
H	 -1.518634	 -0.412919	 2.093907
C	 0.344367	 -0.123527	 1.103099
H	 -1.745598	 0.312577	 -2.091719
C	 0.223722	 0.284550	 -1.248793
H	 0.933657	 -0.244105	 1.990402
C	 0.986332	 0.128659	 -0.101374
H	 0.710271	 0.480094	 -2.186637
C	 2.456036	 0.230637	 -0.167955
O	 3.188507	 0.112190	 0.757038
H	 2.856554	 0.431786	 -1.167418

	symmetry c1
}
set optking {
	frozen_dihedral = ("
		5 3 2 1
	")
}

ee,wfn = optimize('scf', return_wfn=True)
oeprop( wfn, 'DIPOLE', 'QUADRUPOLE', 'MULLIKEN_CHARGES')
f=open( 'psi4out.xyz', 'w' )
f.write( "15  " )
f.write( str(ee) + "\n" )
f.write( MOL.save_string_xyz() )
f.close()
--------------------------------------------------------------------------

    Molecular point group: c1
  Charge       = 0
  Multiplicity = 1
  Basis Set: CC-PVTZ
  Basis Set:
  @DF-RHF Final Energy:  -418.43608651210980
    Total Energy =                       -418.4360865121093411
    Molecular point group: c1
  Basis Set: CC-PVTZ
  Basis Set:
  Basis Set: CC-PVTZ
  Basis Set:
  @DF-RHF Final Energy:  -418.43684314124914
    Total Energy =                       -418.4368431412491418
  Basis Set: CC-PVTZ
  Basis Set:
  Basis Set: CC-PVTZ
  Basis Set:
  @DF-RHF Final Energy:  -418.43680030411832
    Total Energy =                       -418.4368003041182646
  Basis Set: CC-PVTZ
  Basis Set:
  Basis Set: CC-PVTZ
  Basis Set:
  @DF-RHF Final Energy:  -418.43670309364342
    Total Energy =                       -418.4367030936431320
  Basis Set: CC-PVTZ
  Basis Set:
  Basis Set: CC-PVTZ
  Basis Set:
  @DF-RHF Final Energy:  -418.43691454555494
    Total Energy =                       -418.4369145455547141
  Basis Set: CC-PVTZ
  Basis Set:
  Charge       = 0
  Multiplicity = 1
  Basis Set: CC-PVTZ
  Basis Set:

    Orbital Energies (a.u.)
    -----------------------

    Doubly Occupied:

       1A    -20.587636     2A    -20.550861     3A    -11.326473
       4A    -11.312465     5A    -11.257919     6A    -11.251863
       7A    -11.243469     8A    -11.241009     9A    -11.240916
      10A     -1.416772    11A     -1.406972    12A     -1.175740
      13A     -1.045195    14A     -1.040864    15A     -0.890560
      16A     -0.862028    17A     -0.799916    18A     -0.755922
      19A     -0.711457    20A     -0.676167    21A     -0.651348
      22A     -0.636491    23A     -0.622494    24A     -0.609963
      25A     -0.564953    26A     -0.558635    27A     -0.540962
      28A     -0.502424    29A     -0.487580    30A     -0.425365
      31A     -0.359957    32A     -0.346133

  @DF-RHF Final Energy:  -418.43691585868527

   => Energetics <=

    Nuclear Repulsion Energy =            401.7001304677145868
    One-Electron Energy =               -1366.0730765198136396
    Two-Electron Energy =                 545.9360301934137851
    DFT Exchange-Correlation Energy =       0.0000000000000000
    Empirical Dispersion Energy =           0.0000000000000000
    PCM Polarization Energy =               0.0000000000000000
    EFP Energy =                            0.0000000000000000
    Total Energy =                       -418.4369158586852109
    Molecular point group: c1
  Basis Set: CC-PVTZ
  Basis Set:

  -Total Gradient:
     Atom            X                  Y                   Z
    ------   -----------------  -----------------  -----------------
       1       -0.000051929575     0.000006145609    -0.001091170555
       2       -0.000015121243    -0.000440059605     0.001275513239
       3        0.000042014260     0.001229260482     0.000198982260
       4       -0.000202649844    -0.000045563181    -0.000106181852
       5        0.000188517591    -0.000742951305    -0.000250801250
       6        0.000005608574     0.000009137983     0.000001951209
       7        0.000175124086     0.000033425984    -0.000122646662
       8       -0.000000886445     0.000003097585     0.000017962055
       9       -0.000137890315    -0.000077434080    -0.000109166793
      10       -0.000014338170     0.000001090762     0.000002580363
      11        0.000011159326    -0.000009008944     0.000193994663
      12        0.000018635885     0.000015358405     0.000009845912
      13       -0.000027829539     0.000054258230    -0.000061634679
      14        0.000012959104    -0.000022318276     0.000030177591
      15       -0.000003373704    -0.000014439650     0.000010594500

  **** Optimization is complete! (in 6 steps) ****
    Final optimized geometry and variables:
    Molecular point group: c1

    Geometry (in Angstrom), charge = 0, multiplicity = 1:

    H           -3.421051756193    -1.062022473080    -0.010485469509
    O           -3.126496464364    -0.167619574506    -0.008591035258
    C           -1.766683862967    -0.104400319052    -0.056256623092
    C           -1.025086413394    -0.259215966838     1.106147467379
    C           -1.141234998026     0.151911581935    -1.259289311654
    H           -1.535074765298    -0.442704218541     2.031610625588
    C            0.345532198835    -0.162744890731     1.057984612878
    H           -1.734304630825     0.278527004967    -2.143153954174
    C            0.236190413215     0.251890230477    -1.297581615989
    H            0.933860681115    -0.279206976018     1.946357002985
    C            0.987643122344     0.093727530158    -0.147277063608
    H            0.727004396445     0.453601479247    -2.231765834497
    C            2.461560698897     0.202209357389    -0.210502207057
    O            3.189534027481     0.077799562075     0.715610742966
    H            2.863183739264     0.412937493485    -1.207349574140

  Mulliken Charges: (a.u.)
   Center  Symbol    Alpha    Beta     Spin     Total
       1     H     0.38624  0.38624  0.00000  0.22753
       2     O     4.18633  4.18633  0.00000 -0.37267
       3     C     2.86512  2.86512  0.00000  0.26977
       4     C     3.11147  3.11147  0.00000 -0.22293
       5     C     3.10731  3.10731  0.00000 -0.21463
       6     H     0.41401  0.41401  0.00000  0.17198
       7     C     3.07110  3.07110  0.00000 -0.14220
       8     H     0.41374  0.41374  0.00000  0.17253
       9     C     3.07764  3.07764  0.00000 -0.15527
      10     H     0.40674  0.40674  0.00000  0.18652
      11     C     2.99543  2.99543  0.00000  0.00914
      12     H     0.42073  0.42073  0.00000  0.15853
      13     C     2.91009  2.91009  0.00000  0.17982
      14     O     4.17497  4.17497  0.00000 -0.34994
      15     H     0.45909  0.45909  0.00000  0.08182

   Total alpha = 32.00000, Total beta = 32.00000, Total charge =  0.00000

*** Psi4 exiting successfully. Buy a developer a beer!
