  ==> Input File <==

--------------------------------------------------------------------------
set {
	reference rhf
	basis 6-31G*
}

set_num_threads( 1 )
memory 2 gb

molecule MOL {
0 1

H	 -2.286874	 -0.046031	 -0.952094
N	 -1.852125	 0.165761	 -0.074816
C	 -0.563778	 -0.502042	 0.037919
H	 -2.476493	 -0.152055	 0.642062
C	 0.575259	 0.508231	 -0.048326
H	 -0.482092	 -1.204004	 -0.786564
H	 -0.460411	 -1.085169	 0.956626
C	 1.954651	 -0.143624	 0.035137
H	 0.475158	 1.060484	 -0.977307
H	 0.469181	 1.234488	 0.755973
H	 2.103292	 -0.853109	 -0.774172
H	 2.742821	 0.599562	 -0.030094
H	 2.083613	 -0.679371	 0.971560

	symmetry c1
}
set optking {
	frozen_dihedral = ("
		6 3 5 9
	")
}

ee = energy('scf')
oeprop('DIPOLE', 'QUADRUPOLE', 'MULLIKEN_CHARGES')
f=open( 'psi4out.xyz', 'w' )
f.write( "13  " )
f.write( str(ee) + "\n" )
f.write( MOL.save_string_xyz() )
f.close()
--------------------------------------------------------------------------

    Molecular point group: c1

    Geometry (in Angstrom), charge = 0, multiplicity = 1:

       Center              X                  Y                   Z               Mass
    ------------   -----------------  -----------------  -----------------  -----------------
           H         -2.284221402007    -0.038209113357    -0.936072905422     1.007825032070
           N         -1.849472402007     0.173582886643    -0.058794905422    14.003074004780
           C         -0.561125402007    -0.494220113357     0.053940094578    12.000000000000
           H         -2.473840402007    -0.144233113357     0.658083094578     1.007825032070
           C          0.577911597993     0.516052886643    -0.032304905422    12.000000000000
           H         -0.479439402007    -1.196182113357    -0.770542905422     1.007825032070
           H         -0.457758402007    -1.077347113357     0.972647094578     1.007825032070
           C          1.957303597993    -0.135802113357     0.051158094578    12.000000000000
           H          0.477810597993     1.068305886643    -0.961285905422     1.007825032070
           H          0.471833597993     1.242309886643     0.771994094578     1.007825032070
           H          2.105944597993    -0.845287113357    -0.758150905422     1.007825032070
           H          2.745473597993     0.607383886643    -0.014072905422     1.007825032070
           H          2.086265597993    -0.671549113357     0.987581094578     1.007825032070

  Charge       = 0
  Multiplicity = 1
  Basis Set: 6-31G*
  Basis Set:

    Orbital Energies (a.u.)
    -----------------------

    Doubly Occupied:

       1A    -15.531831     2A    -11.240434     3A    -11.205341
       4A    -11.204571     5A     -1.176471     6A     -1.031812
       7A     -0.897103     8A     -0.793126     9A     -0.675059
      10A     -0.611944    11A     -0.601375    12A     -0.573911
      13A     -0.518006    14A     -0.488467    15A     -0.484219
      16A     -0.462452    17A     -0.378384

  @DF-RHF Final Energy:  -173.27829742971710

   => Energetics <=

    Nuclear Repulsion Energy =            131.6339810149141272
    One-Electron Energy =                -494.0756457839653422
    Two-Electron Energy =                 189.1633673393338881
    DFT Exchange-Correlation Energy =       0.0000000000000000
    Empirical Dispersion Energy =           0.0000000000000000
    PCM Polarization Energy =               0.0000000000000000
    EFP Energy =                            0.0000000000000000
    Total Energy =                       -173.2782974297173268

  Mulliken Charges: (a.u.)
   Center  Symbol    Alpha    Beta     Spin     Total
       1     H     0.33175  0.33175  0.00000  0.33650
       2     N     3.92341  3.92341  0.00000 -0.84682
       3     C     3.06876  3.06876  0.00000 -0.13751
       4     H     0.33211  0.33211  0.00000  0.33579
       5     C     3.13817  3.13817  0.00000 -0.27634
       6     H     0.42903  0.42903  0.00000  0.14193
       7     H     0.42430  0.42430  0.00000  0.15139
       8     C     3.24599  3.24599  0.00000 -0.49199
       9     H     0.42182  0.42182  0.00000  0.15636
      10     H     0.41932  0.41932  0.00000  0.16136
      11     H     0.42369  0.42369  0.00000  0.15263
      12     H     0.41818  0.41818  0.00000  0.16363
      13     H     0.42347  0.42347  0.00000  0.15307

   Total alpha = 17.00000, Total beta = 17.00000, Total charge = -0.00000
