  ==> Input File <==

--------------------------------------------------------------------------
set {
	reference rhf
	basis 6-31G*
}

set_num_threads( 1 )
memory 2 gb

molecule MOL {
0 1

O	 -2.779560	 0.590739	 0.585340
C	 -1.921153	 0.064240	 -0.045697
C	 -2.145679	 -0.786912	 -1.266138
O	 -0.632575	 0.154573	 0.251549
H	 -1.750492	 -1.781895	 -1.096481
H	 -3.202373	 -0.840332	 -1.481497
H	 -1.615366	 -0.362764	 -2.110899
C	 0.160891	 -1.019931	 0.106212
C	 1.589627	 -0.672828	 0.480843
H	 0.089836	 -1.367806	 -0.916050
H	 -0.238459	 -1.792301	 0.749618
C	 2.246377	 0.346236	 -0.452210
H	 2.163194	 -1.597435	 0.473358
H	 1.604769	 -0.303424	 1.502885
C	 3.691736	 0.652107	 -0.061850
H	 2.219579	 -0.032311	 -1.472055
H	 1.666466	 1.263317	 -0.447249
H	 4.134505	 1.377213	 -0.737283
H	 4.305508	 -0.243868	 -0.089969
H	 3.748266	 1.059562	 0.943567

	symmetry c1
}
set optking {
	frozen_dihedral = ("
		16 12 9 8,
		2 4 8 10,
		12 9 8 10
	")
}

ee = energy('scf')
oeprop('DIPOLE', 'QUADRUPOLE', 'MULLIKEN_CHARGES')
f=open( 'psi4out.xyz', 'w' )
f.write( "20  " )
f.write( str(ee) + "\n" )
f.write( MOL.save_string_xyz() )
f.close()
--------------------------------------------------------------------------

    Molecular point group: c1

    Geometry (in Angstrom), charge = 0, multiplicity = 1:

       Center              X                  Y                   Z               Mass
    ------------   -----------------  -----------------  -----------------  -----------------
           O         -2.797761688950     0.674661750149     0.638739422551    15.994914619560
           C         -1.939354688950     0.148162750149     0.007702422551    12.000000000000
           C         -2.163880688950    -0.702989249851    -1.212738577449    12.000000000000
           O         -0.650776688950     0.238495750149     0.304948422551    15.994914619560
           H         -1.768693688950    -1.697972249851    -1.043081577449     1.007825032070
           H         -3.220574688950    -0.756409249851    -1.428097577449     1.007825032070
           H         -1.633567688950    -0.278841249851    -2.057499577449     1.007825032070
           C          0.142689311050    -0.936008249851     0.159611422551    12.000000000000
           C          1.571425311050    -0.588905249851     0.534242422551    12.000000000000
           H          0.071634311050    -1.283883249851    -0.862650577449     1.007825032070
           H         -0.256660688950    -1.708378249851     0.803017422551     1.007825032070
           C          2.228175311050     0.430158750149    -0.398810577449    12.000000000000
           H          2.144992311050    -1.513512249851     0.526757422551     1.007825032070
           H          1.586567311050    -0.219501249851     1.556284422551     1.007825032070
           C          3.673534311050     0.736029750149    -0.008450577449    12.000000000000
           H          2.201377311050     0.051611750149    -1.418655577449     1.007825032070
           H          1.648264311050     1.347239750149    -0.393849577449     1.007825032070
           H          4.116303311050     1.461135750149    -0.683883577449     1.007825032070
           H          4.287306311050    -0.159945249851    -0.036569577449     1.007825032070
           H          3.730064311050     1.143484750149     0.996966422551     1.007825032070

  Charge       = 0
  Multiplicity = 1
  Basis Set: 6-31G*
  Basis Set:

    Orbital Energies (a.u.)
    -----------------------

    Doubly Occupied:

       1A    -20.597175     2A    -20.547642     3A    -11.376307
       4A    -11.298702     5A    -11.236936     6A    -11.232523
       7A    -11.225072     8A    -11.216332     9A     -1.464840
      10A     -1.368604    11A     -1.089067    12A     -1.021169
      13A     -1.002849    14A     -0.891700    15A     -0.815923
      16A     -0.783033    17A     -0.698430    18A     -0.691443
      19A     -0.663775    20A     -0.634939    21A     -0.619396
      22A     -0.591422    23A     -0.578740    24A     -0.559944
      25A     -0.550515    26A     -0.537050    27A     -0.501978
      28A     -0.489786    29A     -0.483487    30A     -0.478639
      31A     -0.449291    32A     -0.433786

  @DF-RHF Final Energy:  -383.92142073810442

   => Energetics <=

    Nuclear Repulsion Energy =            387.2301470464890372
    One-Electron Energy =               -1290.0420965877842718
    Two-Electron Energy =                 518.8905288031912733
    DFT Exchange-Correlation Energy =       0.0000000000000000
    Empirical Dispersion Energy =           0.0000000000000000
    PCM Polarization Energy =               0.0000000000000000
    EFP Energy =                            0.0000000000000000
    Total Energy =                       -383.9214207381039614

  Mulliken Charges: (a.u.)
   Center  Symbol    Alpha    Beta     Spin     Total
       1     O     4.26337  4.26337  0.00000 -0.52674
       2     C     2.61215  2.61215  0.00000  0.77571
       3     C     3.31283  3.31283  0.00000 -0.62566
       4     O     4.30327  4.30327  0.00000 -0.60654
       5     H     0.40226  0.40226  0.00000  0.19548
       6     H     0.39202  0.39202  0.00000  0.21596
       7     H     0.39878  0.39878  0.00000  0.20245
       8     C     3.01383  3.01383  0.00000 -0.02765
       9     C     3.16127  3.16127  0.00000 -0.32254
      10     H     0.41575  0.41575  0.00000  0.16849
      11     H     0.41107  0.41107  0.00000  0.17785
      12     C     3.15658  3.15658  0.00000 -0.31317
      13     H     0.41923  0.41923  0.00000  0.16154
      14     H     0.40801  0.40801  0.00000  0.18398
      15     C     3.24090  3.24090  0.00000 -0.48179
      16     H     0.42528  0.42528  0.00000  0.14945
      17     H     0.40650  0.40650  0.00000  0.18700
      18     H     0.41637  0.41637  0.00000  0.16726
      19     H     0.42218  0.42218  0.00000  0.15564
      20     H     0.41835  0.41835  0.00000  0.16330

   Total alpha = 32.00000, Total beta = 32.00000, Total charge =  0.00000
