  ==> Input File <==

--------------------------------------------------------------------------
set {
	reference rhf
	basis 6-31G*
}

set_num_threads( 4 )
memory 2 gb

molecule MOL {
0 1

O	 1.570935	 0.717107	 -0.926021
C	 1.122059	 0.121804	 -0.000188
C	 -0.170150	 -0.657997	 -0.000612
O	 1.716744	 0.065866	 1.184799
C	 -1.412532	 0.227344	 -0.000452
H	 -0.153702	 -1.313099	 -0.867402
H	 -0.153924	 -1.313811	 0.865644
C	 -2.706999	 -0.587347	 -0.000541
H	 -1.388000	 0.879466	 -0.868000
H	 -1.387972	 0.879138	 0.867341
C	 -3.956778	 0.291888	 0.000910
H	 -2.726114	 -1.239230	 -0.871609
H	 -2.725217	 -1.240844	 0.869333
H	 -3.985213	 0.933254	 -0.875158
H	 -4.860123	 -0.309979	 0.000519
H	 -3.984618	 0.931166	 0.878514
C	 2.944102	 0.758774	 1.321228
H	 3.678870	 0.369748	 0.631110
H	 3.263535	 0.595703	 2.338734
H	 2.807079	 1.814495	 1.136333

	symmetry c1
}
set optking {
	frozen_dihedral = ("
		1 2 3 6
	")
}

ee = optimize('scf')
oeprop('DIPOLE', 'QUADRUPOLE', 'MULLIKEN_CHARGES')
f=open( 'psi4out.xyz', 'w' )
f.write( "20  " )
f.write( str(ee) + "\n" )
f.write( MOL.save_string_xyz() )
f.close()
--------------------------------------------------------------------------

    Molecular point group: c1
  Charge       = 0
  Multiplicity = 1
  Basis Set: 6-31G*
  Basis Set:
  @DF-RHF Final Energy:  -383.93926593219697
    Total Energy =                       -383.9392659321970314
    Molecular point group: c1
  Basis Set: 6-31G*
  Basis Set:
  Basis Set: 6-31G*
  Basis Set:
  @DF-RHF Final Energy:  -383.93953842483791
    Total Energy =                       -383.9395384248379059
  Basis Set: 6-31G*
  Basis Set:
  Basis Set: 6-31G*
  Basis Set:
  @DF-RHF Final Energy:  -383.93926516810717
    Total Energy =                       -383.9392651681073403
  Basis Set: 6-31G*
  Basis Set:
  Basis Set: 6-31G*
  Basis Set:
  @DF-RHF Final Energy:  -383.94003519069724
    Total Energy =                       -383.9400351906967899
  Basis Set: 6-31G*
  Basis Set:
  Basis Set: 6-31G*
  Basis Set:
  @DF-RHF Final Energy:  -383.94003793038655
    Total Energy =                       -383.9400379303867794
  Basis Set: 6-31G*
  Basis Set:
  Charge       = 0
  Multiplicity = 1
  Basis Set: 6-31G*
  Basis Set:

    Orbital Energies (a.u.)
    -----------------------

    Doubly Occupied:

       1A    -20.605670     2A    -20.541973     3A    -11.371108
       4A    -11.280692     5A    -11.233664     6A    -11.228144
       7A    -11.223387     8A    -11.213479     9A     -1.469260
      10A     -1.361093    11A     -1.091484    12A     -1.024486
      13A     -0.969062    14A     -0.888468    15A     -0.806254
      16A     -0.772713    17A     -0.694763    18A     -0.680006
      19A     -0.673007    20A     -0.646998    21A     -0.598687
      22A     -0.591940    23A     -0.574297    24A     -0.552696
      25A     -0.534221    26A     -0.522018    27A     -0.507201
      28A     -0.481099    29A     -0.477694    30A     -0.474616
      31A     -0.453280    32A     -0.431413

  @DF-RHF Final Energy:  -383.94003814749789

   => Energetics <=

    Nuclear Repulsion Energy =            382.2364725915641088
    One-Electron Energy =               -1280.4032763979607807
    Two-Electron Energy =                 514.2267656588984437
    DFT Exchange-Correlation Energy =       0.0000000000000000
    Empirical Dispersion Energy =           0.0000000000000000
    PCM Polarization Energy =               0.0000000000000000
    EFP Energy =                            0.0000000000000000
    Total Energy =                       -383.9400381474982851
    Molecular point group: c1
  Basis Set: 6-31G*
  Basis Set:

  -Total Gradient:
     Atom            X                  Y                   Z
    ------   -----------------  -----------------  -----------------
       1        0.000020359809    -0.000069186889     0.000031722712
       2       -0.000091064180     0.000105399306    -0.000030900092
       3        0.000064117717    -0.000085216356    -0.000008509682
       4       -0.000010362737     0.000012285370    -0.000005362044
       5       -0.000005434089     0.000056402436     0.000039481915
       6       -0.000017864991     0.000010600316     0.000008431230
       7        0.000013458948     0.000001772171    -0.000026978381
       8        0.000015947864    -0.000021039950    -0.000000085416
       9        0.000007968680     0.000005915281     0.000013171289
      10       -0.000001390666    -0.000004562649    -0.000003896274
      11        0.000003414739     0.000006710078    -0.000013040017
      12        0.000005161127    -0.000011211564     0.000005086013
      13        0.000000186324     0.000007458224     0.000001407494
      14       -0.000005421553     0.000005828839    -0.000000117244
      15       -0.000001279697     0.000000151941    -0.000003263714
      16        0.000001522006    -0.000002139646    -0.000002355000
      17       -0.000010364647    -0.000039601841    -0.000011174873
      18        0.000009626449     0.000007344966     0.000003501764
      19        0.000005990691     0.000008325439     0.000003118459
      20       -0.000004571797     0.000004764531    -0.000000238138

  **** Optimization is complete! (in 6 steps) ****
    Final optimized geometry and variables:
    Molecular point group: c1

    Geometry (in Angstrom), charge = 0, multiplicity = 1:

    O            1.571168453782     0.608030098692    -1.110532571128
    C            1.190827730327    -0.032081547401    -0.182470518597
    C           -0.082832703084    -0.841331435273    -0.176314041855
    O            1.836659315013    -0.088718125498     0.973473941316
    C           -1.315042042252     0.074469055608    -0.183755244016
    H           -0.078757463368    -1.453001353068    -1.072030814151
    H           -0.096199590258    -1.495064825361     0.686383443102
    C           -2.625385558069    -0.712281920887    -0.229009524323
    H           -1.252755266578     0.738352563447    -1.040176370545
    H           -1.300974229446     0.703150032114     0.703929901970
    C           -3.856461053507     0.192930231097    -0.240373033486
    H           -2.633692742345    -1.345180114145    -1.113615354216
    H           -2.675808763523    -1.381025344564     0.627375939026
    H           -3.850448750244     0.851395943504    -1.104027693878
    H           -4.770973980501    -0.390602169154    -0.275002874403
    H           -3.894144564198     0.814884238366     0.649356587260
    C            3.033335028935     0.661903515472     1.076413797740
    H            3.754359667940     0.328344152858     0.344206346003
    H            3.405228398337     0.488921798051     2.074249394272
    H            2.835577559169     1.713515508462     0.926682938056

  Mulliken Charges: (a.u.)
   Center  Symbol    Alpha    Beta     Spin     Total
       1     O     4.28703  4.28703  0.00000 -0.57407
       2     C     2.61291  2.61291  0.00000  0.77418
       3     C     3.19862  3.19862  0.00000 -0.39724
       4     O     4.30266  4.30266  0.00000 -0.60531
       5     C     3.16325  3.16325  0.00000 -0.32651
       6     H     0.40117  0.40117  0.00000  0.19766
       7     H     0.40184  0.40184  0.00000  0.19632
       8     C     3.15311  3.15311  0.00000 -0.30622
       9     H     0.40529  0.40529  0.00000  0.18942
      10     H     0.41599  0.41599  0.00000  0.16803
      11     C     3.24021  3.24021  0.00000 -0.48043
      12     H     0.42023  0.42023  0.00000  0.15953
      13     H     0.42124  0.42124  0.00000  0.15753
      14     H     0.41914  0.41914  0.00000  0.16173
      15     H     0.41767  0.41767  0.00000  0.16465
      16     H     0.42054  0.42054  0.00000  0.15892
      17     C     3.09342  3.09342  0.00000 -0.18684
      18     H     0.40837  0.40837  0.00000  0.18326
      19     H     0.40854  0.40854  0.00000  0.18293
      20     H     0.40877  0.40877  0.00000  0.18246

   Total alpha = 32.00000, Total beta = 32.00000, Total charge =  0.00000
