                              Psi4 1.0.54 Driver

  ==> Input File <==

--------------------------------------------------------------------------
set {
	reference rhf
	basis cc-pvtz
}

set_num_threads( 4 )
memory 2 gb

molecule MOL {
0 1

H	 -2.903318	 1.830351	 1.324728
C	 -2.645267	 0.803984	 1.162591
C	 -1.556464	 0.510544	 0.494946
H	 -3.287611	 0.040185	 1.554769
O	 -1.189946	 -0.765863	 0.237511
H	 -0.901196	 1.267885	 0.104838
C	 0.026572	 -0.995256	 -0.379403
C	 1.057223	 0.049888	 -0.004615
H	 -0.054361	 -1.010670	 -1.459674
H	 0.397526	 -1.952058	 -0.044198
F	 2.203233	 -0.234060	 -0.590375
F	 0.698147	 1.254887	 -0.392621
F	 1.266440	 0.094219	 1.288722

	symmetry c1
}
set optking {
	frozen_dihedral = ("
		3 5 7 9
	")
}

ee,wfn = optimize('scf', return_wfn=True)
oeprop( wfn, 'DIPOLE', 'QUADRUPOLE', 'MULLIKEN_CHARGES')
f=open( 'psi4out.xyz', 'w' )
f.write( "13  " )
f.write( str(ee) + "\n" )
f.write( MOL.save_string_xyz() )
f.close()
--------------------------------------------------------------------------

    Molecular point group: c1
  Charge       = 0
  Multiplicity = 1
  Basis Set: CC-PVTZ
  Basis Set:
  @DF-RHF Final Energy:  -527.71794906576565
    Total Energy =                       -527.7179490657658789
    Molecular point group: c1
  Basis Set: CC-PVTZ
  Basis Set:
  Basis Set: CC-PVTZ
  Basis Set:
  @DF-RHF Final Energy:  -527.71167057811499
    Total Energy =                       -527.7116705781153314
  Basis Set: CC-PVTZ
  Basis Set:
  Basis Set: CC-PVTZ
  Basis Set:
  @DF-RHF Final Energy:  -527.71771822403753
    Total Energy =                       -527.7177182240375259
  Basis Set: CC-PVTZ
  Basis Set:
  Basis Set: CC-PVTZ
  Basis Set:
  @DF-RHF Final Energy:  -527.72907729494796
    Total Energy =                       -527.7290772949479560
  Basis Set: CC-PVTZ
  Basis Set:
  @DF-RHF Final Energy:  -527.72851710223745
    Total Energy =                       -527.7285171022374470
  @DF-RHF Final Energy:  -527.73442296779626
    Total Energy =                       -527.7344229677961494
  @DF-RHF Final Energy:  -527.73463187672007
    Total Energy =                       -527.7346318767201865
  @DF-RHF Final Energy:  -527.73469339717917
    Total Energy =                       -527.7346933971795124
  @DF-RHF Final Energy:  -527.73470953153560
    Total Energy =                       -527.7347095315358274
  @DF-RHF Final Energy:  -527.73471857408663
    Total Energy =                       -527.7347185740866280
  @DF-RHF Final Energy:  -527.73471584344543
    Total Energy =                       -527.7347158434455423
  @DF-RHF Final Energy:  -527.73472861278697
    Total Energy =                       -527.7347286127871939
  @DF-RHF Final Energy:  -527.73473326915769
    Total Energy =                       -527.7347332691582551
  Basis Set: CC-PVTZ
  Basis Set:
  @DF-RHF Final Energy:  -527.73473748468166
    Total Energy =                       -527.7347374846823413
  Basis Set: CC-PVTZ
  Basis Set:
  Basis Set: CC-PVTZ
  Basis Set:
  @DF-RHF Final Energy:  -527.73473931693513
    Total Energy =                       -527.7347393169350198
  Basis Set: CC-PVTZ
  Basis Set:
  Basis Set: CC-PVTZ
  Basis Set:
  @DF-RHF Final Energy:  -527.73474045083401
    Total Energy =                       -527.7347404508336695
  Basis Set: CC-PVTZ
  Basis Set:
  Charge       = 0
  Multiplicity = 1
  Basis Set: CC-PVTZ
  Basis Set:

    Orbital Energies (a.u.)
    -----------------------

    Doubly Occupied:

       1A    -26.345634     2A    -26.345250     3A    -26.343925
       4A    -20.599216     5A    -11.505242     6A    -11.319779
       7A    -11.294413     8A    -11.212824     9A     -1.755818
      10A     -1.651334    11A     -1.650848    12A     -1.436710
      13A     -1.086719    14A     -1.023042    15A     -0.936018
      16A     -0.847709    17A     -0.844815    18A     -0.840060
      19A     -0.775638    20A     -0.729436    21A     -0.724601
      22A     -0.704339    23A     -0.685394    24A     -0.670111
      25A     -0.663924    26A     -0.656027    27A     -0.646265
      28A     -0.592890    29A     -0.562730    30A     -0.530181
      31A     -0.499605    32A     -0.356189

  @DF-RHF Final Energy:  -527.73474062697767

   => Energetics <=

    Nuclear Repulsion Energy =            416.8225518069174313
    One-Electron Energy =               -1557.4412114992435363
    Two-Electron Energy =                 612.8839190653483229
    DFT Exchange-Correlation Energy =       0.0000000000000000
    Empirical Dispersion Energy =           0.0000000000000000
    PCM Polarization Energy =               0.0000000000000000
    EFP Energy =                            0.0000000000000000
    Total Energy =                       -527.7347406269778958
    Molecular point group: c1
  Basis Set: CC-PVTZ
  Basis Set:

  -Total Gradient:
     Atom            X                  Y                   Z
    ------   -----------------  -----------------  -----------------
       1        0.000001114799     0.000005540556    -0.000002415875
       2        0.000005035534    -0.000016546051    -0.000002858569
       3        0.001312232463    -0.000057682107     0.004233198646
       4       -0.000006673691    -0.000012008193     0.000005651496
       5       -0.001415730813    -0.001448110355    -0.006587910339
       6       -0.000011155834    -0.000002851781     0.000012392242
       7       -0.001705154210     0.005873150643     0.002809991176
       8        0.000039752228     0.000101422445    -0.000098639137
       9        0.001840748380    -0.004403585968    -0.000677527458
      10       -0.000155341274    -0.000087867125     0.000245121962
      11       -0.000007351476    -0.000004222505     0.000023533239
      12        0.000080618697     0.000062217430    -0.000047036808
      13        0.000021905191    -0.000009456992     0.000086499420

  **** Optimization is complete! (in 17 steps) ****
    Final optimized geometry and variables:
    Molecular point group: c1

    Geometry (in Angstrom), charge = 0, multiplicity = 1:

    H           -3.670826692140    -0.464593562774     0.908990863563
    C           -2.821401161491    -1.077443873796     0.686173591831
    C           -1.844099712069    -0.588204208840    -0.037175454305
    H           -2.796701388272    -2.083042052020     1.058047727828
    O           -0.778794670996    -1.346569729310    -0.391295267674
    H           -1.861839758225     0.414904691378    -0.415663952682
    C            0.434407353296    -0.787644898412    -0.769300241581
    C            0.878439939857     0.474474088690    -0.053199194827
    H            0.474769638967    -0.610472651058    -1.838164923397
    H            1.185944279178    -1.528496766209    -0.539290282442
    F            2.142476287209     0.694823646390    -0.349364627700
    F            0.205473543724     1.547914555277    -0.417378563129
    F            0.779125265034     0.367440164696     1.249588751583

  Mulliken Charges: (a.u.)
   Center  Symbol    Alpha    Beta     Spin     Total
       1     H     0.42532  0.42532  0.00000  0.14935
       2     C     3.19339  3.19339  0.00000 -0.38678
       3     C     2.97096  2.97096  0.00000  0.05808
       4     H     0.42523  0.42523  0.00000  0.14953
       5     O     4.14650  4.14650  0.00000 -0.29300
       6     H     0.42388  0.42388  0.00000  0.15224
       7     C     3.00646  3.00646  0.00000 -0.01292
       8     C     2.68698  2.68698  0.00000  0.62604
       9     H     0.45190  0.45190  0.00000  0.09621
      10     H     0.44248  0.44248  0.00000  0.11505
      11     F     4.60780  4.60780  0.00000 -0.21561
      12     F     4.61296  4.61296  0.00000 -0.22593
      13     F     4.60613  4.60613  0.00000 -0.21227

   Total alpha = 32.00000, Total beta = 32.00000, Total charge = -0.00000

*** Psi4 exiting successfully. Buy a developer a beer!
