                              Psi4 1.0.54 Driver

  ==> Input File <==

--------------------------------------------------------------------------
set {
	reference rhf
	basis cc-pvtz
}

set_num_threads( 4 )
memory 2 gb

molecule MOL {
0 1

H	 -3.388398	 -0.253742	 -0.639078
O	 -2.625882	 -0.750509	 -0.383131
C	 -1.571645	 0.060280	 -0.395044
C	 -0.310616	 -0.658853	 0.000791
O	 -1.659264	 1.201652	 -0.690954
C	 0.926581	 0.227233	 0.000178
H	 -0.195460	 -1.498091	 -0.677550
H	 -0.484826	 -1.092947	 0.980041
C	 2.220156	 -0.582071	 -0.000088
H	 0.899945	 0.878221	 -0.866390
H	 0.900542	 0.878581	 0.866486
C	 3.466689	 0.296012	 -0.000457
H	 2.239073	 -1.234095	 -0.869382
H	 2.239505	 -1.233985	 0.869270
H	 3.493549	 0.935857	 -0.875887
H	 4.368821	 -0.304526	 -0.001199
H	 3.494559	 0.935166	 0.875458

	symmetry c1
}
set optking {
	frozen_dihedral = ("
		7 4 6 10
	")
}

ee,wfn = optimize('scf', return_wfn=True)
oeprop( wfn, 'DIPOLE', 'QUADRUPOLE', 'MULLIKEN_CHARGES')
f=open( 'psi4out.xyz', 'w' )
f.write( "17  " )
f.write( str(ee) + "\n" )
f.write( MOL.save_string_xyz() )
f.close()
--------------------------------------------------------------------------

    Molecular point group: c1
  Charge       = 0
  Multiplicity = 1
  Basis Set: CC-PVTZ
  Basis Set:
  @DF-RHF Final Energy:  -345.04803358154334
    Total Energy =                       -345.0480335815432795
    Molecular point group: c1
  Basis Set: CC-PVTZ
  Basis Set:
  Basis Set: CC-PVTZ
  Basis Set:
  @DF-RHF Final Energy:  -345.04810225797115
    Total Energy =                       -345.0481022579712089
  Basis Set: CC-PVTZ
  Basis Set:
  Basis Set: CC-PVTZ
  Basis Set:
  @DF-RHF Final Energy:  -345.04786139046308
    Total Energy =                       -345.0478613904630265
  Basis Set: CC-PVTZ
  Basis Set:
  Basis Set: CC-PVTZ
  Basis Set:
  @DF-RHF Final Energy:  -345.04815383821546
    Total Energy =                       -345.0481538382153985
  Basis Set: CC-PVTZ
  Basis Set:
  Basis Set: CC-PVTZ
  Basis Set:
  @DF-RHF Final Energy:  -345.04815809936940
    Total Energy =                       -345.0481580993694024
  Basis Set: CC-PVTZ
  Basis Set:
  Charge       = 0
  Multiplicity = 1
  Basis Set: CC-PVTZ
  Basis Set:

    Orbital Energies (a.u.)
    -----------------------

    Doubly Occupied:

       1A    -20.604290     2A    -20.541000     3A    -11.374109
       4A    -11.239262     5A    -11.221286     6A    -11.220570
       7A    -11.210703     8A     -1.477973     9A     -1.369486
      10A     -1.092523    11A     -1.019896    12A     -0.915123
      13A     -0.825325    14A     -0.791349    15A     -0.704282
      16A     -0.689924    17A     -0.669865    18A     -0.631231
      19A     -0.593669    20A     -0.585600    21A     -0.574854
      22A     -0.538066    23A     -0.508943    24A     -0.484882
      25A     -0.483057    26A     -0.478515    27A     -0.471477
      28A     -0.447140

  @DF-RHF Final Energy:  -345.04815821709735

   => Energetics <=

    Nuclear Repulsion Energy =            304.7415360619975218
    One-Electron Energy =               -1074.0505924328658693
    Two-Electron Energy =                 424.2608981537709951
    DFT Exchange-Correlation Energy =       0.0000000000000000
    Empirical Dispersion Energy =           0.0000000000000000
    PCM Polarization Energy =               0.0000000000000000
    EFP Energy =                            0.0000000000000000
    Total Energy =                       -345.0481582170973525
    Molecular point group: c1
  Basis Set: CC-PVTZ
  Basis Set:

  -Total Gradient:
     Atom            X                  Y                   Z
    ------   -----------------  -----------------  -----------------
       1        0.000011236535     0.000000086010     0.000000054604
       2       -0.000013889415    -0.000017409254     0.000008709933
       3        0.000012652692     0.000033704730    -0.000004276773
       4       -0.001622400530     0.002231887374    -0.002129158304
       5        0.000005821625    -0.000018819884    -0.000006964786
       6        0.001836835835    -0.002610538530    -0.001204211089
       7        0.001034501212    -0.001420491229     0.001949395209
       8        0.000005413911    -0.000004819535    -0.000010959181
       9        0.000004866759    -0.000003585009     0.000025606828
      10       -0.001274235817     0.001811072893     0.001379626638
      11        0.000000638886    -0.000002294891     0.000003968051
      12        0.000000141304    -0.000002518560    -0.000015579637
      13        0.000001381243     0.000005501711     0.000006202105
      14       -0.000001818220     0.000000988797    -0.000001083696
      15        0.000000329261     0.000003631357     0.000003900066
      16        0.000001404543     0.000001006040    -0.000004450024
      17       -0.000002879819    -0.000007402025    -0.000000779943

  **** Optimization is complete! (in 6 steps) ****
    Final optimized geometry and variables:
    Molecular point group: c1

    Geometry (in Angstrom), charge = 0, multiplicity = 1:

    H           -3.418873319016    -0.226983133860    -0.364165592136
    O           -2.649153761759    -0.723923067907    -0.131159446589
    C           -1.596315760901     0.087643995079    -0.172584307938
    C           -0.325713828475    -0.630839969311     0.189404155334
    O           -1.693803597613     1.229872885538    -0.461975932618
    C            0.916952867194     0.250584741047     0.173252413185
    H           -0.221176329458    -1.477937474797    -0.480828331765
    H           -0.480155711092    -1.068498358860     1.170628504961
    C            2.209898112898    -0.557305838428     0.208443202007
    H            0.891141848308     0.894259060745    -0.697583787546
    H            0.884038031461     0.920451089981     1.026676705817
    C            3.455565856228     0.321223844168     0.239626341371
    H            2.250466548327    -1.208963993423    -0.660172493413
    H            2.207300316427    -1.209378095512     1.078083945420
    H            3.501155938394     0.964500098893    -0.632469838704
    H            4.357745597728    -0.279000920079     0.256548519477
    H            3.463809429623     0.956820647793     1.118526127987

  Mulliken Charges: (a.u.)
   Center  Symbol    Alpha    Beta     Spin     Total
       1     H     0.38250  0.38250  0.00000  0.23501
       2     O     4.15967  4.15967  0.00000 -0.31935
       3     C     2.80357  2.80357  0.00000  0.39286
       4     C     3.11180  3.11180  0.00000 -0.22360
       5     O     4.19079  4.19079  0.00000 -0.38158
       6     C     3.08422  3.08422  0.00000 -0.16844
       7     H     0.43885  0.43885  0.00000  0.12230
       8     H     0.43712  0.43712  0.00000  0.12577
       9     C     3.08586  3.08586  0.00000 -0.17173
      10     H     0.44191  0.44191  0.00000  0.11617
      11     H     0.45006  0.45006  0.00000  0.09989
      12     C     3.14925  3.14925  0.00000 -0.29851
      13     H     0.45431  0.45431  0.00000  0.09137
      14     H     0.45491  0.45491  0.00000  0.09018
      15     H     0.45320  0.45320  0.00000  0.09359
      16     H     0.44802  0.44802  0.00000  0.10396
      17     H     0.45395  0.45395  0.00000  0.09209

   Total alpha = 28.00000, Total beta = 28.00000, Total charge = -0.00000

*** Psi4 exiting successfully. Buy a developer a beer!
