  ==> Input File <==

--------------------------------------------------------------------------
set {
	reference rhf
	basis 6-31G*
}

set_num_threads( 4 )
memory 2 gb

molecule MOL {
0 1

H	 -0.944757	 -0.000069	 1.678017
O	 -0.042387	 -0.000390	 1.388199
C	 -0.001487	 0.000018	 -0.026623
C	 1.117663	 0.926355	 -0.506250
C	 0.218111	 -1.426875	 -0.532979
C	 -1.363857	 0.525784	 -0.464731
H	 1.148943	 0.981728	 -1.589695
H	 2.087015	 0.569558	 -0.165722
H	 0.971087	 1.926470	 -0.113435
H	 0.214879	 -1.467110	 -1.617627
H	 1.174792	 -1.815111	 -0.190975
H	 -0.562305	 -2.081351	 -0.160841
H	 -1.435524	 0.566050	 -1.546853
H	 -1.525333	 1.522529	 -0.069873
H	 -2.151864	 -0.117318	 -0.089420

	symmetry c1
}
set optking {
	frozen_dihedral = ("
		4 3 2 1
	")
}

ee = optimize('scf')
oeprop('DIPOLE', 'QUADRUPOLE', 'MULLIKEN_CHARGES')
f=open( 'psi4out.xyz', 'w' )
f.write( "15  " )
f.write( str(ee) + "\n" )
f.write( MOL.save_string_xyz() )
f.close()
--------------------------------------------------------------------------

    Molecular point group: c1
  Charge       = 0
  Multiplicity = 1
  Basis Set: 6-31G*
  Basis Set:
  @DF-RHF Final Energy:  -232.14927118226177
    Total Energy =                       -232.1492711822617707
    Molecular point group: c1
  Basis Set: 6-31G*
  Basis Set:
  Basis Set: 6-31G*
  Basis Set:
  @DF-RHF Final Energy:  -232.15097344976670
    Total Energy =                       -232.1509734497666955
  Basis Set: 6-31G*
  Basis Set:
  Basis Set: 6-31G*
  Basis Set:
  @DF-RHF Final Energy:  -232.15146424973949
    Total Energy =                       -232.1514642497393766
  Basis Set: 6-31G*
  Basis Set:
  Basis Set: 6-31G*
  Basis Set:
  @DF-RHF Final Energy:  -232.15144096022712
    Total Energy =                       -232.1514409602272053
  Basis Set: 6-31G*
  Basis Set:
  Basis Set: 6-31G*
  Basis Set:
  @DF-RHF Final Energy:  -232.15148825556719
    Total Energy =                       -232.1514882555671306
  Basis Set: 6-31G*
  Basis Set:
  Charge       = 0
  Multiplicity = 1
  Basis Set: 6-31G*
  Basis Set:

    Orbital Energies (a.u.)
    -----------------------

    Doubly Occupied:

       1A    -20.547211     2A    -11.282001     3A    -11.217667
       4A    -11.205457     5A    -11.204523     6A     -1.358605
       7A     -1.063693     8A     -0.944830     9A     -0.936154
      10A     -0.775643    11A     -0.669320    12A     -0.622607
      13A     -0.621194    14A     -0.575045    15A     -0.556591
      16A     -0.532748    17A     -0.516781    18A     -0.508725
      19A     -0.502089    20A     -0.456333    21A     -0.423473

  @DF-RHF Final Energy:  -232.15148856459442

   => Energetics <=

    Nuclear Repulsion Energy =            200.2694344712698751
    One-Electron Energy =                -711.8004667802201766
    Two-Electron Energy =                 279.3795437443560559
    DFT Exchange-Correlation Energy =       0.0000000000000000
    Empirical Dispersion Energy =           0.0000000000000000
    PCM Polarization Energy =               0.0000000000000000
    EFP Energy =                            0.0000000000000000
    Total Energy =                       -232.1514885645942741
    Molecular point group: c1
  Basis Set: 6-31G*
  Basis Set:

  -Total Gradient:
     Atom            X                  Y                   Z
    ------   -----------------  -----------------  -----------------
       1        0.000040036633     0.001978172229     0.000024517076
       2       -0.000306501018    -0.002170586839     0.000012651354
       3        0.001015135799    -0.000747131560     0.000009439099
       4       -0.000757277680     0.000934399095    -0.000002741166
       5       -0.000029122893     0.000009995615    -0.000024408384
       6        0.000006721930     0.000028260652    -0.000012572833
       7        0.000018315887    -0.000010687353     0.000010588260
       8        0.000023243061     0.000005372147     0.000000458539
       9       -0.000021914683    -0.000010237624     0.000001267060
      10       -0.000014841959    -0.000013056692     0.000004701649
      11        0.000007373394     0.000032211817    -0.000013553045
      12        0.000003461212    -0.000026576390     0.000007874526
      13       -0.000011643478     0.000002378354    -0.000025585922
      14       -0.000003250323    -0.000020048232     0.000004275113
      15        0.000030264117     0.000007534781     0.000003088674

  **** Optimization is complete! (in 6 steps) ****
    Final optimized geometry and variables:
    Molecular point group: c1

    Geometry (in Angstrom), charge = 0, multiplicity = 1:

    H           -0.812631538012    -0.006743559392     1.755638763019
    O            0.060379760589    -0.018214474917     1.391416215504
    C            0.001729219179    -0.004425267939    -0.026202203056
    C            1.121773957953     0.923152937356    -0.489263824363
    C            0.224207961771    -1.429390046728    -0.532568355400
    C           -1.355920819044     0.528535468793    -0.486960059639
    H            1.181275128331     0.957031087669    -1.572742858249
    H            2.074961793699     0.577998185687    -0.104010251928
    H            0.954426162119     1.928386222727    -0.118683395377
    H            0.224493180874    -1.470568459339    -1.617748329416
    H            1.174790655801    -1.807232657666    -0.173073190078
    H           -0.557254725260    -2.088861642701    -0.167231978728
    H           -1.411711498757     0.576739687643    -1.569023025053
    H           -1.527035103065     1.526380674047    -0.094480375209
    H           -2.161833417791    -0.116864442146    -0.144514568125

  Mulliken Charges: (a.u.)
   Center  Symbol    Alpha    Beta     Spin     Total
       1     H     0.28046  0.28046  0.00000  0.43909
       2     O     4.38203  4.38203  0.00000 -0.76407
       3     C     2.84624  2.84624  0.00000  0.30752
       4     C     3.23217  3.23217  0.00000 -0.46434
       5     C     3.23234  3.23234  0.00000 -0.46469
       6     C     3.25797  3.25797  0.00000 -0.51595
       7     H     0.42533  0.42533  0.00000  0.14933
       8     H     0.41293  0.41293  0.00000  0.17413
       9     H     0.41719  0.41719  0.00000  0.16562
      10     H     0.42541  0.42541  0.00000  0.14918
      11     H     0.41311  0.41311  0.00000  0.17378
      12     H     0.42295  0.42295  0.00000  0.15410
      13     H     0.41510  0.41510  0.00000  0.16981
      14     H     0.41451  0.41451  0.00000  0.17099
      15     H     0.42225  0.42225  0.00000  0.15550

   Total alpha = 21.00000, Total beta = 21.00000, Total charge = -0.00000
