                              Psi4 1.0.54 Driver

  ==> Input File <==

--------------------------------------------------------------------------
set {
	reference rhf
	basis cc-pvtz
}

set_num_threads( 4 )
memory 2 gb

molecule MOL {
0 1

H	 2.828711	 -0.346904	 0.001083
C	 1.876752	 0.015931	 -0.363450
C	 0.776285	 -0.474665	 0.563092
H	 1.728113	 -0.357244	 -1.367440
H	 1.906171	 1.096574	 -0.386153
N	 -0.540022	 0.017605	 0.071630
H	 0.707111	 -1.548969	 0.573035
H	 0.886169	 -0.084184	 1.560432
O	 -1.084190	 0.848257	 0.718231
O	 -0.967578	 -0.475229	 -0.917666

	symmetry c1
}
set optking {
	frozen_dihedral = ("
		9 6 3 2
	")
}

ee,wfn = optimize('scf', return_wfn=True)
oeprop( wfn, 'DIPOLE', 'QUADRUPOLE', 'MULLIKEN_CHARGES')
f=open( 'psi4out.xyz', 'w' )
f.write( "10  " )
f.write( str(ee) + "\n" )
f.write( MOL.save_string_xyz() )
f.close()
--------------------------------------------------------------------------

    Molecular point group: c1
  Charge       = 0
  Multiplicity = 1
  Basis Set: CC-PVTZ
  Basis Set:
  @DF-RHF Final Energy:  -282.81312220486507
    Total Energy =                       -282.8131222048652376
    Molecular point group: c1
  Basis Set: CC-PVTZ
  Basis Set:
  Basis Set: CC-PVTZ
  Basis Set:
  @DF-RHF Final Energy:  -282.80558705375643
    Total Energy =                       -282.8055870537563692
  Basis Set: CC-PVTZ
  Basis Set:
  Basis Set: CC-PVTZ
  Basis Set:
  @DF-RHF Final Energy:  -282.81224748180449
    Total Energy =                       -282.8122474818044338
  Basis Set: CC-PVTZ
  Basis Set:
  Basis Set: CC-PVTZ
  Basis Set:
  @DF-RHF Final Energy:  -282.81321179618465
    Total Energy =                       -282.8132117961845324
  Basis Set: CC-PVTZ
  Basis Set:
  Basis Set: CC-PVTZ
  Basis Set:
  @DF-RHF Final Energy:  -282.81319321061898
    Total Energy =                       -282.8131932106190902
  Basis Set: CC-PVTZ
  Basis Set:
  Basis Set: CC-PVTZ
  Basis Set:
  @DF-RHF Final Energy:  -282.81328975896344
    Total Energy =                       -282.8132897589634354
  Basis Set: CC-PVTZ
  Basis Set:
  Charge       = 0
  Multiplicity = 1
  Basis Set: CC-PVTZ
  Basis Set:

    Orbital Energies (a.u.)
    -----------------------

    Doubly Occupied:

       1A    -20.593750     2A    -20.590336     3A    -15.838549
       4A    -11.301961     5A    -11.249791     6A     -1.637821
       7A     -1.422195     8A     -1.126117     9A     -0.966887
      10A     -0.839207    11A     -0.763961    12A     -0.740704
      13A     -0.730365    14A     -0.658014    15A     -0.590679
      16A     -0.561287    17A     -0.547215    18A     -0.488897
      19A     -0.479384    20A     -0.455107

  @DF-RHF Final Energy:  -282.81329451608406

   => Energetics <=

    Nuclear Repulsion Energy =            186.7229568504603776
    One-Electron Energy =                -755.9080519495354338
    Two-Electron Energy =                 286.3718005829910567
    DFT Exchange-Correlation Energy =       0.0000000000000000
    Empirical Dispersion Energy =           0.0000000000000000
    PCM Polarization Energy =               0.0000000000000000
    EFP Energy =                            0.0000000000000000
    Total Energy =                       -282.8132945160839995
    Molecular point group: c1
  Basis Set: CC-PVTZ
  Basis Set:

  -Total Gradient:
     Atom            X                  Y                   Z
    ------   -----------------  -----------------  -----------------
       1       -0.000030103016     0.000003493159    -0.000006022421
       2        0.000015864870    -0.000105407656    -0.000064418845
       3       -0.000000638470     0.000067583539     0.000093008083
       4        0.000005388707    -0.000000832534     0.000017344114
       5       -0.000007191653    -0.000022970250     0.000016997436
       6        0.000103509357     0.000119013209    -0.000090204481
       7        0.000018181714     0.000024166947    -0.000009353511
       8       -0.000019398675     0.000006026534    -0.000022071771
       9       -0.000069563987    -0.000112084951     0.000076087510
      10       -0.000016048851     0.000021012001    -0.000011366113

  **** Optimization is complete! (in 7 steps) ****
    Final optimized geometry and variables:
    Molecular point group: c1

    Geometry (in Angstrom), charge = 0, multiplicity = 1:

    H            2.806352469136     0.077648231489    -0.525688316445
    C            1.759443959069     0.263419266723    -0.726841608556
    C            0.934075503061    -0.304497477514     0.414489484731
    H            1.496457063712    -0.206609523202    -1.662895514932
    H            1.613755687622     1.332337460249    -0.813256504457
    N           -0.514512159332    -0.053508200191     0.172673784945
    H            1.034424986563    -1.376121303519     0.481457825992
    H            1.161747375319     0.158733503145     1.358154322086
    O           -1.058935322390     0.733758595961     0.870032327921
    O           -1.022582616785    -0.655212438021    -0.713633596404

  Mulliken Charges: (a.u.)
   Center  Symbol    Alpha    Beta     Spin     Total
       1     H     0.44820  0.44820  0.00000  0.10360
       2     C     3.14118  3.14118  0.00000 -0.28236
       3     C     3.03767  3.03767  0.00000 -0.07533
       4     H     0.43785  0.43785  0.00000  0.12431
       5     H     0.44379  0.44379  0.00000  0.11241
       6     N     3.27736  3.27736  0.00000  0.44528
       7     H     0.43659  0.43659  0.00000  0.12682
       8     H     0.43310  0.43310  0.00000  0.13380
       9     O     4.16934  4.16934  0.00000 -0.33868
      10     O     4.17492  4.17492  0.00000 -0.34984

   Total alpha = 20.00000, Total beta = 20.00000, Total charge =  0.00000

*** Psi4 exiting successfully. Buy a developer a beer!
