                              Psi4 1.0.54 Driver

  ==> Input File <==

--------------------------------------------------------------------------
set {
	reference rhf
	basis cc-pvtz
}

set_num_threads( 4 )
memory 2 gb

molecule MOL {
0 1

H	 3.032348	 0.484843	 1.035738
N	 2.169910	 -0.016940	 1.037697
C	 1.263552	 0.494993	 0.021953
H	 1.774636	 0.080237	 1.949647
C	 -0.016533	 -0.325589	 -0.026925
H	 1.767913	 0.428081	 -0.936241
H	 1.010559	 1.545791	 0.169615
C	 -1.280353	 0.525521	 0.047747
H	 -0.016686	 -0.912532	 -0.939714
H	 -0.014099	 -1.037598	 0.796369
C	 -2.560681	 -0.301323	 -0.007747
H	 -1.279957	 1.241025	 -0.770189
H	 -1.270445	 1.110526	 0.963468
H	 -2.617064	 -0.872870	 -0.928010
H	 -3.439525	 0.331102	 0.043462
H	 -2.609427	 -1.002736	 0.818585

	symmetry c1
}
set optking {
	frozen_dihedral = ("
		6 3 5 9
	")
}

ee,wfn = optimize('scf', return_wfn=True)
oeprop( wfn, 'DIPOLE', 'QUADRUPOLE', 'MULLIKEN_CHARGES')
f=open( 'psi4out.xyz', 'w' )
f.write( "16  " )
f.write( str(ee) + "\n" )
f.write( MOL.save_string_xyz() )
f.close()
--------------------------------------------------------------------------

    Molecular point group: c1
  Charge       = 0
  Multiplicity = 1
  Basis Set: CC-PVTZ
  Basis Set:
  @DF-RHF Final Energy:  -212.39412645382654
    Total Energy =                       -212.3941264538264591
    Molecular point group: c1
  Basis Set: CC-PVTZ
  Basis Set:
  Basis Set: CC-PVTZ
  Basis Set:
  @DF-RHF Final Energy:  -212.39446405468601
    Total Energy =                       -212.3944640546859546
  Basis Set: CC-PVTZ
  Basis Set:
  Basis Set: CC-PVTZ
  Basis Set:
  @DF-RHF Final Energy:  -212.39456076625336
    Total Energy =                       -212.3945607662534485
  Basis Set: CC-PVTZ
  Basis Set:
  Basis Set: CC-PVTZ
  Basis Set:
  @DF-RHF Final Energy:  -212.39456183231562
    Total Energy =                       -212.3945618323156737
  Basis Set: CC-PVTZ
  Basis Set:
  Charge       = 0
  Multiplicity = 1
  Basis Set: CC-PVTZ
  Basis Set:

    Orbital Energies (a.u.)
    -----------------------

    Doubly Occupied:

       1A    -15.526618     2A    -11.238327     3A    -11.213386
       4A    -11.207948     5A    -11.205952     6A     -1.177001
       7A     -1.059759     8A     -0.957839     9A     -0.846591
      10A     -0.791355    11A     -0.668860    12A     -0.626594
      13A     -0.614661    14A     -0.577569    15A     -0.556475
      16A     -0.529631    17A     -0.506816    18A     -0.472046
      19A     -0.465547    20A     -0.454851    21A     -0.382871

  @DF-RHF Final Energy:  -212.39456231877713

   => Energetics <=

    Nuclear Repulsion Energy =            186.6808537783846589
    One-Electron Energy =                -655.9894404965557442
    Two-Electron Energy =                 256.9140243993939521
    DFT Exchange-Correlation Energy =       0.0000000000000000
    Empirical Dispersion Energy =           0.0000000000000000
    PCM Polarization Energy =               0.0000000000000000
    EFP Energy =                            0.0000000000000000
    Total Energy =                       -212.3945623187771616
    Molecular point group: c1
  Basis Set: CC-PVTZ
  Basis Set:

  -Total Gradient:
     Atom            X                  Y                   Z
    ------   -----------------  -----------------  -----------------
       1        0.000040153706    -0.000002334387     0.000024544921
       2        0.000000537050     0.000019759062    -0.000063369628
       3       -0.001618566577     0.002521722673    -0.001068754095
       4       -0.000020396054     0.000013822522    -0.000032616449
       5        0.001475952867    -0.002394316289     0.001420710949
       6        0.001094394086    -0.001765619880     0.000716866233
       7       -0.000003770599    -0.000020756833     0.000001543839
       8        0.000033178491    -0.000020250338     0.000038327561
       9       -0.000967380066     0.001628800190    -0.001040895362
      10        0.000001938055     0.000017794926     0.000007477847
      11       -0.000023431384     0.000004832651     0.000002499121
      12        0.000022488697     0.000001474279    -0.000002506204
      13       -0.000014401289     0.000002447767     0.000004312838
      14        0.000002281300    -0.000002462177     0.000001027952
      15       -0.000020954918    -0.000008010618    -0.000006188411
      16       -0.000002023365     0.000003096452    -0.000002981111

  **** Optimization is complete! (in 5 steps) ****
    Final optimized geometry and variables:
    Molecular point group: c1

    Geometry (in Angstrom), charge = 0, multiplicity = 1:

    H            3.116811920534     0.404765542341     0.782195500738
    N            2.256070133445    -0.100762852736     0.793926876493
    C            1.330982622861     0.421579529128    -0.203896791158
    H            1.875201270132    -0.010097094072     1.712940397004
    C            0.034530837229    -0.405151883405    -0.247462852199
    H            1.837526899062     0.360839611176    -1.159251691604
    H            1.088437184982     1.470451147432    -0.038343464089
    C           -1.233886435900     0.444054319283    -0.191398686430
    H            0.009559781400    -0.999387140553    -1.154933930375
    H            0.037551254614    -1.107002730341     0.579211700103
    C           -2.511493632145    -0.385678671089    -0.252248549038
    H           -1.227974301413     1.155714505638    -1.012886034504
    H           -1.230439995299     1.035590690857     0.720753543576
    H           -2.561527497171    -0.959594479611    -1.171605563072
    H           -3.392682756914     0.244087246113    -0.207394654306
    H           -2.562428432972    -1.086002934667     0.574909663998

  Mulliken Charges: (a.u.)
   Center  Symbol    Alpha    Beta     Spin     Total
       1     H     0.42979  0.42979  0.00000  0.14041
       2     N     3.68832  3.68832  0.00000 -0.37663
       3     C     3.03393  3.03393  0.00000 -0.06786
       4     H     0.43103  0.43103  0.00000  0.13793
       5     C     3.08862  3.08862  0.00000 -0.17725
       6     H     0.45505  0.45505  0.00000  0.08990
       7     H     0.46538  0.46538  0.00000  0.06925
       8     C     3.08573  3.08573  0.00000 -0.17145
       9     H     0.45199  0.45199  0.00000  0.09601
      10     H     0.44979  0.44979  0.00000  0.10041
      11     C     3.15026  3.15026  0.00000 -0.30051
      12     H     0.45498  0.45498  0.00000  0.09003
      13     H     0.45646  0.45646  0.00000  0.08707
      14     H     0.45481  0.45481  0.00000  0.09038
      15     H     0.44889  0.44889  0.00000  0.10221
      16     H     0.45496  0.45496  0.00000  0.09008

   Total alpha = 21.00000, Total beta = 21.00000, Total charge = -0.00000

*** Psi4 exiting successfully. Buy a developer a beer!
