  ==> Input File <==

--------------------------------------------------------------------------
set {
	reference rhf
	basis cc-pvtz
}

set_num_threads( 4 )
memory 2 gb

molecule MOL {
0 1

H	 -3.144994	 -1.202467	 -0.018751
O	 -2.321472	 -0.864941	 -0.318626
C	 -2.021813	 0.336996	 0.342658
C	 -0.669613	 0.837286	 -0.127252
H	 -2.780861	 1.084746	 0.127159
H	 -2.006390	 0.184138	 1.420053
C	 0.490865	 -0.082543	 0.241244
H	 -0.708709	 0.967192	 -1.204587
H	 -0.507562	 1.822272	 0.303070
C	 1.839800	 0.429565	 -0.255472
H	 0.305636	 -1.070211	 -0.165276
H	 0.527397	 -0.195943	 1.322876
C	 2.236585	 -0.148276	 -1.609889
H	 1.808153	 1.513616	 -0.322812
H	 2.608592	 0.192728	 0.475663
H	 1.504541	 0.101870	 -2.370451
H	 3.196692	 0.235633	 -1.935640
H	 2.310327	 -1.230042	 -1.567570

	symmetry c1
}
set optking {
	frozen_dihedral = ("
		14 10 7 11
	")
}

ee = optimize('scf')
oeprop('DIPOLE', 'QUADRUPOLE', 'MULLIKEN_CHARGES')
f=open( 'psi4out.xyz', 'w' )
f.write( "18  " )
f.write( str(ee) + "\n" )
f.write( MOL.save_string_xyz() )
f.close()
--------------------------------------------------------------------------

    Molecular point group: c1
  Charge       = 0
  Multiplicity = 1
  Basis Set: CC-PVTZ
  Basis Set:
  @DF-RHF Final Energy:  -271.28298493458402
    Total Energy =                       -271.2829849345839648
    Molecular point group: c1
  Basis Set: CC-PVTZ
  Basis Set:
  Basis Set: CC-PVTZ
  Basis Set:
  @DF-RHF Final Energy:  -271.28324977680325
    Total Energy =                       -271.2832497768034159
  Basis Set: CC-PVTZ
  Basis Set:
  Basis Set: CC-PVTZ
  Basis Set:
  @DF-RHF Final Energy:  -271.28330766583190
    Total Energy =                       -271.2833076658317282
  Basis Set: CC-PVTZ
  Basis Set:
  Charge       = 0
  Multiplicity = 1
  Basis Set: CC-PVTZ
  Basis Set:

    Orbital Energies (a.u.)
    -----------------------

    Doubly Occupied:

       1A    -20.546436     2A    -11.265876     3A    -11.210536
       4A    -11.208978     5A    -11.204918     6A    -11.201426
       7A     -1.364278     8A     -1.075435     9A     -1.007755
      10A     -0.913710    11A     -0.824345    12A     -0.779279
      13A     -0.707817    14A     -0.641648    15A     -0.617545
      16A     -0.599660    17A     -0.569073    18A     -0.558786
      19A     -0.514510    20A     -0.501708    21A     -0.499594
      22A     -0.464924    23A     -0.454973    24A     -0.449286
      25A     -0.430381

  @DF-RHF Final Energy:  -271.28330834263102

   => Energetics <=

    Nuclear Repulsion Energy =            251.8002201537102849
    One-Electron Energy =                -866.9412978397592724
    Two-Electron Energy =                 343.8577693434179992
    DFT Exchange-Correlation Energy =       0.0000000000000000
    Empirical Dispersion Energy =           0.0000000000000000
    PCM Polarization Energy =               0.0000000000000000
    EFP Energy =                            0.0000000000000000
    Total Energy =                       -271.2833083426310168
    Molecular point group: c1
  Basis Set: CC-PVTZ
  Basis Set:

  -Total Gradient:
     Atom            X                  Y                   Z
    ------   -----------------  -----------------  -----------------
       1        0.000000171435     0.000002255706     0.000000950343
       2        0.000030636474    -0.000012732847     0.000049835171
       3       -0.000061263148     0.000039482940    -0.000097973624
       4        0.000044504222    -0.000048655748     0.000067007656
       5       -0.000017330444     0.000014010278     0.000019001234
       6        0.000013425082    -0.000022301077    -0.000017204239
       7        0.001546090173    -0.001646366434     0.002491754148
       8       -0.000012887889    -0.000002750660     0.000014546385
       9        0.000000115624     0.000017338456    -0.000003070490
      10        0.001064399385     0.000591111457     0.003112956376
      11       -0.001482492256     0.001286346330    -0.002583563408
      12       -0.000017576493     0.000007115163    -0.000016928557
      13        0.000008269808     0.000023994570     0.000033121502
      14       -0.001116563850    -0.000252022805    -0.003029487871
      15       -0.000000135057     0.000008048556    -0.000019502963
      16        0.000000828459    -0.000001062215    -0.000000842988
      17        0.000017597797    -0.000007720746    -0.000014685220
      18       -0.000017789320     0.000003909074    -0.000005913454

  **** Optimization is complete! (in 4 steps) ****
    Final optimized geometry and variables:
    Molecular point group: c1

    Geometry (in Angstrom), charge = 0, multiplicity = 1:

    H           -2.998030604225    -1.270539266794     0.212431764066
    O           -2.171662473263    -0.921711290400    -0.065629281462
    C           -1.893823810230     0.270700439781     0.621981779722
    C           -0.535674820101     0.787845138595     0.188851529918
    H           -2.653666235163     1.016982867035     0.404109112430
    H           -1.899068114791     0.099164221889     1.696713695094
    C            0.626229809789    -0.124723456578     0.581951077290
    H           -0.552736395389     0.926817134926    -0.887710688280
    H           -0.392669571631     1.770282570136     0.630956263518
    C            1.980537768739     0.366136607005     0.048012165508
    H            0.420105243749    -1.115211748810     0.194464125062
    H            0.657698313551    -0.202407052540     1.664463397417
    C            2.332460352446    -0.213970870074    -1.320856045451
    H            1.965153327756     1.449125447814    -0.036221463298
    H            2.768885989298     0.115990918703     0.749318333005
    H            1.566575607283     0.011511429729    -2.055067403856
    H            3.269780100805     0.188790658652    -1.688443802517
    H            2.430914900863    -1.292951519149    -1.271540078764

  Mulliken Charges: (a.u.)
   Center  Symbol    Alpha    Beta     Spin     Total
       1     H     0.39569  0.39569  0.00000  0.20862
       2     O     4.19844  4.19844  0.00000 -0.39689
       3     C     2.97370  2.97370  0.00000  0.05259
       4     C     3.09178  3.09178  0.00000 -0.18356
       5     H     0.46506  0.46506  0.00000  0.06989
       6     H     0.47340  0.47340  0.00000  0.05320
       7     C     3.09444  3.09444  0.00000 -0.18888
       8     H     0.45196  0.45196  0.00000  0.09609
       9     H     0.45370  0.45370  0.00000  0.09260
      10     C     3.08990  3.08990  0.00000 -0.17981
      11     H     0.44657  0.44657  0.00000  0.10687
      12     H     0.45270  0.45270  0.00000  0.09461
      13     C     3.14721  3.14721  0.00000 -0.29442
      14     H     0.45757  0.45757  0.00000  0.08486
      15     H     0.44873  0.44873  0.00000  0.10254
      16     H     0.45403  0.45403  0.00000  0.09194
      17     H     0.45026  0.45026  0.00000  0.09948
      18     H     0.45487  0.45487  0.00000  0.09026

   Total alpha = 25.00000, Total beta = 25.00000, Total charge =  0.00000
