  ==> Input File <==

--------------------------------------------------------------------------
set {
	reference rhf
	basis cc-pvtz
}

set_num_threads( 4 )
memory 2 gb

molecule MOL {
0 1

H	 3.217244	 -0.660792	 -1.174103
C	 2.503873	 -0.858668	 -0.384656
C	 1.322304	 0.099773	 -0.484271
H	 2.183591	 -1.890223	 -0.477847
H	 3.019526	 -0.751598	 0.562962
C	 0.308557	 -0.162619	 0.622645
H	 0.831671	 -0.011495	 -1.443245
H	 1.665849	 1.124172	 -0.409968
N	 -1.069352	 -0.004081	 0.085342
H	 0.371632	 -1.172932	 0.991288
H	 0.400391	 0.548875	 1.426218
O	 -1.584901	 -0.965470	 -0.377818
O	 -1.548033	 1.079343	 0.130056

	symmetry c1
}
set optking {
	frozen_dihedral = ("
		7 3 6 9
	")
}

ee = optimize('scf')
oeprop('DIPOLE', 'QUADRUPOLE', 'MULLIKEN_CHARGES')
f=open( 'psi4out.xyz', 'w' )
f.write( "13  " )
f.write( str(ee) + "\n" )
f.write( MOL.save_string_xyz() )
f.close()
--------------------------------------------------------------------------

    Molecular point group: c1
  Charge       = 0
  Multiplicity = 1
  Basis Set: CC-PVTZ
  Basis Set:
  @DF-RHF Final Energy:  -321.85731826096799
    Total Energy =                       -321.8573182609675314
    Molecular point group: c1
  Basis Set: CC-PVTZ
  Basis Set:
  Basis Set: CC-PVTZ
  Basis Set:
  @DF-RHF Final Energy:  -321.85560990240140
    Total Energy =                       -321.8556099024011132
  Basis Set: CC-PVTZ
  Basis Set:
  Basis Set: CC-PVTZ
  Basis Set:
  @DF-RHF Final Energy:  -321.85393997760741
    Total Energy =                       -321.8539399776072969
  Basis Set: CC-PVTZ
  Basis Set:
  Basis Set: CC-PVTZ
  Basis Set:
  @DF-RHF Final Energy:  -321.85751360718251
    Total Energy =                       -321.8575136071823977
  Basis Set: CC-PVTZ
  Basis Set:
  Basis Set: CC-PVTZ
  Basis Set:
  @DF-RHF Final Energy:  -321.85761248227959
    Total Energy =                       -321.8576124822793076
  Basis Set: CC-PVTZ
  Basis Set:
  Basis Set: CC-PVTZ
  Basis Set:
  @DF-RHF Final Energy:  -321.85769727474843
    Total Energy =                       -321.8576972747486025
  Basis Set: CC-PVTZ
  Basis Set:
  Basis Set: CC-PVTZ
  Basis Set:
  @DF-RHF Final Energy:  -321.85769923304127
    Total Energy =                       -321.8576992330414441
  Basis Set: CC-PVTZ
  Basis Set:
  Charge       = 0
  Multiplicity = 1
  Basis Set: CC-PVTZ
  Basis Set:

    Orbital Energies (a.u.)
    -----------------------

    Doubly Occupied:

       1A    -20.590512     2A    -20.590191     3A    -15.836915
       4A    -11.297284     5A    -11.255066     6A    -11.235948
       7A     -1.636010     8A     -1.420240     9A     -1.132313
      10A     -1.027830    11A     -0.884505    12A     -0.834864
      13A     -0.762247    14A     -0.738192    15A     -0.727652
      16A     -0.664926    17A     -0.609555    18A     -0.592253
      19A     -0.545252    20A     -0.521154    21A     -0.513270
      22A     -0.485272    23A     -0.474977    24A     -0.453679

  @DF-RHF Final Energy:  -321.85769965278030

   => Energetics <=

    Nuclear Repulsion Energy =            248.2940662595281935
    One-Electron Energy =                -930.6433186923441099
    Two-Electron Energy =                 360.4915527800354198
    DFT Exchange-Correlation Energy =       0.0000000000000000
    Empirical Dispersion Energy =           0.0000000000000000
    PCM Polarization Energy =               0.0000000000000000
    EFP Energy =                            0.0000000000000000
    Total Energy =                       -321.8576996527804681
    Molecular point group: c1
  Basis Set: CC-PVTZ
  Basis Set:

  -Total Gradient:
     Atom            X                  Y                   Z
    ------   -----------------  -----------------  -----------------
       1        0.000004000949     0.000003480546    -0.000005805687
       2        0.000002389812     0.000007314825     0.000000080232
       3        0.001082967793    -0.005716700784    -0.000258173701
       4       -0.000010000245     0.000003913550     0.000002010260
       5       -0.000004758038     0.000001752659    -0.000002623361
       6       -0.000080804193     0.004666013172     0.000929408369
       7       -0.000888189877     0.003871906851     0.000034679122
       8        0.000006161601    -0.000008714502    -0.000006123715
       9       -0.000083065170    -0.002763979481    -0.000633334110
      10       -0.000003877275    -0.000018621547     0.000002018284
      11       -0.000003817249    -0.000011236629    -0.000018180635
      12        0.000002277127     0.000001116360    -0.000022963206
      13       -0.000023285236    -0.000036245022    -0.000020991850

  **** Optimization is complete! (in 8 steps) ****
    Final optimized geometry and variables:
    Molecular point group: c1

    Geometry (in Angstrom), charge = 0, multiplicity = 1:

    H            3.292971952930    -0.496941677553    -1.090759421743
    C            2.566335454641    -0.724150208256    -0.321238364374
    C            1.367164785602     0.208992745077    -0.427545413887
    H            2.266570104126    -1.758972778498    -0.436774888293
    H            3.059663435886    -0.622562213581     0.639421754043
    C            0.344165988895    -0.034049254834     0.691628119197
    H            0.879673502529     0.100491992868    -1.387967919982
    H            1.694814884216     1.239741451505    -0.379122143255
    N           -1.033843937323     0.139443640607     0.162184264277
    H            0.383286422177    -1.048909382270     1.049800675115
    H            0.449416988082     0.661746144690     1.505923221771
    O           -1.569351957294    -0.820905230199    -0.280427917576
    O           -1.492590352824     1.232180562632     0.187588834962

  Mulliken Charges: (a.u.)
   Center  Symbol    Alpha    Beta     Spin     Total
       1     H     0.44331  0.44331  0.00000  0.11339
       2     C     3.14985  3.14985  0.00000 -0.29971
       3     C     3.09112  3.09112  0.00000 -0.18225
       4     H     0.44868  0.44868  0.00000  0.10264
       5     H     0.45224  0.45224  0.00000  0.09552
       6     C     3.03798  3.03798  0.00000 -0.07597
       7     H     0.43918  0.43918  0.00000  0.12164
       8     H     0.44236  0.44236  0.00000  0.11527
       9     N     3.27964  3.27964  0.00000  0.44072
      10     H     0.43709  0.43709  0.00000  0.12583
      11     H     0.43289  0.43289  0.00000  0.13423
      12     O     4.17306  4.17306  0.00000 -0.34613
      13     O     4.17259  4.17259  0.00000 -0.34518

   Total alpha = 24.00000, Total beta = 24.00000, Total charge = -0.00000
