                              Psi4 1.0.54 Driver

  ==> Input File <==

--------------------------------------------------------------------------
set {
	reference rhf
	basis cc-pvtz
}

set_num_threads( 4 )
memory 2 gb

molecule MOL {
0 1

O	 0.749630	 1.305591	 -0.000460
C	 0.576499	 0.134701	 -0.003900
C	 -0.765656	 -0.550508	 -0.002152
O	 1.564816	 -0.744612	 -0.000631
C	 -1.945526	 0.411052	 0.000603
H	 -0.794329	 -1.203792	 -0.868145
H	 -0.791555	 -1.205429	 0.862701
C	 -3.277183	 -0.313777	 -0.161374
H	 -1.819008	 1.134136	 -0.795975
H	 -1.942923	 0.977092	 0.924167
H	 -3.316275	 -0.863500	 -1.096032
H	 -4.102142	 0.388283	 -0.157163
H	 -3.441991	 -1.021662	 0.644271
C	 2.884339	 -0.237801	 0.002883
H	 3.064150	 0.362814	 -0.876312
H	 3.533055	 -1.098529	 0.004958
H	 3.059365	 0.363432	 0.882614

	symmetry c1
}
set optking {
	frozen_dihedral = ("
		9 5 3 6
	")
}

ee,wfn = optimize('scf', return_wfn=True)
oeprop( wfn, 'DIPOLE', 'QUADRUPOLE', 'MULLIKEN_CHARGES')
f=open( 'psi4out.xyz', 'w' )
f.write( "17  " )
f.write( str(ee) + "\n" )
f.write( MOL.save_string_xyz() )
f.close()
--------------------------------------------------------------------------

    Molecular point group: c1
  Charge       = 0
  Multiplicity = 1
  Basis Set: CC-PVTZ
  Basis Set:
  @DF-RHF Final Energy:  -345.03525501789301
    Total Energy =                       -345.0352550178929505
    Molecular point group: c1
  Basis Set: CC-PVTZ
  Basis Set:
  Basis Set: CC-PVTZ
  Basis Set:
  @DF-RHF Final Energy:  -345.03501663707505
    Total Energy =                       -345.0350166370752731
  Basis Set: CC-PVTZ
  Basis Set:
  Basis Set: CC-PVTZ
  Basis Set:
  @DF-RHF Final Energy:  -345.03526376973048
    Total Energy =                       -345.0352637697304772
  Basis Set: CC-PVTZ
  Basis Set:
  Basis Set: CC-PVTZ
  Basis Set:
  @DF-RHF Final Energy:  -345.03528302544061
    Total Energy =                       -345.0352830254403784
  Basis Set: CC-PVTZ
  Basis Set:
  Charge       = 0
  Multiplicity = 1
  Basis Set: CC-PVTZ
  Basis Set:

    Orbital Energies (a.u.)
    -----------------------

    Doubly Occupied:

       1A    -20.596728     2A    -20.534594     3A    -11.365100
       4A    -11.278796     5A    -11.234313     6A    -11.220030
       7A    -11.212834     8A     -1.472689     9A     -1.366278
      10A     -1.081687    11A     -1.002632    12A     -0.940426
      13A     -0.828025    14A     -0.769451    15A     -0.703060
      16A     -0.686600    17A     -0.676376    18A     -0.637211
      19A     -0.597105    20A     -0.575607    21A     -0.569659
      22A     -0.528919    23A     -0.523185    24A     -0.500774
      25A     -0.487850    26A     -0.479020    27A     -0.460104
      28A     -0.441791

  @DF-RHF Final Energy:  -345.03528319919275

   => Energetics <=

    Nuclear Repulsion Energy =            313.0044163791548613
    One-Electron Energy =               -1090.5377063763094156
    Two-Electron Energy =                 432.4980067979618639
    DFT Exchange-Correlation Energy =       0.0000000000000000
    Empirical Dispersion Energy =           0.0000000000000000
    PCM Polarization Energy =               0.0000000000000000
    EFP Energy =                            0.0000000000000000
    Total Energy =                       -345.0352831991926337
    Molecular point group: c1
  Basis Set: CC-PVTZ
  Basis Set:

  -Total Gradient:
     Atom            X                  Y                   Z
    ------   -----------------  -----------------  -----------------
       1        0.000023460903    -0.000040592680    -0.000004174803
       2       -0.000023237083     0.000014275337    -0.000017073658
       3        0.000924915708     0.001154344219    -0.000570581273
       4       -0.000007043845     0.000027737139     0.000012564467
       5       -0.000876915282    -0.001085091531    -0.000759100975
       6       -0.000641385266    -0.000774240313     0.000616242480
       7       -0.000000000266    -0.000007607912    -0.000003128355
       8       -0.000005178487    -0.000006631691    -0.000006574439
       9        0.000574967289     0.000714443704     0.000733174560
      10        0.000000030256    -0.000006667344     0.000004412532
      11       -0.000001690928     0.000006210542     0.000004413656
      12        0.000004909462    -0.000003290720     0.000000569900
      13        0.000006890806     0.000007275918    -0.000005438441
      14        0.000020257307    -0.000001741256    -0.000006660223
      15       -0.000001944737    -0.000001205618     0.000001732210
      16        0.000006690379     0.000004653052     0.000000555828
      17       -0.000004726213    -0.000001870847    -0.000000933466

  **** Optimization is complete! (in 5 steps) ****
    Final optimized geometry and variables:
    Molecular point group: c1

    Geometry (in Angstrom), charge = 0, multiplicity = 1:

    O            0.751558779824     1.304230345291     0.027237735893
    C            0.576449134341     0.133629301299     0.021847028288
    C           -0.766481075853    -0.549497684638     0.011294249350
    O            1.563849083330    -0.746702582249     0.025847860298
    C           -1.947517325233     0.411082122598     0.010598706158
    H           -0.793543993852    -1.206752805550    -0.851840672459
    H           -0.798756627424    -1.206017355540     0.875003259134
    C           -3.280618146923    -0.314094511100    -0.132245759635
    H           -1.823155623281     1.131689588441    -0.788169496398
    H           -1.937999666950     0.985331858462     0.929852170449
    H           -3.332451039537    -0.863464180724    -1.066466214134
    H           -4.105836133447     0.387509183526    -0.115863437876
    H           -3.433650904882    -1.022449594576     0.675425672876
    C            2.883686983406    -0.241372195938     0.036582570118
    H            3.067934374202     0.362449408276    -0.839580674605
    H            3.532083765972    -1.102432297551     0.038173762231
    H            3.055797096163     0.356602114707     0.919199411189

  Mulliken Charges: (a.u.)
   Center  Symbol    Alpha    Beta     Spin     Total
       1     O     4.19660  4.19660  0.00000 -0.39321
       2     C     2.80630  2.80630  0.00000  0.38740
       3     C     3.09603  3.09603  0.00000 -0.19206
       4     O     4.14689  4.14689  0.00000 -0.29379
       5     C     3.07888  3.07888  0.00000 -0.15775
       6     H     0.44148  0.44148  0.00000  0.11704
       7     H     0.44058  0.44058  0.00000  0.11885
       8     C     3.15117  3.15117  0.00000 -0.30233
       9     H     0.44525  0.44525  0.00000  0.10950
      10     H     0.44835  0.44835  0.00000  0.10331
      11     H     0.45562  0.45562  0.00000  0.08876
      12     H     0.44560  0.44560  0.00000  0.10881
      13     H     0.45595  0.45595  0.00000  0.08811
      14     C     3.03739  3.03739  0.00000 -0.07478
      15     H     0.45431  0.45431  0.00000  0.09139
      16     H     0.44528  0.44528  0.00000  0.10943
      17     H     0.45434  0.45434  0.00000  0.09132

   Total alpha = 28.00000, Total beta = 28.00000, Total charge =  0.00000

*** Psi4 exiting successfully. Buy a developer a beer!
