  ==> Input File <==

--------------------------------------------------------------------------
set {
	reference rhf
	basis 6-31G*
}

set_num_threads( 4 )
memory 2 gb

molecule MOL {
0 1

H	 -3.560220	 1.426575	 -0.256991
C	 -2.845225	 0.820483	 0.264637
C	 -2.076860	 -0.007332	 -0.404944
H	 -2.778231	 0.909990	 1.332537
O	 -1.180634	 -0.819263	 0.215062
H	 -2.123333	 -0.106659	 -1.475070
C	 0.051604	 -1.018856	 -0.387932
C	 1.043764	 0.054862	 -0.001873
H	 -0.017620	 -1.041351	 -1.469781
H	 0.437898	 -1.966374	 -0.042284
F	 2.212596	 -0.199467	 -0.571921
F	 0.652529	 1.252447	 -0.405055
F	 1.230877	 0.110694	 1.300533

	symmetry c1
}
set optking {
	frozen_dihedral = ("
		6 3 5 7
	")
}

ee = optimize('scf')
oeprop('DIPOLE', 'QUADRUPOLE', 'MULLIKEN_CHARGES')
f=open( 'psi4out.xyz', 'w' )
f.write( "13  " )
f.write( str(ee) + "\n" )
f.write( MOL.save_string_xyz() )
f.close()
--------------------------------------------------------------------------

    Molecular point group: c1
  Charge       = 0
  Multiplicity = 1
  Basis Set: 6-31G*
  Basis Set:
  @DF-RHF Final Energy:  -527.53500393681611
    Total Energy =                       -527.5350039368156558
    Molecular point group: c1
  Basis Set: 6-31G*
  Basis Set:
  Basis Set: 6-31G*
  Basis Set:
  @DF-RHF Final Energy:  -527.53504599669645
    Total Energy =                       -527.5350459966969083
  Basis Set: 6-31G*
  Basis Set:
  Basis Set: 6-31G*
  Basis Set:
  @DF-RHF Final Energy:  -527.53523681428317
    Total Energy =                       -527.5352368142828254
  Basis Set: 6-31G*
  Basis Set:
  Basis Set: 6-31G*
  Basis Set:
  @DF-RHF Final Energy:  -527.53523903991572
    Total Energy =                       -527.5352390399156093
  Basis Set: 6-31G*
  Basis Set:
  Charge       = 0
  Multiplicity = 1
  Basis Set: 6-31G*
  Basis Set:

    Orbital Energies (a.u.)
    -----------------------

    Doubly Occupied:

       1A    -26.342468     2A    -26.340856     3A    -26.338857
       4A    -20.605922     5A    -11.501265     6A    -11.317038
       7A    -11.297832     8A    -11.219613     9A     -1.739636
      10A     -1.637488    11A     -1.636240    12A     -1.435226
      13A     -1.081962    14A     -1.016999    15A     -0.923642
      16A     -0.834828    17A     -0.828776    18A     -0.817693
      19A     -0.791966    20A     -0.715765    21A     -0.710368
      22A     -0.690385    23A     -0.675164    24A     -0.661727
      25A     -0.652985    26A     -0.641088    27A     -0.640281
      28A     -0.582445    29A     -0.565450    30A     -0.525869
      31A     -0.497468    32A     -0.358611

  @DF-RHF Final Energy:  -527.53523938256535

   => Energetics <=

    Nuclear Repulsion Energy =            415.2919538210018686
    One-Electron Energy =               -1554.4025551542877110
    Two-Electron Energy =                 611.5753619507203211
    DFT Exchange-Correlation Energy =       0.0000000000000000
    Empirical Dispersion Energy =           0.0000000000000000
    PCM Polarization Energy =               0.0000000000000000
    EFP Energy =                            0.0000000000000000
    Total Energy =                       -527.5352393825654644
    Molecular point group: c1
  Basis Set: 6-31G*
  Basis Set:

  -Total Gradient:
     Atom            X                  Y                   Z
    ------   -----------------  -----------------  -----------------
       1        0.000004625913    -0.000003517442    -0.000002157704
       2        0.000017397004    -0.000016728961     0.000010594174
       3        0.001750091332     0.001963851255     0.000108664111
       4       -0.000006714115     0.000005617563     0.000001893959
       5       -0.001150127966    -0.001809538367    -0.000890852980
       6       -0.001164330603    -0.001116192052     0.000138345048
       7        0.000540727336     0.000965327366     0.000633750546
       8        0.000017335722     0.000009623992    -0.000035348796
       9        0.000002818588     0.000002099160     0.000012259772
      10        0.000000667013     0.000001208064    -0.000005642958
      11       -0.000007882521    -0.000006252506     0.000012047402
      12        0.000000102073     0.000004869517     0.000012814746
      13       -0.000004709774    -0.000000367590     0.000003632675

  **** Optimization is complete! (in 5 steps) ****
    Final optimized geometry and variables:
    Molecular point group: c1

    Geometry (in Angstrom), charge = 0, multiplicity = 1:

    H           -3.635537802218     1.357052899061    -0.251208234309
    C           -2.908228659765     0.763216150663     0.268109102816
    C           -2.104869844882    -0.027580220701    -0.403534349854
    H           -2.864250700767     0.827575417218     1.339115742750
    O           -1.226533436499    -0.865590639556     0.213417719266
    H           -2.135264053448    -0.117700565397    -1.476717165351
    C            0.005224152151    -1.067746831893    -0.392757932811
    C            1.006530852197     0.001916853498    -0.018166160489
    H           -0.068925368539    -1.093662793565    -1.474809744527
    H            0.390592321448    -2.014496610789    -0.044231803163
    F            2.180983435643    -0.290403461533    -0.559330215476
    F            0.648497783901     1.194622035854    -0.460173607071
    F            1.171531750582     0.088325696827     1.286124865791

  Mulliken Charges: (a.u.)
   Center  Symbol    Alpha    Beta     Spin     Total
       1     H     0.40673  0.40673  0.00000  0.18653
       2     C     3.22577  3.22577  0.00000 -0.45154
       3     C     2.90334  2.90334  0.00000  0.19332
       4     H     0.40052  0.40052  0.00000  0.19896
       5     O     4.30190  4.30190  0.00000 -0.60379
       6     H     0.40915  0.40915  0.00000  0.18169
       7     C     3.06047  3.06047  0.00000 -0.12095
       8     C     2.45660  2.45660  0.00000  1.08680
       9     H     0.40743  0.40743  0.00000  0.18514
      10     H     0.39168  0.39168  0.00000  0.21664
      11     F     4.68340  4.68340  0.00000 -0.36679
      12     F     4.67790  4.67790  0.00000 -0.35581
      13     F     4.67511  4.67511  0.00000 -0.35022

   Total alpha = 32.00000, Total beta = 32.00000, Total charge = -0.00000
