  ==> Input File <==

--------------------------------------------------------------------------
set {
	reference rhf
	basis 6-31G*
}

set_num_threads( 1 )
memory 2 gb

molecule MOL {
0 1

O	 -1.276010	 1.052711	 -0.768302
C	 -1.204840	 0.067374	 -0.106123
C	 -2.388195	 -0.672128	 0.458071
O	 -0.067104	 -0.527208	 0.221609
H	 -2.388023	 -1.694060	 0.097175
H	 -3.300579	 -0.174919	 0.164318
H	 -2.315377	 -0.706351	 1.539059
C	 0.248570	 -1.798165	 -0.364008
C	 1.188391	 -2.484665	 0.611205
C	 0.864154	 -1.591521	 -1.739145
H	 -0.670122	 -2.358656	 -0.455453
H	 0.717755	 -2.597915	 1.581217
H	 1.455293	 -3.469650	 0.242558
H	 2.098089	 -1.907544	 0.737831
H	 1.126531	 -2.548821	 -2.178179
H	 0.165975	 -1.096205	 -2.401855
H	 1.765222	 -0.991054	 -1.664831

	symmetry c1
}
set optking {
	frozen_dihedral = ("
		11 8 4 2
	")
}

ee = energy('scf')
oeprop('DIPOLE', 'QUADRUPOLE', 'MULLIKEN_CHARGES')
f=open( 'psi4out.xyz', 'w' )
f.write( "17  " )
f.write( str(ee) + "\n" )
f.write( MOL.save_string_xyz() )
f.close()
--------------------------------------------------------------------------

    Molecular point group: c1

    Geometry (in Angstrom), charge = 0, multiplicity = 1:

       Center              X                  Y                   Z               Mass
    ------------   -----------------  -----------------  -----------------  -----------------
           O         -0.900360762407     1.905341433678    -0.525515380109    15.994914619560
           C         -0.829190762407     0.920004433678     0.136663619891    12.000000000000
           C         -2.012545762407     0.180502433678     0.700857619891    12.000000000000
           O          0.308545237593     0.325422433678     0.464395619891    15.994914619560
           H         -2.012373762407    -0.841429566322     0.339961619891     1.007825032070
           H         -2.924929762407     0.677711433678     0.407104619891     1.007825032070
           H         -1.939727762407     0.146279433678     1.781845619891     1.007825032070
           C          0.624219237593    -0.945534566322    -0.121221380109    12.000000000000
           C          1.564040237593    -1.632034566322     0.853991619891    12.000000000000
           C          1.239803237593    -0.738890566322    -1.496358380109    12.000000000000
           H         -0.294472762407    -1.506025566322    -0.212666380109     1.007825032070
           H          1.093404237593    -1.745284566322     1.824003619891     1.007825032070
           H          1.830942237593    -2.617019566322     0.485344619891     1.007825032070
           H          2.473738237593    -1.054913566322     0.980617619891     1.007825032070
           H          1.502180237593    -1.696190566322    -1.935392380109     1.007825032070
           H          0.541624237593    -0.243574566322    -2.159068380109     1.007825032070
           H          2.140871237593    -0.138423566322    -1.422044380109     1.007825032070

  Charge       = 0
  Multiplicity = 1
  Basis Set: 6-31G*
  Basis Set:

    Orbital Energies (a.u.)
    -----------------------

    Doubly Occupied:

       1A    -20.584857     2A    -20.551426     3A    -11.375221
       4A    -11.306095     5A    -11.233847     6A    -11.226251
       7A    -11.222658     8A     -1.460201     9A     -1.366503
      10A     -1.078893    11A     -1.012087    12A     -0.955350
      13A     -0.855592    14A     -0.774593    15A     -0.693188
      16A     -0.674436    17A     -0.657760    18A     -0.622112
      19A     -0.591875    20A     -0.589648    21A     -0.559233
      22A     -0.554511    23A     -0.546205    24A     -0.522181
      25A     -0.511247    26A     -0.477905    27A     -0.449201
      28A     -0.434433

  @DF-RHF Final Energy:  -344.89119513113150

   => Energetics <=

    Nuclear Repulsion Energy =            323.9464366719955137
    One-Electron Energy =               -1111.9003149090247007
    Two-Electron Energy =                 443.0626831058980315
    DFT Exchange-Correlation Energy =       0.0000000000000000
    Empirical Dispersion Energy =           0.0000000000000000
    PCM Polarization Energy =               0.0000000000000000
    EFP Energy =                            0.0000000000000000
    Total Energy =                       -344.8911951311310986

  Mulliken Charges: (a.u.)
   Center  Symbol    Alpha    Beta     Spin     Total
       1     O     4.25898  4.25898  0.00000 -0.51796
       2     C     2.62458  2.62458  0.00000  0.75084
       3     C     3.29199  3.29199  0.00000 -0.58398
       4     O     4.31295  4.31295  0.00000 -0.62590
       5     H     0.40719  0.40719  0.00000  0.18562
       6     H     0.39700  0.39700  0.00000  0.20599
       7     H     0.39933  0.39933  0.00000  0.20134
       8     C     2.93285  2.93285  0.00000  0.13430
       9     C     3.23999  3.23999  0.00000 -0.47998
      10     C     3.24222  3.24222  0.00000 -0.48443
      11     H     0.42078  0.42078  0.00000  0.15843
      12     H     0.41172  0.41172  0.00000  0.17656
      13     H     0.41816  0.41816  0.00000  0.16368
      14     H     0.40798  0.40798  0.00000  0.18404
      15     H     0.41927  0.41927  0.00000  0.16147
      16     H     0.40757  0.40757  0.00000  0.18485
      17     H     0.40744  0.40744  0.00000  0.18513

   Total alpha = 28.00000, Total beta = 28.00000, Total charge =  0.00000
