  ==> Input File <==

--------------------------------------------------------------------------
set {
	reference rhf
	basis cc-pvtz
}

set_num_threads( 4 )
memory 2 gb

molecule MOL {
0 1

H	 2.719805	 -0.518204	 0.792635
N	 2.326826	 -0.066186	 0.000000
C	 0.934676	 -0.005420	 0.000000
H	 2.777373	 0.800679	 -0.180483
C	 0.226436	 -0.001077	 -1.195129
C	 0.226436	 -0.001077	 1.195129
H	 0.759091	 -0.011439	 -2.128123
C	 -1.153391	 0.009141	 -1.189028
H	 0.759091	 -0.011439	 2.128123
C	 -1.153391	 0.009141	 1.189028
H	 -1.680905	 0.012964	 -2.124348
C	 -1.857876	 0.014675	 0.000000
H	 -1.680905	 0.012964	 2.124348
H	 -2.930222	 0.022904	 0.000000

	symmetry c1
}
set optking {
	frozen_dihedral = ("
		1 2 3 5
	")
}

ee = optimize('scf')
oeprop('DIPOLE', 'QUADRUPOLE', 'MULLIKEN_CHARGES')
f=open( 'psi4out.xyz', 'w' )
f.write( "14  " )
f.write( str(ee) + "\n" )
f.write( MOL.save_string_xyz() )
f.close()
--------------------------------------------------------------------------

    Molecular point group: c1
  Charge       = 0
  Multiplicity = 1
  Basis Set: CC-PVTZ
  Basis Set:
  @DF-RHF Final Energy:  -285.82815612963117
    Total Energy =                       -285.8281561296312816
    Molecular point group: c1
  Basis Set: CC-PVTZ
  Basis Set:
  Basis Set: CC-PVTZ
  Basis Set:
  @DF-RHF Final Energy:  -285.82877025080018
    Total Energy =                       -285.8287702508001757
  Basis Set: CC-PVTZ
  Basis Set:
  Basis Set: CC-PVTZ
  Basis Set:
  @DF-RHF Final Energy:  -285.82884856784295
    Total Energy =                       -285.8288485678428970
  Basis Set: CC-PVTZ
  Basis Set:
  Basis Set: CC-PVTZ
  Basis Set:
  @DF-RHF Final Energy:  -285.82887849357451
    Total Energy =                       -285.8288784935745070
  Basis Set: CC-PVTZ
  Basis Set:
  Basis Set: CC-PVTZ
  Basis Set:
  @DF-RHF Final Energy:  -285.82888624782203
    Total Energy =                       -285.8288862478223109
  Basis Set: CC-PVTZ
  Basis Set:
  Charge       = 0
  Multiplicity = 1
  Basis Set: CC-PVTZ
  Basis Set:

    Orbital Energies (a.u.)
    -----------------------

    Doubly Occupied:

       1A    -15.544629     2A    -11.262555     3A    -11.227742
       4A    -11.226629     5A    -11.221454     6A    -11.220295
       7A    -11.218024     8A     -1.213290     9A     -1.131103
      10A     -1.014904    11A     -0.989364    12A     -0.830779
      13A     -0.811461    14A     -0.706273    15A     -0.675651
      16A     -0.649761    17A     -0.621820    18A     -0.594974
      19A     -0.584559    20A     -0.511443    21A     -0.504023
      22A     -0.493107    23A     -0.423923    24A     -0.335935
      25A     -0.315935

  @DF-RHF Final Energy:  -285.82888694196726

   => Energetics <=

    Nuclear Repulsion Energy =            273.1765385710622809
    One-Electron Energy =                -927.3515880873507058
    Two-Electron Energy =                 368.3461625743212835
    DFT Exchange-Correlation Energy =       0.0000000000000000
    Empirical Dispersion Energy =           0.0000000000000000
    PCM Polarization Energy =               0.0000000000000000
    EFP Energy =                            0.0000000000000000
    Total Energy =                       -285.8288869419671983
    Molecular point group: c1
  Basis Set: CC-PVTZ
  Basis Set:

  -Total Gradient:
     Atom            X                  Y                   Z
    ------   -----------------  -----------------  -----------------
       1       -0.000178192498    -0.003285646215    -0.001778751612
       2        0.000202730953     0.002834364820     0.002303732172
       3        0.000085787868     0.003254727514    -0.000517694373
       4        0.000005344420     0.000004952792    -0.000001361873
       5       -0.000232365484    -0.002820435117     0.000014133212
       6        0.000091070067     0.000035449816    -0.000009159222
       7        0.000003476139     0.000002357044     0.000010001951
       8        0.000109264664     0.000007368002    -0.000048338809
       9       -0.000007817943    -0.000006337253    -0.000006268049
      10       -0.000063375749    -0.000028949844    -0.000042939915
      11       -0.000013655289    -0.000004833491    -0.000002826889
      12       -0.000003046609    -0.000003080335     0.000081563742
      13       -0.000004861949     0.000005491157     0.000004082087
      14        0.000005641408     0.000004571111    -0.000006172425

  **** Optimization is complete! (in 6 steps) ****
    Final optimized geometry and variables:
    Molecular point group: c1

    Geometry (in Angstrom), charge = 0, multiplicity = 1:

    H            2.732573685062    -0.513469769998     0.762904147432
    N            2.344830609289    -0.061528215908    -0.033957033091
    C            0.928495646728    -0.002758209047     0.001857771029
    H            2.775413567402     0.826106496956    -0.171538494843
    C            0.226174583065    -0.008450892947    -1.193791051198
    C            0.220574267717    -0.000777727539     1.193030872865
    H            0.773330004667    -0.044279854500    -2.115865262858
    C           -1.153910421038     0.023173579243    -1.195559991907
    H            0.753569180498    -0.002937498745     2.125837269997
    C           -1.162266487202     0.006091239262     1.189065216717
    H           -1.682606974682     0.025839251247    -2.129949921567
    C           -1.856466289476     0.026547755903    -0.004144747810
    H           -1.694711166743     0.003464941743     2.121334599265
    H           -2.929319018242     0.038345380353    -0.007297296143

  Mulliken Charges: (a.u.)
   Center  Symbol    Alpha    Beta     Spin     Total
       1     H     0.42011  0.42011  0.00000  0.15978
       2     N     3.70362  3.70362  0.00000 -0.40724
       3     C     2.89105  2.89105  0.00000  0.21790
       4     H     0.41928  0.41928  0.00000  0.16145
       5     C     3.10684  3.10684  0.00000 -0.21367
       6     C     3.11345  3.11345  0.00000 -0.22690
       7     H     0.42077  0.42077  0.00000  0.15846
       8     C     3.06468  3.06468  0.00000 -0.12937
       9     H     0.42917  0.42917  0.00000  0.14167
      10     C     3.06999  3.06999  0.00000 -0.13997
      11     H     0.42360  0.42360  0.00000  0.15279
      12     C     3.08931  3.08931  0.00000 -0.17861
      13     H     0.42399  0.42399  0.00000  0.15203
      14     H     0.42415  0.42415  0.00000  0.15170

   Total alpha = 25.00000, Total beta = 25.00000, Total charge = -0.00000
