  ==> Input File <==

--------------------------------------------------------------------------
set {
	reference rhf
	basis cc-pvtz
}

set_num_threads( 4 )
memory 2 gb

molecule MOL {
0 1

H	 1.320232	 -1.395897	 -0.299844
C	 0.741342	 -0.473358	 -0.372347
N	 -0.537714	 -0.645117	 0.000000
O	 1.230403	 0.545972	 -0.744508
C	 -1.522613	 0.412524	 0.000000
H	 -0.809618	 -1.552085	 0.288896
H	 -2.150256	 0.356137	 -0.880771
H	 -1.005621	 1.357208	 0.000000
H	 -2.150256	 0.356137	 0.880771

	symmetry c1
}
set optking {
	frozen_dihedral = ("
		6 3 5 7
	")
}

ee = optimize('scf')
oeprop('DIPOLE', 'QUADRUPOLE', 'MULLIKEN_CHARGES')
f=open( 'psi4out.xyz', 'w' )
f.write( "9  " )
f.write( str(ee) + "\n" )
f.write( MOL.save_string_xyz() )
f.close()
--------------------------------------------------------------------------

    Molecular point group: c1
  Charge       = 0
  Multiplicity = 1
  Basis Set: CC-PVTZ
  Basis Set:
  @DF-RHF Final Energy:  -208.04349207459344
    Total Energy =                       -208.0434920745934164
    Molecular point group: c1
  Basis Set: CC-PVTZ
  Basis Set:
  Basis Set: CC-PVTZ
  Basis Set:
  @DF-RHF Final Energy:  -208.04357034532302
    Total Energy =                       -208.0435703453230758
  Basis Set: CC-PVTZ
  Basis Set:
  Basis Set: CC-PVTZ
  Basis Set:
  @DF-RHF Final Energy:  -208.04357623593228
    Total Energy =                       -208.0435762359323917
  Basis Set: CC-PVTZ
  Basis Set:
  Basis Set: CC-PVTZ
  Basis Set:
  @DF-RHF Final Energy:  -208.04361619736670
    Total Energy =                       -208.0436161973666174
  Basis Set: CC-PVTZ
  Basis Set:
  Basis Set: CC-PVTZ
  Basis Set:
  @DF-RHF Final Energy:  -208.04363661882451
    Total Energy =                       -208.0436366188245074
  Basis Set: CC-PVTZ
  Basis Set:
  Basis Set: CC-PVTZ
  Basis Set:
  @DF-RHF Final Energy:  -208.04363924006790
    Total Energy =                       -208.0436392400680461
  Basis Set: CC-PVTZ
  Basis Set:
  Charge       = 0
  Multiplicity = 1
  Basis Set: CC-PVTZ
  Basis Set:

    Orbital Energies (a.u.)
    -----------------------

    Doubly Occupied:

       1A    -20.516620     2A    -15.584811     3A    -11.337130
       4A    -11.259618     5A     -1.393996     6A     -1.239729
       7A     -0.970080     8A     -0.808396     9A     -0.748783
      10A     -0.646329    11A     -0.629637    12A     -0.596517
      13A     -0.556677    14A     -0.540469    15A     -0.428592
      16A     -0.396393

  @DF-RHF Final Energy:  -208.04363944562823

   => Energetics <=

    Nuclear Repulsion Energy =            122.7785149904391915
    One-Electron Energy =                -526.3367538203913227
    Two-Electron Energy =                 195.5145993843239012
    DFT Exchange-Correlation Energy =       0.0000000000000000
    Empirical Dispersion Energy =           0.0000000000000000
    PCM Polarization Energy =               0.0000000000000000
    EFP Energy =                            0.0000000000000000
    Total Energy =                       -208.0436394456282301
    Molecular point group: c1
  Basis Set: CC-PVTZ
  Basis Set:

  -Total Gradient:
     Atom            X                  Y                   Z
    ------   -----------------  -----------------  -----------------
       1        0.000010669773    -0.000005160250    -0.000005375439
       2       -0.000023949099    -0.000051032064     0.000029849093
       3        0.000047564062     0.000048780180     0.000218692174
       4       -0.000009812491     0.000022708106    -0.000006190641
       5        0.000097908579     0.000107127911    -0.000139038387
       6       -0.000024210456    -0.000034706511    -0.000165779572
       7       -0.000098777301    -0.000088662031     0.000065510707
       8        0.000001473868    -0.000002376594     0.000003230502
       9       -0.000000866935     0.000003321253    -0.000000898438

  **** Optimization is complete! (in 7 steps) ****
    Final optimized geometry and variables:
    Molecular point group: c1

    Geometry (in Angstrom), charge = 0, multiplicity = 1:

    H            1.362014248593    -1.361114876728    -0.020610340188
    C            0.774321584687    -0.444657431612    -0.101525180355
    N           -0.483181640109    -0.599607587402     0.345055406609
    O            1.236884351698     0.564062864652    -0.531475095029
    C           -1.474351674011     0.451073475474     0.288068461418
    H           -0.768019149517    -1.513037542930     0.599064767430
    H           -2.045176457527     0.419266933309    -0.632979702192
    H           -0.976845214909     1.405067719997     0.350270231931
    H           -2.153592375033     0.352493881826     1.123690911990

  Mulliken Charges: (a.u.)
   Center  Symbol    Alpha    Beta     Spin     Total
       1     H     0.46340  0.46340  0.00000  0.07321
       2     C     2.88082  2.88082  0.00000  0.23835
       3     N     3.60694  3.60694  0.00000 -0.21388
       4     O     4.21422  4.21422  0.00000 -0.42844
       5     C     3.07923  3.07923  0.00000 -0.15845
       6     H     0.41032  0.41032  0.00000  0.17936
       7     H     0.45543  0.45543  0.00000  0.08914
       8     H     0.43586  0.43586  0.00000  0.12829
       9     H     0.45378  0.45378  0.00000  0.09243

   Total alpha = 16.00000, Total beta = 16.00000, Total charge =  0.00000
