                              Psi4 1.0.54 Driver

  ==> Input File <==

--------------------------------------------------------------------------
set {
	reference rhf
	basis cc-pvtz
}

set_num_threads( 4 )
memory 2 gb

molecule MOL {
0 1

H	 3.239790	 0.197611	 0.425130
N	 2.389172	 -0.323621	 0.444025
C	 1.263552	 0.494993	 0.021953
H	 2.262962	 -0.647619	 1.380205
C	 -0.016533	 -0.325589	 -0.026925
H	 1.483297	 0.874115	 -0.970505
H	 1.107830	 1.364740	 0.661699
C	 -1.280353	 0.525521	 0.047747
H	 -0.016686	 -0.912532	 -0.939714
H	 -0.014099	 -1.037598	 0.796369
C	 -2.560681	 -0.301323	 -0.007747
H	 -1.279957	 1.241025	 -0.770189
H	 -1.270445	 1.110526	 0.963468
H	 -2.617064	 -0.872870	 -0.928010
H	 -3.439525	 0.331102	 0.043462
H	 -2.609427	 -1.002736	 0.818585

	symmetry c1
}
set optking {
	frozen_dihedral = ("
		6 3 5 9
	")
}

ee,wfn = optimize('scf', return_wfn=True)
oeprop( wfn, 'DIPOLE', 'QUADRUPOLE', 'MULLIKEN_CHARGES')
f=open( 'psi4out.xyz', 'w' )
f.write( "16  " )
f.write( str(ee) + "\n" )
f.write( MOL.save_string_xyz() )
f.close()
--------------------------------------------------------------------------

    Molecular point group: c1
  Charge       = 0
  Multiplicity = 1
  Basis Set: CC-PVTZ
  Basis Set:
  @DF-RHF Final Energy:  -212.39841674994361
    Total Energy =                       -212.3984167499435216
    Molecular point group: c1
  Basis Set: CC-PVTZ
  Basis Set:
  Basis Set: CC-PVTZ
  Basis Set:
  @DF-RHF Final Energy:  -212.39862067258323
    Total Energy =                       -212.3986206725830925
  Basis Set: CC-PVTZ
  Basis Set:
  Basis Set: CC-PVTZ
  Basis Set:
  @DF-RHF Final Energy:  -212.39867697388644
    Total Energy =                       -212.3986769738864950
  Basis Set: CC-PVTZ
  Basis Set:
  Charge       = 0
  Multiplicity = 1
  Basis Set: CC-PVTZ
  Basis Set:

    Orbital Energies (a.u.)
    -----------------------

    Doubly Occupied:

       1A    -15.526159     2A    -11.238295     3A    -11.212766
       4A    -11.208130     5A    -11.205801     6A     -1.177545
       7A     -1.060470     8A     -0.959019     9A     -0.844632
      10A     -0.791679    11A     -0.669152    12A     -0.630652
      13A     -0.612589    14A     -0.575826    15A     -0.560951
      16A     -0.529149    17A     -0.501803    18A     -0.471165
      19A     -0.465933    20A     -0.459271    21A     -0.383671

  @DF-RHF Final Energy:  -212.39867787246172

   => Energetics <=

    Nuclear Repulsion Energy =            186.5403656267098711
    One-Electron Energy =                -655.7087662652402287
    Two-Electron Energy =                 256.7697227660685257
    DFT Exchange-Correlation Energy =       0.0000000000000000
    Empirical Dispersion Energy =           0.0000000000000000
    PCM Polarization Energy =               0.0000000000000000
    EFP Energy =                            0.0000000000000000
    Total Energy =                       -212.3986778724618034
    Molecular point group: c1
  Basis Set: CC-PVTZ
  Basis Set:

  -Total Gradient:
     Atom            X                  Y                   Z
    ------   -----------------  -----------------  -----------------
       1        0.000029839037    -0.000035157084     0.000026967159
       2        0.000052460926     0.000066293062    -0.000027109506
       3       -0.003116298751     0.004705997847     0.000604971204
       4       -0.000001788944     0.000017299558    -0.000028246583
       5        0.002827980826    -0.004404462080     0.002134906149
       6        0.002176839105    -0.003327948549    -0.000807256818
       7       -0.000008675297    -0.000019088520    -0.000009728214
       8        0.000008402101    -0.000047719271     0.000058280065
       9       -0.001903141297     0.002978405151    -0.001925248947
      10       -0.000006236802     0.000050826785    -0.000020325838
      11       -0.000043767319     0.000006165931    -0.000015105678
      12        0.000005649867    -0.000012194304     0.000013014200
      13       -0.000014184383     0.000021160028    -0.000000904062
      14        0.000004474600    -0.000006005890     0.000007080027
      15       -0.000011191355    -0.000003003673    -0.000009032715
      16       -0.000000362316     0.000009431007    -0.000002260440

  **** Optimization is complete! (in 4 steps) ****
    Final optimized geometry and variables:
    Molecular point group: c1

    Geometry (in Angstrom), charge = 0, multiplicity = 1:

    H            3.266180762687     0.189155480423     0.218749209722
    N            2.415402513028    -0.327583463323     0.288706618186
    C            1.269503541636     0.493404648160    -0.076906808081
    H            2.340116380224    -0.646472891236     1.231932963325
    C           -0.007339176243    -0.342095497119    -0.095836899914
    H            1.464966747161     0.868215173542    -1.075314728510
    H            1.137837515280     1.353444504490     0.579205349647
    C           -1.275371751610     0.507553377763    -0.044802757908
    H           -0.025318950700    -0.936492581226    -1.003334140916
    H           -0.001159456281    -1.033304210833     0.742277074759
    C           -2.553187620491    -0.319467449833    -0.138374571476
    H           -1.256358845738     1.231064218352    -0.856064463454
    H           -1.287152204423     1.084924244615     0.875623190937
    H           -2.591148665358    -0.877320786061    -1.067973298039
    H           -3.434007236955     0.310856560554    -0.094650284706
    H           -2.616778921364    -1.033629392488     0.676049066373

  Mulliken Charges: (a.u.)
   Center  Symbol    Alpha    Beta     Spin     Total
       1     H     0.42970  0.42970  0.00000  0.14061
       2     N     3.69117  3.69117  0.00000 -0.38233
       3     C     3.02826  3.02826  0.00000 -0.05652
       4     H     0.43070  0.43070  0.00000  0.13859
       5     C     3.07762  3.07762  0.00000 -0.15524
       6     H     0.45594  0.45594  0.00000  0.08812
       7     H     0.46767  0.46767  0.00000  0.06467
       8     C     3.08900  3.08900  0.00000 -0.17799
       9     H     0.45220  0.45220  0.00000  0.09560
      10     H     0.45791  0.45791  0.00000  0.08418
      11     C     3.14965  3.14965  0.00000 -0.29930
      12     H     0.45524  0.45524  0.00000  0.08951
      13     H     0.45644  0.45644  0.00000  0.08713
      14     H     0.45447  0.45447  0.00000  0.09106
      15     H     0.44879  0.44879  0.00000  0.10242
      16     H     0.45525  0.45525  0.00000  0.08949

   Total alpha = 21.00000, Total beta = 21.00000, Total charge = -0.00000

*** Psi4 exiting successfully. Buy a developer a beer!
