                              Psi4 1.0.54 Driver

  ==> Input File <==

--------------------------------------------------------------------------
set {
	reference rhf
	basis cc-pvtz
}

set_num_threads( 4 )
memory 2 gb

molecule MOL {
0 1

H	 3.106973	 4.272985	 3.114363
C	 2.738612	 3.481580	 2.489732
C	 1.576824	 3.661797	 1.760752
C	 3.426645	 2.285259	 2.416168
H	 1.043310	 4.590638	 1.818346
C	 1.104105	 2.644380	 0.958322
H	 4.327520	 2.146497	 2.981891
C	 2.954577	 1.265559	 1.613137
H	 0.206363	 2.766921	 0.387269
C	 1.791034	 1.442670	 0.881487
H	 3.485021	 0.337845	 1.553918
C	 1.238974	 0.374429	 0.000004
O	 1.968286	 -0.725612	 -0.000027
O	 0.247269	 0.493370	 -0.638395
C	 3.373556	 -0.568203	 0.000011
H	 3.695416	 -0.031588	 -0.879663
H	 3.782700	 -1.565294	 -0.000152
H	 3.695405	 -0.031851	 0.879862

	symmetry c1
}
set optking {
	frozen_dihedral = ("
		10 12 13 15
	")
}

ee,wfn = optimize('scf', return_wfn=True)
oeprop( wfn, 'DIPOLE', 'QUADRUPOLE', 'MULLIKEN_CHARGES')
f=open( 'psi4out.xyz', 'w' )
f.write( "18  " )
f.write( str(ee) + "\n" )
f.write( MOL.save_string_xyz() )
f.close()
--------------------------------------------------------------------------

    Molecular point group: c1
  Charge       = 0
  Multiplicity = 1
  Basis Set: CC-PVTZ
  Basis Set:
  @DF-RHF Final Energy:  -457.35749836451254
    Total Energy =                       -457.3574983645125940
    Molecular point group: c1
  Basis Set: CC-PVTZ
  Basis Set:
  Basis Set: CC-PVTZ
  Basis Set:
  @DF-RHF Final Energy:  -457.35169386903539
    Total Energy =                       -457.3516938690356710
  Basis Set: CC-PVTZ
  Basis Set:
  Basis Set: CC-PVTZ
  Basis Set:
  @DF-RHF Final Energy:  -457.39149764127234
    Total Energy =                       -457.3914976412725082
  Basis Set: CC-PVTZ
  Basis Set:
  Basis Set: CC-PVTZ
  Basis Set:
  @DF-RHF Final Energy:  -457.44048099339011
    Total Energy =                       -457.4404809933898832
  Basis Set: CC-PVTZ
  Basis Set:
  @DF-RHF Final Energy:  -457.47094630261876
    Total Energy =                       -457.4709463026192680
  @DF-RHF Final Energy:  -457.47740318038331
    Total Energy =                       -457.4774031803837033
  @DF-RHF Final Energy:  -457.48139337849466
    Total Energy =                       -457.4813933784947722
  @DF-RHF Final Energy:  -457.47112033261635
    Total Energy =                       -457.4711203326157829
  @DF-RHF Final Energy:  -457.48563007512900
    Total Energy =                       -457.4856300751290519
  @DF-RHF Final Energy:  -457.48676194639160
    Total Energy =                       -457.4867619463918800
  @DF-RHF Final Energy:  -457.48831792939245
    Total Energy =                       -457.4883179293926787
  @DF-RHF Final Energy:  -457.48872541941563
    Total Energy =                       -457.4887254194155730
  @DF-RHF Final Energy:  -457.48902818719205
    Total Energy =                       -457.4890281871918205
  @DF-RHF Final Energy:  -457.48909483427468
    Total Energy =                       -457.4890948342743968
  @DF-RHF Final Energy:  -457.48910581298020
    Total Energy =                       -457.4891058129800285
  @DF-RHF Final Energy:  -457.48910885006512
    Total Energy =                       -457.4891088500650085
  @DF-RHF Final Energy:  -457.48911280691999
    Total Energy =                       -457.4891128069199340
  @DF-RHF Final Energy:  -457.48911707340534
    Total Energy =                       -457.4891170734056232
  @DF-RHF Final Energy:  -457.48912046587725
    Total Energy =                       -457.4891204658773631
  @DF-RHF Final Energy:  -457.48912362566296
    Total Energy =                       -457.4891236256635239
  @DF-RHF Final Energy:  -457.48913226860697
    Total Energy =                       -457.4891322686069088
  @DF-RHF Final Energy:  -457.48907662467485
    Total Energy =                       -457.4890766246744533
  @DF-RHF Final Energy:  -457.48907686030537
    Total Energy =                       -457.4890768603054312
  @DF-RHF Final Energy:  -457.48916384450547
    Total Energy =                       -457.4891638445052422
  @DF-RHF Final Energy:  -457.48916949172843
    Total Energy =                       -457.4891694917282621
  @DF-RHF Final Energy:  -457.48917469514828
    Total Energy =                       -457.4891746951484492
  Basis Set: CC-PVTZ
  Basis Set:
  @DF-RHF Final Energy:  -457.48918528733611
    Total Energy =                       -457.4891852873357720
  Basis Set: CC-PVTZ
  Basis Set:
  Basis Set: CC-PVTZ
  Basis Set:
  @DF-RHF Final Energy:  -457.48919011098451
    Total Energy =                       -457.4891901109847367
  Basis Set: CC-PVTZ
  Basis Set:
  Basis Set: CC-PVTZ
  Basis Set:
  @DF-RHF Final Energy:  -457.48919228627585
    Total Energy =                       -457.4891922862763067
  Basis Set: CC-PVTZ
  Basis Set:
  Charge       = 0
  Multiplicity = 1
  Basis Set: CC-PVTZ
  Basis Set:

    Orbital Energies (a.u.)
    -----------------------

    Doubly Occupied:

       1A    -20.592515     2A    -20.535672     3A    -11.373712
       4A    -11.291772     5A    -11.253681     6A    -11.251349
       7A    -11.248350     8A    -11.246807     9A    -11.244487
      10A    -11.242664    11A     -1.466947    12A     -1.371076
      13A     -1.177648    14A     -1.050859    15A     -1.036540
      16A     -0.985020    17A     -0.878760    18A     -0.848422
      19A     -0.787149    20A     -0.741520    21A     -0.691852
      22A     -0.680528    23A     -0.676346    24A     -0.643232
      25A     -0.633176    26A     -0.608990    27A     -0.602345
      28A     -0.568186    29A     -0.540080    30A     -0.522016
      31A     -0.514615    32A     -0.502767    33A     -0.458928
      34A     -0.445749    35A     -0.356193    36A     -0.353260

  @DF-RHF Final Energy:  -457.48919321864838

   => Energetics <=

    Nuclear Repulsion Energy =            499.0373733254801323
    One-Electron Energy =               -1612.2067052318611786
    Two-Electron Energy =                 655.6801386877325513
    DFT Exchange-Correlation Energy =       0.0000000000000000
    Empirical Dispersion Energy =           0.0000000000000000
    PCM Polarization Energy =               0.0000000000000000
    EFP Energy =                            0.0000000000000000
    Total Energy =                       -457.4891932186485519
    Molecular point group: c1
  Basis Set: CC-PVTZ
  Basis Set:

  -Total Gradient:
     Atom            X                  Y                   Z
    ------   -----------------  -----------------  -----------------
       1        0.000002168260    -0.000012596793    -0.000004311875
       2       -0.000024172791    -0.000035178303     0.000006758896
       3        0.000009062745    -0.000026109580    -0.000032608013
       4       -0.000058364485     0.000088772764     0.000132058438
       5       -0.000004058681    -0.000013753212    -0.000004214152
       6        0.000028421114     0.000030163968     0.000000211680
       7        0.000007509655     0.000006831647    -0.000006656075
       8        0.000046130127    -0.000005903409    -0.000087123968
       9       -0.000010157046    -0.000012527575     0.000004525061
      10       -0.000060127437    -0.000035845944     0.000030933511
      11        0.000006135277     0.000011889341    -0.000004781264
      12        0.000088714507     0.000016070919    -0.000047040292
      13       -0.000073888980     0.000005195765     0.000046394588
      14       -0.000012129997    -0.000009344247     0.000013716670
      15        0.000097559825    -0.000057172309    -0.000040037867
      16       -0.000004497837    -0.000000098603    -0.000006109044
      17        0.000000763971     0.000021338230     0.000000865719
      18       -0.000039068227     0.000028267340    -0.000002582013

  **** Optimization is complete! (in 30 steps) ****
    Final optimized geometry and variables:
    Molecular point group: c1

    Geometry (in Angstrom), charge = 0, multiplicity = 1:

    H           -1.020837916776     2.351195110668     2.908092248553
    C           -0.761308199813     1.746716075497     2.060183426605
    C           -0.027322348574     2.291007024616     1.021763746486
    C           -1.168722371917     0.427800696849     2.002740096365
    H            0.283251994257     3.317016409589     1.062072981510
    C            0.295052976133     1.517596208469    -0.074416913699
    H           -1.753063861597     0.008649559864     2.798809974912
    C           -0.825485255810    -0.353457383335     0.916140080180
    H            0.839442286371     1.935824417593    -0.897253126514
    C           -0.089637527436     0.187154463613    -0.124852240044
    H           -1.153935470484    -1.372843210599     0.870759707691
    C            0.234631785662    -0.598944995018    -1.358684728088
    O            0.494539569178    -1.899463182996    -1.228141400843
    O            0.221153374022    -0.107836713162    -2.430017258157
    C            1.256691511767    -2.419267800924    -0.159317235175
    H            1.825254778103    -1.649853799047     0.341922382980
    H            1.936008559256    -3.140264231756    -0.587004321925
    H            0.617313103048    -2.914920074351     0.556662512572

  Mulliken Charges: (a.u.)
   Center  Symbol    Alpha    Beta     Spin     Total
       1     H     0.41972  0.41972  0.00000  0.16056
       2     C     3.07288  3.07288  0.00000 -0.14576
       3     C     3.06914  3.06914  0.00000 -0.13827
       4     C     3.07515  3.07515  0.00000 -0.15029
       5     H     0.41973  0.41973  0.00000  0.16054
       6     C     3.08280  3.08280  0.00000 -0.16560
       7     H     0.42050  0.42050  0.00000  0.15899
       8     C     3.08126  3.08126  0.00000 -0.16252
       9     H     0.40993  0.40993  0.00000  0.18013
      10     C     3.02006  3.02006  0.00000 -0.04011
      11     H     0.41526  0.41526  0.00000  0.16949
      12     C     2.80187  2.80187  0.00000  0.39625
      13     O     4.13936  4.13936  0.00000 -0.27872
      14     O     4.18030  4.18030  0.00000 -0.36059
      15     C     3.05016  3.05016  0.00000 -0.10031
      16     H     0.45211  0.45211  0.00000  0.09579
      17     H     0.43279  0.43279  0.00000  0.13442
      18     H     0.45699  0.45699  0.00000  0.08602

   Total alpha = 36.00000, Total beta = 36.00000, Total charge =  0.00000

*** Psi4 exiting successfully. Buy a developer a beer!
