  ==> Input File <==

--------------------------------------------------------------------------
set {
	reference rhf
	basis cc-pvtz
}

set_num_threads( 4 )
memory 2 gb

molecule MOL {
0 1

H	 3.889604	 0.356866	 -0.089510
N	 3.091268	 -0.241216	 -0.065538
C	 1.860978	 0.530248	 0.016256
H	 3.192566	 -0.835836	 0.730398
C	 0.644130	 -0.381765	 -0.031064
H	 1.835721	 1.204666	 -0.833114
H	 1.808789	 1.151975	 0.911067
C	 -0.678115	 0.376691	 0.025731
H	 0.693998	 -0.977147	 -0.936845
H	 0.693309	 -1.082142	 0.800523
C	 -0.703550	 1.614709	 -0.866383
H	 -0.878420	 0.673611	 1.052703
H	 -1.490472	 -0.286683	 -0.262163
C	 -2.024718	 2.373675	 -0.801891
H	 0.107607	 2.278561	 -0.580696
H	 -0.507427	 1.320264	 -1.893811
H	 -2.232691	 2.712275	 0.207731
H	 -2.009061	 3.245571	 -1.445752
H	 -2.852584	 1.746207	 -1.115353

	symmetry c1
}
set optking {
	frozen_dihedral = ("
		12 8 5 9
	")
}

ee = optimize('scf')
oeprop('DIPOLE', 'QUADRUPOLE', 'MULLIKEN_CHARGES')
f=open( 'psi4out.xyz', 'w' )
f.write( "19  " )
f.write( str(ee) + "\n" )
f.write( MOL.save_string_xyz() )
f.close()
--------------------------------------------------------------------------

    Molecular point group: c1
  Charge       = 0
  Multiplicity = 1
  Basis Set: CC-PVTZ
  Basis Set:
  @DF-RHF Final Energy:  -251.44300372660720
    Total Energy =                       -251.4430037266074009
    Molecular point group: c1
  Basis Set: CC-PVTZ
  Basis Set:
  Basis Set: CC-PVTZ
  Basis Set:
  @DF-RHF Final Energy:  -251.44423948488566
    Total Energy =                       -251.4442394848856566
  Basis Set: CC-PVTZ
  Basis Set:
  Basis Set: CC-PVTZ
  Basis Set:
  @DF-RHF Final Energy:  -251.44509959101990
    Total Energy =                       -251.4450995910198685
  Basis Set: CC-PVTZ
  Basis Set:
  Basis Set: CC-PVTZ
  Basis Set:
  @DF-RHF Final Energy:  -251.44517473928980
    Total Energy =                       -251.4451747392897119
  Basis Set: CC-PVTZ
  Basis Set:
  Basis Set: CC-PVTZ
  Basis Set:
  @DF-RHF Final Energy:  -251.44518281194081
    Total Energy =                       -251.4451828119406400
  Basis Set: CC-PVTZ
  Basis Set:
  Charge       = 0
  Multiplicity = 1
  Basis Set: CC-PVTZ
  Basis Set:

    Orbital Energies (a.u.)
    -----------------------

    Doubly Occupied:

       1A    -15.526339     2A    -11.237673     3A    -11.212207
       4A    -11.210785     5A    -11.208106     6A    -11.205795
       7A     -1.178249     8A     -1.073325     9A     -0.997447
      10A     -0.900259    11A     -0.833317    12A     -0.772140
      13A     -0.666046    14A     -0.638611    15A     -0.614297
      16A     -0.594676    17A     -0.571436    18A     -0.550867
      19A     -0.526373    20A     -0.501239    21A     -0.490334
      22A     -0.459976    23A     -0.456515    24A     -0.448531
      25A     -0.383765

  @DF-RHF Final Energy:  -251.44518317821610

   => Energetics <=

    Nuclear Repulsion Energy =            249.6378605556299135
    One-Electron Energy =                -833.6494706178490333
    Two-Electron Energy =                 332.5664268840027944
    DFT Exchange-Correlation Energy =       0.0000000000000000
    Empirical Dispersion Energy =           0.0000000000000000
    PCM Polarization Energy =               0.0000000000000000
    EFP Energy =                            0.0000000000000000
    Total Energy =                       -251.4451831782163254
    Molecular point group: c1
  Basis Set: CC-PVTZ
  Basis Set:

  -Total Gradient:
     Atom            X                  Y                   Z
    ------   -----------------  -----------------  -----------------
       1        0.000004609766    -0.000001035752    -0.000000972996
       2        0.000011808477    -0.000011679175    -0.000023829064
       3       -0.000002138521     0.000018152235     0.000057077936
       4       -0.000006270798     0.000005339365    -0.000001344146
       5        0.001545538180     0.002933134760    -0.002196863922
       6        0.000005652396    -0.000009314500     0.000001151155
       7        0.000000001786     0.000013649448    -0.000002339346
       8        0.001990653421     0.003326269676    -0.000280518030
       9       -0.001642070430    -0.002973242515     0.001874438807
      10       -0.000011746010     0.000003890493    -0.000005954897
      11       -0.000002556411    -0.000014745319    -0.000060434350
      12       -0.001912608806    -0.003294273294     0.000618360197
      13        0.000012402494    -0.000007441017     0.000004668276
      14        0.000002758118     0.000002603083     0.000022563904
      15       -0.000003659883    -0.000002605761     0.000001616959
      16        0.000004871605     0.000008695408    -0.000017496582
      17       -0.000012375930     0.000007554342     0.000006311978
      18        0.000005842303    -0.000004379138     0.000002846035
      19        0.000009288241    -0.000000572337     0.000000718085

  **** Optimization is complete! (in 6 steps) ****
    Final optimized geometry and variables:
    Molecular point group: c1

    Geometry (in Angstrom), charge = 0, multiplicity = 1:

    H            3.559520183737    -0.545617322106     0.277713828635
    N            2.715759091154    -1.078131511966     0.275529155795
    C            1.547961119701    -0.211415047580     0.286536043537
    H            2.733806966522    -1.664174842241     1.083832018424
    C            0.273834923493    -1.038456685727     0.196751054315
    H            1.623577072000     0.448226114135    -0.569033011275
    H            1.499735108919     0.425887548445     1.171560878398
    C           -1.034752509637    -0.251085825854     0.310610630314
    H            0.282078319189    -1.621755821598    -0.718239251252
    H            0.289886736578    -1.772311519057     1.000094109911
    C           -1.157880469682     0.968892308133    -0.598846641554
    H           -1.198264813174     0.036835210551     1.346519711964
    H           -1.848437329822    -0.933840791536     0.079213826580
    C           -2.538328257253     1.614243319710    -0.531336123298
    H           -0.409631992759     1.708445729692    -0.333696394428
    H           -0.947492687439     0.674880702018    -1.623993771682
    H           -2.768803211112     1.939016939765     0.478072522319
    H           -2.599051622266     2.481375995726    -1.178996232977
    H           -3.311699217168     0.917660049739    -0.837258513679

  Mulliken Charges: (a.u.)
   Center  Symbol    Alpha    Beta     Spin     Total
       1     H     0.43003  0.43003  0.00000  0.13994
       2     N     3.69013  3.69013  0.00000 -0.38027
       3     C     3.02780  3.02780  0.00000 -0.05559
       4     H     0.43093  0.43093  0.00000  0.13813
       5     C     3.08912  3.08912  0.00000 -0.17824
       6     H     0.45386  0.45386  0.00000  0.09229
       7     H     0.46741  0.46741  0.00000  0.06518
       8     C     3.10051  3.10051  0.00000 -0.20103
       9     H     0.44758  0.44758  0.00000  0.10484
      10     H     0.45637  0.45637  0.00000  0.08726
      11     C     3.08865  3.08865  0.00000 -0.17729
      12     H     0.45385  0.45385  0.00000  0.09229
      13     H     0.45052  0.45052  0.00000  0.09896
      14     C     3.14971  3.14971  0.00000 -0.29942
      15     H     0.45296  0.45296  0.00000  0.09407
      16     H     0.45208  0.45208  0.00000  0.09583
      17     H     0.45548  0.45548  0.00000  0.08903
      18     H     0.44852  0.44852  0.00000  0.10297
      19     H     0.45448  0.45448  0.00000  0.09103

   Total alpha = 25.00000, Total beta = 25.00000, Total charge =  0.00000
