  ==> Input File <==

--------------------------------------------------------------------------
set {
	reference rhf
	basis cc-pvtz
}

set_num_threads( 4 )
memory 2 gb

molecule MOL {
0 1

H	 -3.941973	 0.934228	 -0.390224
C	 -3.240162	 0.342701	 0.161016
C	 -2.105997	 -0.000418	 -0.398703
H	 -3.485368	 0.047206	 1.162193
O	 -1.189946	 -0.765863	 0.237511
H	 -1.846458	 0.297311	 -1.398265
C	 0.026572	 -0.995256	 -0.379403
C	 1.057223	 0.049888	 -0.004615
H	 -0.054361	 -1.010670	 -1.459674
H	 0.397526	 -1.952058	 -0.044198
F	 2.217563	 -0.264521	 -0.544836
F	 0.724642	 1.246009	 -0.440723
F	 1.226423	 0.132252	 1.292707

	symmetry c1
}
set optking {
	frozen_dihedral = ("
		11 8 7 9
	")
}

ee = optimize('scf')
oeprop('DIPOLE', 'QUADRUPOLE', 'MULLIKEN_CHARGES')
f=open( 'psi4out.xyz', 'w' )
f.write( "13  " )
f.write( str(ee) + "\n" )
f.write( MOL.save_string_xyz() )
f.close()
--------------------------------------------------------------------------

    Molecular point group: c1
  Charge       = 0
  Multiplicity = 1
  Basis Set: CC-PVTZ
  Basis Set:
  @DF-RHF Final Energy:  -527.74204812131154
    Total Energy =                       -527.7420481213119956
    Molecular point group: c1
  Basis Set: CC-PVTZ
  Basis Set:
  Basis Set: CC-PVTZ
  Basis Set:
  @DF-RHF Final Energy:  -527.74205097110826
    Total Energy =                       -527.7420509711081422
  Basis Set: CC-PVTZ
  Basis Set:
  Charge       = 0
  Multiplicity = 1
  Basis Set: CC-PVTZ
  Basis Set:

    Orbital Energies (a.u.)
    -----------------------

    Doubly Occupied:

       1A    -26.341816     2A    -26.340760     3A    -26.337867
       4A    -20.604021     5A    -11.497841     6A    -11.320204
       7A    -11.298712     8A    -11.213898     9A     -1.750468
      10A     -1.647047    11A     -1.645301    12A     -1.444636
      13A     -1.088203    14A     -1.020660    15A     -0.932272
      16A     -0.843849    17A     -0.839690    18A     -0.827047
      19A     -0.798517    20A     -0.728704    21A     -0.719179
      22A     -0.703894    23A     -0.681900    24A     -0.668108
      25A     -0.661664    26A     -0.650919    27A     -0.640780
      28A     -0.588096    29A     -0.566418    30A     -0.528932
      31A     -0.518565    32A     -0.356667

  @DF-RHF Final Energy:  -527.74205185767983

   => Energetics <=

    Nuclear Repulsion Energy =            413.5269044000655754
    One-Electron Energy =               -1550.9246356060523340
    Two-Electron Energy =                 609.6556793483073307
    DFT Exchange-Correlation Energy =       0.0000000000000000
    Empirical Dispersion Energy =           0.0000000000000000
    PCM Polarization Energy =               0.0000000000000000
    EFP Energy =                            0.0000000000000000
    Total Energy =                       -527.7420518576793711
    Molecular point group: c1
  Basis Set: CC-PVTZ
  Basis Set:

  -Total Gradient:
     Atom            X                  Y                   Z
    ------   -----------------  -----------------  -----------------
       1       -0.000005825334    -0.000008770150    -0.000003489471
       2        0.000007391527    -0.000006207689     0.000001452079
       3       -0.000063489992     0.000040022294    -0.000004967604
       4       -0.000001414960    -0.000002905665    -0.000000195297
       5        0.000086052963    -0.000015821481    -0.000053958227
       6        0.000002846864    -0.000012423405    -0.000003729986
       7        0.000587295920    -0.000682848496     0.000175042894
       8       -0.000264769954     0.000483223144    -0.000551841426
       9       -0.000516238587     0.000488164845     0.000007328666
      10        0.000021266161     0.000002827710     0.000005234719
      11        0.000141339551    -0.000316308937     0.000412796985
      12        0.000031323259     0.000025479566    -0.000001577793
      13       -0.000025777425     0.000005568266     0.000017904460

  **** Optimization is complete! (in 3 steps) ****
    Final optimized geometry and variables:
    Molecular point group: c1

    Geometry (in Angstrom), charge = 0, multiplicity = 1:

    H           -3.940299291222     0.935311819043    -0.392146365665
    C           -3.239145648362     0.343697734171     0.159857322404
    C           -2.105126226824    -0.000910925028    -0.399369679459
    H           -3.484853406478     0.049199288935     1.161213244617
    O           -1.189790452138    -0.766470697748     0.237521374397
    H           -1.845348709753     0.295939875701    -1.399175218323
    C            0.027252178923    -0.996681370952    -0.378426505951
    C            1.056776198132     0.050273455153    -0.004855240801
    H           -0.056421654090    -1.009958428784    -1.458586284641
    H            0.398182545408    -1.953040981307    -0.042425216122
    F            2.216137756898    -0.260642960203    -0.549082417729
    F            0.719958416094     1.246994925765    -0.436511839887
    F            1.230155376596     0.129468181037     1.292051121094

  Mulliken Charges: (a.u.)
   Center  Symbol    Alpha    Beta     Spin     Total
       1     H     0.42514  0.42514  0.00000  0.14972
       2     C     3.19743  3.19743  0.00000 -0.39485
       3     C     2.95905  2.95905  0.00000  0.08190
       4     H     0.42471  0.42471  0.00000  0.15058
       5     O     4.14438  4.14438  0.00000 -0.28877
       6     H     0.43449  0.43449  0.00000  0.13102
       7     C     3.01884  3.01884  0.00000 -0.03767
       8     C     2.67573  2.67573  0.00000  0.64854
       9     H     0.45537  0.45537  0.00000  0.08925
      10     H     0.43502  0.43502  0.00000  0.12995
      11     F     4.61253  4.61253  0.00000 -0.22506
      12     F     4.61065  4.61065  0.00000 -0.22129
      13     F     4.60666  4.60666  0.00000 -0.21331

   Total alpha = 32.00000, Total beta = 32.00000, Total charge = -0.00000
