  ==> Input File <==

--------------------------------------------------------------------------
set {
	reference rhf
	basis 6-31G*
}

set_num_threads( 1 )
memory 2 gb

molecule MOL {
0 1

O	 -0.291628	 1.323815	 -0.000732
C	 -0.449655	 0.146360	 0.000961
C	 -1.783294	 -0.549321	 -0.000296
O	 0.550821	 -0.724572	 0.000672
H	 -1.863538	 -1.185371	 -0.874187
H	 -2.574672	 0.185258	 -0.002793
H	 -1.866414	 -1.182381	 0.875436
C	 0.752954	 -1.470201	 1.187880
H	 0.966529	 -0.812021	 2.017664
H	 1.597492	 -2.112327	 0.992492
H	 -0.121814	 -2.060951	 1.418399

	symmetry c1
}
set optking {
	frozen_dihedral = ("
		2 4 8 9
	")
}

ee = energy('scf')
oeprop('DIPOLE', 'QUADRUPOLE', 'MULLIKEN_CHARGES')
f=open( 'psi4out.xyz', 'w' )
f.write( "11  " )
f.write( str(ee) + "\n" )
f.write( MOL.save_string_xyz() )
f.close()
--------------------------------------------------------------------------

    Molecular point group: c1

    Geometry (in Angstrom), charge = 0, multiplicity = 1:

       Center              X                  Y                   Z               Mass
    ------------   -----------------  -----------------  -----------------  -----------------
           O         -0.055167003637     1.595531094935    -0.253622967867    15.994914619560
           C         -0.213194003637     0.418076094935    -0.251929967867    12.000000000000
           C         -1.546833003637    -0.277604905065    -0.253186967867    12.000000000000
           O          0.787281996363    -0.452855905065    -0.252218967867    15.994914619560
           H         -1.627077003637    -0.913654905065    -1.127077967867     1.007825032070
           H         -2.338211003637     0.456974094935    -0.255683967867     1.007825032070
           H         -1.629953003637    -0.910664905065     0.622545032133     1.007825032070
           C          0.989414996363    -1.198484905065     0.934989032133    12.000000000000
           H          1.202989996363    -0.540304905065     1.764773032133     1.007825032070
           H          1.833952996363    -1.840610905065     0.739601032133     1.007825032070
           H          0.114646996363    -1.789234905065     1.165508032133     1.007825032070

  Charge       = 0
  Multiplicity = 1
  Basis Set: 6-31G*
  Basis Set:

    Orbital Energies (a.u.)
    -----------------------

    Doubly Occupied:

       1A    -20.592361     2A    -20.555677     3A    -11.378202
       4A    -11.298970     5A    -11.237015     6A     -1.466473
       7A     -1.370716     8A     -1.025254     9A     -0.977595
      10A     -0.783450    11A     -0.694671    12A     -0.688755
      13A     -0.675666    14A     -0.620142    15A     -0.586995
      16A     -0.576607    17A     -0.549901    18A     -0.490407
      19A     -0.463996    20A     -0.440429

  @DF-RHF Final Energy:  -266.81236690024002

   => Energetics <=

    Nuclear Repulsion Energy =            183.6790757619426984
    One-Electron Energy =                -728.0362918678483766
    Two-Electron Energy =                 277.5448492056652299
    DFT Exchange-Correlation Energy =       0.0000000000000000
    Empirical Dispersion Energy =           0.0000000000000000
    PCM Polarization Energy =               0.0000000000000000
    EFP Energy =                            0.0000000000000000
    Total Energy =                       -266.8123669002404199

  Mulliken Charges: (a.u.)
   Center  Symbol    Alpha    Beta     Spin     Total
       1     O     4.25349  4.25349  0.00000 -0.50698
       2     C     2.62978  2.62978  0.00000  0.74045
       3     C     3.29315  3.29315  0.00000 -0.58630
       4     O     4.29951  4.29951  0.00000 -0.59902
       5     H     0.39783  0.39783  0.00000  0.20435
       6     H     0.39584  0.39584  0.00000  0.20832
       7     H     0.40759  0.40759  0.00000  0.18483
       8     C     3.09514  3.09514  0.00000 -0.19028
       9     H     0.40916  0.40916  0.00000  0.18168
      10     H     0.39874  0.39874  0.00000  0.20252
      11     H     0.41978  0.41978  0.00000  0.16044

   Total alpha = 20.00000, Total beta = 20.00000, Total charge =  0.00000
