  ==> Input File <==

--------------------------------------------------------------------------
set {
	reference rhf
	basis cc-pvtz
}

set_num_threads( 4 )
memory 2 gb

molecule MOL {
0 1

H	 -0.935805	 -1.259705	 0.098705
N	 -1.173824	 -0.310545	 -0.096857
C	 -0.022588	 0.563366	 0.065815
H	 -1.514814	 -0.279173	 -1.035129
C	 1.270420	 -0.230572	 -0.014245
H	 -0.045354	 1.293678	 -0.735129
H	 -0.043155	 1.123061	 1.001180
H	 1.336273	 -0.754933	 -0.959364
H	 2.130728	 0.422015	 0.082222
H	 1.323344	 -0.967006	 0.781773

	symmetry c1
}
set optking {
	frozen_dihedral = ("
		1 2 3 6
	")
}

ee = optimize('scf')
oeprop('DIPOLE', 'QUADRUPOLE', 'MULLIKEN_CHARGES')
f=open( 'psi4out.xyz', 'w' )
f.write( "10  " )
f.write( str(ee) + "\n" )
f.write( MOL.save_string_xyz() )
f.close()
--------------------------------------------------------------------------

    Molecular point group: c1
  Charge       = 0
  Multiplicity = 1
  Basis Set: CC-PVTZ
  Basis Set:
  @DF-RHF Final Energy:  -134.30055596583441
    Total Energy =                       -134.3005559658342634
    Molecular point group: c1
  Basis Set: CC-PVTZ
  Basis Set:
  Basis Set: CC-PVTZ
  Basis Set:
  @DF-RHF Final Energy:  -134.30155377814563
    Total Energy =                       -134.3015537781456032
  Basis Set: CC-PVTZ
  Basis Set:
  Basis Set: CC-PVTZ
  Basis Set:
  @DF-RHF Final Energy:  -134.30170382358779
    Total Energy =                       -134.3017038235878147
  Basis Set: CC-PVTZ
  Basis Set:
  Basis Set: CC-PVTZ
  Basis Set:
  @DF-RHF Final Energy:  -134.30170545398568
    Total Energy =                       -134.3017054539856190
  Basis Set: CC-PVTZ
  Basis Set:
  Charge       = 0
  Multiplicity = 1
  Basis Set: CC-PVTZ
  Basis Set:

    Orbital Energies (a.u.)
    -----------------------

    Doubly Occupied:

       1A    -15.525668     2A    -11.241373     3A    -11.210362
       4A     -1.176615     5A     -0.989861     6A     -0.831878
       7A     -0.669472     8A     -0.603621     9A     -0.592304
      10A     -0.542641    11A     -0.506990    12A     -0.486774
      13A     -0.382570

  @DF-RHF Final Energy:  -134.30170564997616

   => Energetics <=

    Nuclear Repulsion Energy =             83.3332089405847114
    One-Electron Energy =                -345.7495728756127846
    Two-Electron Energy =                 128.1146582850519167
    DFT Exchange-Correlation Energy =       0.0000000000000000
    Empirical Dispersion Energy =           0.0000000000000000
    PCM Polarization Energy =               0.0000000000000000
    EFP Energy =                            0.0000000000000000
    Total Energy =                       -134.3017056499761566
    Molecular point group: c1
  Basis Set: CC-PVTZ
  Basis Set:

  -Total Gradient:
     Atom            X                  Y                   Z
    ------   -----------------  -----------------  -----------------
       1        0.000561517422    -0.000398265807    -0.002624926145
       2       -0.000362496455     0.000139781039     0.002939009645
       3       -0.001449448699     0.001787412964     0.001110048094
       4        0.000006089601     0.000013076885     0.000010471370
       5       -0.000027035434    -0.000003913021     0.000013841130
       6        0.001257043228    -0.001546338473    -0.001457384251
       7        0.000009249346    -0.000008695706     0.000006760291
       8       -0.000006943928     0.000006197129     0.000014301663
       9        0.000010706620     0.000013285319    -0.000000507545
      10        0.000001318297    -0.000002540329    -0.000011614252

  **** Optimization is complete! (in 5 steps) ****
    Final optimized geometry and variables:
    Molecular point group: c1

    Geometry (in Angstrom), charge = 0, multiplicity = 1:

    H           -1.010742488710    -1.236191612331     0.143583707617
    N           -1.221262819667    -0.279615096836    -0.047003092133
    C           -0.033755823934     0.560242343208     0.079957885134
    H           -1.582287158185    -0.249982612496    -0.975678428024
    C            1.280335825662    -0.208752367832     0.018277300003
    H           -0.043066128021     1.295428370035    -0.716564835592
    H           -0.082321245583     1.107031980519     1.015385524558
    H            1.388201316783    -0.720426352570    -0.932401057210
    H            2.127257055384     0.457319390768     0.142105462068
    H            1.328797513382    -0.953239989015     0.806977532239

  Mulliken Charges: (a.u.)
   Center  Symbol    Alpha    Beta     Spin     Total
       1     H     0.42982  0.42982  0.00000  0.14037
       2     N     3.69108  3.69108  0.00000 -0.38216
       3     C     3.01755  3.01755  0.00000 -0.03510
       4     H     0.42885  0.42885  0.00000  0.14229
       5     C     3.14311  3.14311  0.00000 -0.28623
       6     H     0.46029  0.46029  0.00000  0.07941
       7     H     0.46031  0.46031  0.00000  0.07938
       8     H     0.45764  0.45764  0.00000  0.08472
       9     H     0.45451  0.45451  0.00000  0.09099
      10     H     0.45684  0.45684  0.00000  0.08631

   Total alpha = 13.00000, Total beta = 13.00000, Total charge = -0.00000
