  ==> Input File <==

--------------------------------------------------------------------------
set {
	reference rhf
	basis 6-31G*
}

set_num_threads( 4 )
memory 2 gb

molecule MOL {
0 1

O	 3.225979	 0.970355	 -0.599647
C	 2.701189	 0.057885	 -0.047330
C	 1.245376	 -0.013843	 0.345420
O	 3.347903	 -1.046386	 0.304773
C	 0.455112	 1.231400	 -0.050772
H	 0.838542	 -0.913825	 -0.103701
H	 1.208210	 -0.175333	 1.419774
C	 -0.998893	 1.219485	 0.433193
H	 0.482531	 1.345121	 -1.130325
H	 0.957290	 2.103070	 0.354729
C	 -1.883438	 0.145884	 -0.207175
H	 -1.431207	 2.195402	 0.224832
H	 -1.019646	 1.105716	 1.516076
C	 -3.347647	 0.245583	 0.225435
H	 -1.822183	 0.231698	 -1.291012
H	 -1.510341	 -0.844814	 0.042401
C	 -4.314057	 0.434342	 -0.945272
H	 -3.461437	 1.074884	 0.921528
H	 -3.622512	 -0.652906	 0.775769
C	 -5.773796	 0.536830	 -0.504411
H	 -4.040210	 1.331208	 -1.496890
H	 -4.204887	 -0.395869	 -1.639974
H	 -6.433892	 0.669998	 -1.355966
H	 -5.922999	 1.379675	 0.164578
H	 -6.088656	 -0.360486	 0.020909
C	 4.728119	 -1.109107	 -0.004993
H	 4.882018	 -1.033965	 -1.071845
H	 5.068212	 -2.067527	 0.355250
H	 5.265056	 -0.311663	 0.488280

	symmetry c1
}
set optking {
	frozen_dihedral = ("
		17 14 11 15
	")
}

ee = optimize('scf')
oeprop('DIPOLE', 'QUADRUPOLE', 'MULLIKEN_CHARGES')
f=open( 'psi4out.xyz', 'w' )
f.write( "29  " )
f.write( str(ee) + "\n" )
f.write( MOL.save_string_xyz() )
f.close()
--------------------------------------------------------------------------

    Molecular point group: c1
  Charge       = 0
  Multiplicity = 1
  Basis Set: 6-31G*
  Basis Set:
  @DF-RHF Final Energy:  -501.03846703584588
    Total Energy =                       -501.0384670358469066
    Molecular point group: c1
  Basis Set: 6-31G*
  Basis Set:
  Basis Set: 6-31G*
  Basis Set:
  @DF-RHF Final Energy:  -501.03868239707481
    Total Energy =                       -501.0386823970743535
  Basis Set: 6-31G*
  Basis Set:
  Basis Set: 6-31G*
  Basis Set:
  @DF-RHF Final Energy:  -501.03874464062505
    Total Energy =                       -501.0387446406257368
  Basis Set: 6-31G*
  Basis Set:
  Basis Set: 6-31G*
  Basis Set:
  @DF-RHF Final Energy:  -501.03870326833828
    Total Energy =                       -501.0387032683381676
  Basis Set: 6-31G*
  Basis Set:
  Basis Set: 6-31G*
  Basis Set:
  @DF-RHF Final Energy:  -501.03875614928052
    Total Energy =                       -501.0387561492799477
  Basis Set: 6-31G*
  Basis Set:
  Basis Set: 6-31G*
  Basis Set:
  @DF-RHF Final Energy:  -501.03872296259567
    Total Energy =                       -501.0387229625960117
  Basis Set: 6-31G*
  Basis Set:
  Basis Set: 6-31G*
  Basis Set:
  @DF-RHF Final Energy:  -501.03875862927475
    Total Energy =                       -501.0387586292749802
  Basis Set: 6-31G*
  Basis Set:
  Charge       = 0
  Multiplicity = 1
  Basis Set: 6-31G*
  Basis Set:

    Orbital Energies (a.u.)
    -----------------------

    Doubly Occupied:

       1A    -20.603375     2A    -20.545197     3A    -11.372012
       4A    -11.280666     5A    -11.234789     6A    -11.218923
       7A    -11.217984     8A    -11.215958     9A    -11.215592
      10A    -11.214078    11A    -11.208637    12A     -1.469071
      13A     -1.362515    14A     -1.096883    15A     -1.065731
      16A     -1.018904    17A     -0.976302    18A     -0.928010
      19A     -0.862298    20A     -0.802447    21A     -0.788816
      22A     -0.763984    23A     -0.701041    24A     -0.682269
      25A     -0.671864    26A     -0.642092    27A     -0.626725
      28A     -0.609878    29A     -0.597144    30A     -0.579449
      31A     -0.562283    32A     -0.555087    33A     -0.532875
      34A     -0.529480    35A     -0.520734    36A     -0.506312
      37A     -0.496715    38A     -0.476561    39A     -0.473257
      40A     -0.462230    41A     -0.455936    42A     -0.449530
      43A     -0.441758    44A     -0.435836

  @DF-RHF Final Energy:  -501.03875821736995

   => Energetics <=

    Nuclear Repulsion Energy =            610.0280422410004348
    One-Electron Energy =               -1891.1911396004011294
    Two-Electron Energy =                 780.1243391420298394
    DFT Exchange-Correlation Energy =       0.0000000000000000
    Empirical Dispersion Energy =           0.0000000000000000
    PCM Polarization Energy =               0.0000000000000000
    EFP Energy =                            0.0000000000000000
    Total Energy =                       -501.0387582173707415
    Molecular point group: c1
  Basis Set: 6-31G*
  Basis Set:

  -Total Gradient:
     Atom            X                  Y                   Z
    ------   -----------------  -----------------  -----------------
       1       -0.000006311975    -0.000006079097    -0.000018009077
       2        0.000012756189     0.000024011317     0.000044119505
       3       -0.000011761178    -0.000006927405    -0.000008177162
       4       -0.000005515451    -0.000008121875    -0.000011112388
       5       -0.000000675942     0.000008374377    -0.000013277315
       6       -0.000005624390    -0.000003582331     0.000000839495
       7        0.000005872379    -0.000001490516    -0.000002696242
       8       -0.000012812783    -0.000012992023    -0.000009570466
       9        0.000001709476     0.000005857340    -0.000000906974
      10        0.000003943030    -0.000001357378     0.000001586770
      11        0.000072780600     0.000699119277     0.000073419033
      12       -0.000005940683    -0.000005557556     0.000000642979
      13       -0.000000245286    -0.000008308432    -0.000003248443
      14       -0.000055189450    -0.000573642838    -0.000069323566
      15       -0.000029002030    -0.000487699947    -0.000037968541
      16        0.000015479026    -0.000004983502     0.000005183436
      17        0.000036437536     0.000391552607     0.000055639942
      18        0.000001812186     0.000010068132    -0.000014102234
      19       -0.000009200574     0.000004814676     0.000008262976
      20       -0.000008317199    -0.000034222063    -0.000010883219
      21       -0.000013908693     0.000010120907     0.000020324114
      22        0.000018225414     0.000010490765    -0.000007719150
      23       -0.000007829549    -0.000009177925     0.000000026116
      24        0.000009102950    -0.000000469986    -0.000008744312
      25       -0.000005419229     0.000000304908     0.000006370598
      26        0.000000443719     0.000000490247    -0.000000341515
      27        0.000000419768    -0.000000140651    -0.000000013622
      28       -0.000000677765    -0.000000265726    -0.000000157754
      29       -0.000000550103    -0.000000185301    -0.000000162984

  **** Optimization is complete! (in 8 steps) ****
    Final optimized geometry and variables:
    Molecular point group: c1

    Geometry (in Angstrom), charge = 0, multiplicity = 1:

    O            3.248566229286     0.736156485095    -0.499158715229
    C            2.721435865013    -0.174531805684     0.053860423715
    C            1.264444666689    -0.244161336516     0.442632130827
    O            3.366131579405    -1.278610583634     0.410254727376
    C            0.476195860916     1.000539852018     0.040323972866
    H            0.858602249359    -1.145477193497    -0.004607960774
    H            1.224226126208    -0.402095121431     1.517397571380
    C           -0.978237666073     0.992788531927     0.521595628308
    H            0.505817309616     1.110426128767    -1.039655406460
    H            0.978975716087     1.872936825277     0.443587758381
    C           -1.867092270629    -0.076316971892    -0.122061047460
    H           -1.408851697673     1.969718328441     0.313188344981
    H           -1.002811367963     0.877917348457     1.604346294453
    C           -3.345615818467     0.013398479350     0.319281690361
    H           -1.801955430219     0.020129422939    -1.203908992783
    H           -1.480308599027    -1.064319374206     0.109332128263
    C           -4.320943505712     0.210038146545    -0.843967679470
    H           -3.469179280250     0.837539336815     1.018666229661
    H           -3.625674267245    -0.882950295755     0.866801245427
    C           -5.778324784734     0.298784822993    -0.394425377367
    H           -4.052848465654     1.115054373231    -1.385483779782
    H           -4.209192902361    -0.610800415772    -1.549312692958
    H           -6.443870487069     0.437900422918    -1.240800426346
    H           -5.928945627333     1.132853401819     0.285316568532
    H           -6.085102232505    -0.606469341163     0.122134555564
    C            4.747169870723    -1.343289238049     0.104574641539
    H            4.904187213941    -1.270686090180    -0.962003218992
    H            5.085323531129    -2.301207456311     0.467946084063
    H            5.283424117417    -0.545235556842     0.597603507255

  Mulliken Charges: (a.u.)
   Center  Symbol    Alpha    Beta     Spin     Total
       1     O     4.28595  4.28595  0.00000 -0.57189
       2     C     2.60482  2.60482  0.00000  0.79036
       3     C     3.20962  3.20962  0.00000 -0.41924
       4     O     4.30745  4.30745  0.00000 -0.61489
       5     C     3.15456  3.15456  0.00000 -0.30912
       6     H     0.39899  0.39899  0.00000  0.20201
       7     H     0.40117  0.40117  0.00000  0.19766
       8     C     3.15860  3.15860  0.00000 -0.31720
       9     H     0.41305  0.41305  0.00000  0.17390
      10     H     0.40869  0.40869  0.00000  0.18262
      11     C     3.15818  3.15818  0.00000 -0.31636
      12     H     0.41827  0.41827  0.00000  0.16347
      13     H     0.42332  0.42332  0.00000  0.15337
      14     C     3.15397  3.15397  0.00000 -0.30794
      15     H     0.41989  0.41989  0.00000  0.16022
      16     H     0.42099  0.42099  0.00000  0.15803
      17     C     3.15312  3.15312  0.00000 -0.30624
      18     H     0.42095  0.42095  0.00000  0.15810
      19     H     0.42126  0.42126  0.00000  0.15747
      20     C     3.24017  3.24017  0.00000 -0.48035
      21     H     0.42272  0.42272  0.00000  0.15457
      22     H     0.42259  0.42259  0.00000  0.15483
      23     H     0.41909  0.41909  0.00000  0.16183
      24     H     0.42163  0.42163  0.00000  0.15674
      25     H     0.42183  0.42183  0.00000  0.15633
      26     C     3.09240  3.09240  0.00000 -0.18480
      27     H     0.40908  0.40908  0.00000  0.18183
      28     H     0.40852  0.40852  0.00000  0.18297
      29     H     0.40913  0.40913  0.00000  0.18175

   Total alpha = 44.00000, Total beta = 44.00000, Total charge = -0.00000
