                              Psi4 1.0.54 Driver

  ==> Input File <==

--------------------------------------------------------------------------
set {
	reference rhf
	basis cc-pvtz
}

set_num_threads( 4 )
memory 2 gb

molecule MOL {
0 1

O	 0.749630	 1.305591	 -0.000460
C	 0.576499	 0.134701	 -0.003900
C	 -0.765656	 -0.550508	 -0.002152
O	 1.564816	 -0.744612	 -0.000631
C	 -1.945526	 0.411052	 0.000603
H	 -0.794329	 -1.203792	 -0.868145
H	 -0.791555	 -1.205429	 0.862701
C	 -3.282915	 -0.321280	 0.002596
H	 -1.880300	 1.059126	 -0.864925
H	 -1.877207	 1.057892	 0.866807
H	 -3.388495	 -0.952755	 -0.873419
H	 -4.107811	 0.380864	 0.004116
H	 -3.385717	 -0.953283	 0.878571
C	 2.872781	 -0.251586	 -0.210779
H	 2.947892	 0.231038	 -1.173841
H	 3.523423	 -1.110015	 -0.172655
H	 3.142087	 0.455210	 0.559906

	symmetry c1
}
set optking {
	frozen_dihedral = ("
		14 4 2 1
	")
}

ee,wfn = optimize('scf', return_wfn=True)
oeprop( wfn, 'DIPOLE', 'QUADRUPOLE', 'MULLIKEN_CHARGES')
f=open( 'psi4out.xyz', 'w' )
f.write( "17  " )
f.write( str(ee) + "\n" )
f.write( MOL.save_string_xyz() )
f.close()
--------------------------------------------------------------------------

    Molecular point group: c1
  Charge       = 0
  Multiplicity = 1
  Basis Set: CC-PVTZ
  Basis Set:
  @DF-RHF Final Energy:  -345.03481531611095
    Total Energy =                       -345.0348153161107803
    Molecular point group: c1
  Basis Set: CC-PVTZ
  Basis Set:
  Basis Set: CC-PVTZ
  Basis Set:
  @DF-RHF Final Energy:  -345.03403069623607
    Total Energy =                       -345.0340306962364139
  Basis Set: CC-PVTZ
  Basis Set:
  Basis Set: CC-PVTZ
  Basis Set:
  @DF-RHF Final Energy:  -345.03486781913267
    Total Energy =                       -345.0348678191328418
  Basis Set: CC-PVTZ
  Basis Set:
  Basis Set: CC-PVTZ
  Basis Set:
  @DF-RHF Final Energy:  -345.03487389121085
    Total Energy =                       -345.0348738912111344
  Basis Set: CC-PVTZ
  Basis Set:
  Basis Set: CC-PVTZ
  Basis Set:
  @DF-RHF Final Energy:  -345.03487725670317
    Total Energy =                       -345.0348772567028277
  Basis Set: CC-PVTZ
  Basis Set:
  Basis Set: CC-PVTZ
  Basis Set:
  @DF-RHF Final Energy:  -345.03487901638897
    Total Energy =                       -345.0348790163891977
  Basis Set: CC-PVTZ
  Basis Set:
  Charge       = 0
  Multiplicity = 1
  Basis Set: CC-PVTZ
  Basis Set:

    Orbital Energies (a.u.)
    -----------------------

    Doubly Occupied:

       1A    -20.596204     2A    -20.534766     3A    -11.365065
       4A    -11.278994     5A    -11.234422     6A    -11.220159
       7A    -11.212786     8A     -1.472265     9A     -1.366282
      10A     -1.081793    11A     -1.002395    12A     -0.940550
      13A     -0.828042    14A     -0.769303    15A     -0.702590
      16A     -0.686387    17A     -0.676331    18A     -0.637702
      19A     -0.597382    20A     -0.575882    21A     -0.569366
      22A     -0.528889    23A     -0.523631    24A     -0.500392
      25A     -0.487834    26A     -0.479689    27A     -0.459953
      28A     -0.441347

  @DF-RHF Final Energy:  -345.03487924460791

   => Energetics <=

    Nuclear Repulsion Energy =            312.9886633421630791
    One-Electron Energy =               -1090.5062875455951144
    Two-Electron Energy =                 432.4827449588242985
    DFT Exchange-Correlation Energy =       0.0000000000000000
    Empirical Dispersion Energy =           0.0000000000000000
    PCM Polarization Energy =               0.0000000000000000
    EFP Energy =                            0.0000000000000000
    Total Energy =                       -345.0348792446076800
    Molecular point group: c1
  Basis Set: CC-PVTZ
  Basis Set:

  -Total Gradient:
     Atom            X                  Y                   Z
    ------   -----------------  -----------------  -----------------
       1       -0.000090584760     0.000179626719     0.003325889328
       2        0.000007853690    -0.000481704477    -0.006268945220
       3        0.000019947512    -0.000004022633     0.000063555393
       4        0.000262427701     0.000806213206     0.005440189814
       5        0.000008752052     0.000008014776    -0.000006201182
       6        0.000006168714    -0.000002366199     0.000003886372
       7       -0.000001344977    -0.000018345327    -0.000002821757
       8        0.000001763332    -0.000010272834     0.000000710694
       9        0.000001688785     0.000005367796     0.000006012719
      10        0.000001309290     0.000006583936    -0.000003109335
      11        0.000001145275    -0.000005213054     0.000004662070
      12        0.000010519231     0.000007255653    -0.000000662864
      13       -0.000000355514    -0.000005627368    -0.000004675246
      14       -0.000265876662    -0.000509162629    -0.002634687539
      15        0.000034569457     0.000012191255     0.000038811773
      16        0.000009381809    -0.000005462359     0.000019348038
      17       -0.000007364933     0.000016923542     0.000018036942

  **** Optimization is complete! (in 7 steps) ****
    Final optimized geometry and variables:
    Molecular point group: c1

    Geometry (in Angstrom), charge = 0, multiplicity = 1:

    O            0.753530223970     1.305567284249    -0.051131983663
    C            0.577415230361     0.136477051323     0.002341437170
    C           -0.766053843765    -0.546042656724     0.010443064024
    O            1.563931912950    -0.741580752762     0.090359343939
    C           -1.944120149083     0.417531832937     0.026877674354
    H           -0.800987330180    -1.190538583718    -0.862562410666
    H           -0.787520021137    -1.209912067453     0.868118778059
    C           -3.282881682203    -0.312238292752     0.028034668077
    H           -1.881165405534     1.073680330182    -0.832546883232
    H           -1.871214227797     1.056194330136     0.899143086810
    H           -3.393781925104    -0.934736482831    -0.853813921433
    H           -4.106388318417     0.391485558495     0.040411966210
    H           -3.382855590753    -0.952900761657     0.898059017133
    C            2.879557313060    -0.260521564943    -0.096973695730
    H            2.975458280089     0.216396539851    -1.061431016249
    H            3.522905042846    -1.123732875802    -0.043492480851
    H            3.142451018155     0.448089479111     0.674141652466

  Mulliken Charges: (a.u.)
   Center  Symbol    Alpha    Beta     Spin     Total
       1     O     4.19599  4.19599  0.00000 -0.39199
       2     C     2.80657  2.80657  0.00000  0.38686
       3     C     3.09576  3.09576  0.00000 -0.19152
       4     O     4.14736  4.14736  0.00000 -0.29471
       5     C     3.07871  3.07871  0.00000 -0.15742
       6     H     0.44230  0.44230  0.00000  0.11540
       7     H     0.43991  0.43991  0.00000  0.12017
       8     C     3.15127  3.15127  0.00000 -0.30254
       9     H     0.44612  0.44612  0.00000  0.10776
      10     H     0.44736  0.44736  0.00000  0.10528
      11     H     0.45588  0.45588  0.00000  0.08823
      12     H     0.44558  0.44558  0.00000  0.10884
      13     H     0.45579  0.45579  0.00000  0.08843
      14     C     3.03732  3.03732  0.00000 -0.07463
      15     H     0.45631  0.45631  0.00000  0.08737
      16     H     0.44527  0.44527  0.00000  0.10945
      17     H     0.45249  0.45249  0.00000  0.09502

   Total alpha = 28.00000, Total beta = 28.00000, Total charge = -0.00000

*** Psi4 exiting successfully. Buy a developer a beer!
