                              Psi4 1.0.54 Driver

  ==> Input File <==

--------------------------------------------------------------------------
set {
	reference rhf
	basis cc-pvtz
}

set_num_threads( 4 )
memory 2 gb

molecule MOL {
0 1

O	 1.528347	 0.915774	 -0.858006
C	 1.704209	 0.119472	 -0.000093
C	 0.832990	 -0.064256	 1.215992
O	 2.715427	 -0.733672	 0.000025
C	 -0.350266	 0.891242	 1.273014
H	 0.503876	 -1.098230	 1.221514
H	 1.470438	 0.047043	 2.087034
C	 -1.209534	 0.677681	 2.515620
H	 -0.954263	 0.765592	 0.381570
H	 0.013424	 1.912216	 1.247833
C	 -2.401393	 1.627579	 2.590677
H	 -1.569009	 -0.348774	 2.536096
H	 -0.597095	 0.801970	 3.405962
C	 -3.260496	 1.413857	 3.832320
H	 -3.014309	 1.503609	 1.702352
H	 -2.043432	 2.653090	 2.571942
H	 -3.662012	 0.406322	 3.862193
H	 -4.096635	 2.103148	 3.854296
H	 -2.683565	 1.565279	 4.738662
C	 4.020999	 -0.192556	 0.000019
H	 4.182809	 0.412891	 -0.879449
H	 4.692590	 -1.035653	 0.000152
H	 4.182726	 0.413087	 0.879368

	symmetry c1
}
set optking {
	frozen_dihedral = ("
		1 2 4 20
	")
}

ee,wfn = optimize('scf', return_wfn=True)
oeprop( wfn, 'DIPOLE', 'QUADRUPOLE', 'MULLIKEN_CHARGES')
f=open( 'psi4out.xyz', 'w' )
f.write( "23  " )
f.write( str(ee) + "\n" )
f.write( MOL.save_string_xyz() )
f.close()
--------------------------------------------------------------------------

    Molecular point group: c1
  Charge       = 0
  Multiplicity = 1
  Basis Set: CC-PVTZ
  Basis Set:
  @DF-RHF Final Energy:  -423.11655494789602
    Total Energy =                       -423.1165549478961339
    Molecular point group: c1
  Basis Set: CC-PVTZ
  Basis Set:
  Basis Set: CC-PVTZ
  Basis Set:
  @DF-RHF Final Energy:  -423.11225971355486
    Total Energy =                       -423.1122597135546357
  Basis Set: CC-PVTZ
  Basis Set:
  Basis Set: CC-PVTZ
  Basis Set:
  @DF-RHF Final Energy:  -423.11733364822175
    Total Energy =                       -423.1173336482221430
  Basis Set: CC-PVTZ
  Basis Set:
  Basis Set: CC-PVTZ
  Basis Set:
  @DF-RHF Final Energy:  -423.11741715213697
    Total Energy =                       -423.1174171521365679
  Basis Set: CC-PVTZ
  Basis Set:
  Basis Set: CC-PVTZ
  Basis Set:
  @DF-RHF Final Energy:  -423.11756933145011
    Total Energy =                       -423.1175693314499995
  Basis Set: CC-PVTZ
  Basis Set:
  Basis Set: CC-PVTZ
  Basis Set:
  @DF-RHF Final Energy:  -423.11757396355370
    Total Energy =                       -423.1175739635536956
  Basis Set: CC-PVTZ
  Basis Set:
  Charge       = 0
  Multiplicity = 1
  Basis Set: CC-PVTZ
  Basis Set:

    Orbital Energies (a.u.)
    -----------------------

    Doubly Occupied:

       1A    -20.582053     2A    -20.542272     3A    -11.366965
       4A    -11.284320     5A    -11.235916     6A    -11.218616
       7A    -11.217142     8A    -11.215522     9A    -11.208591
      10A     -1.463603    11A     -1.368014    12A     -1.095414
      13A     -1.043702    14A     -0.983757    15A     -0.937621
      16A     -0.848097    17A     -0.796773    18A     -0.766410
      19A     -0.698322    20A     -0.680939    21A     -0.675960
      22A     -0.650869    23A     -0.613837    24A     -0.606658
      25A     -0.578006    26A     -0.568764    27A     -0.554486
      28A     -0.532187    29A     -0.510747    30A     -0.508419
      31A     -0.486515    32A     -0.474405    33A     -0.469666
      34A     -0.467071    35A     -0.454252    36A     -0.434314

  @DF-RHF Final Energy:  -423.11757436811547

   => Energetics <=

    Nuclear Repulsion Energy =            452.5050910288466639
    One-Electron Energy =               -1472.9649239593863967
    Two-Electron Energy =                 597.3422585624239218
    DFT Exchange-Correlation Energy =       0.0000000000000000
    Empirical Dispersion Energy =           0.0000000000000000
    PCM Polarization Energy =               0.0000000000000000
    EFP Energy =                            0.0000000000000000
    Total Energy =                       -423.1175743681158110
    Molecular point group: c1
  Basis Set: CC-PVTZ
  Basis Set:

  -Total Gradient:
     Atom            X                  Y                   Z
    ------   -----------------  -----------------  -----------------
       1       -0.005399027623    -0.005403880219    -0.003710827331
       2        0.008191126202     0.007976283132     0.008665752957
       3        0.000014791400     0.000037806010     0.000008231669
       4       -0.003347490899    -0.002679647309    -0.011624675009
       5       -0.000011264637    -0.000016450709     0.000001811002
       6       -0.000023290946     0.000008696570    -0.000021494148
       7        0.000003345732    -0.000001513608    -0.000000798128
       8       -0.000005685333    -0.000004293033     0.000005877569
       9        0.000000173914    -0.000002885271    -0.000001739107
      10        0.000003955114     0.000002101857     0.000000582567
      11        0.000002458330     0.000005509398    -0.000006158950
      12       -0.000001361736    -0.000002020044    -0.000003336655
      13        0.000000845107    -0.000000417659    -0.000000431654
      14        0.000011514356    -0.000004371743    -0.000000604829
      15        0.000000803697    -0.000002709315     0.000000740134
      16       -0.000000419632     0.000003088658    -0.000000769823
      17       -0.000000515173     0.000000004670    -0.000000717721
      18        0.000007245126    -0.000000825404    -0.000005034647
      19       -0.000001011017     0.000000402035     0.000001239741
      20        0.000583058936     0.000112620748     0.006685296688
      21       -0.000007391600    -0.000021568411     0.000014268396
      22       -0.000023878646     0.000008656300     0.000003305936
      23        0.000002019330    -0.000014586650    -0.000010518655

  **** Optimization is complete! (in 7 steps) ****
    Final optimized geometry and variables:
    Molecular point group: c1

    Geometry (in Angstrom), charge = 0, multiplicity = 1:

    O            1.078403514840     0.439856808124    -2.003519151863
    C            1.275077694347    -0.346038848140    -1.147489133932
    C            0.422857239675    -0.526874453651     0.079895371630
    O            2.255059465721    -1.262027844100    -1.220562380799
    C           -0.787253905945     0.393181650250     0.141837975318
    H            0.130604570058    -1.571591936608     0.108316676223
    H            1.071471261842    -0.383659809937     0.940125425445
    C           -1.621467447689     0.174641749725     1.400578049450
    H           -1.400106483380     0.234064604966    -0.738316876392
    H           -0.455355084747     1.424235164348     0.094219030256
    C           -2.840175768519     1.089532139403     1.478300060582
    H           -1.949311528347    -0.861605326076     1.442889293604
    H           -1.000136941830     0.332066109081     2.279554215600
    C           -3.673492719132     0.871413110745     2.736590674387
    H           -3.462325372077     0.931825843774     0.601871817380
    H           -2.513764880003     2.124874066193     1.436814718208
    H           -4.043962914539    -0.146994929960     2.789385087231
    H           -4.529564261607     1.535693357225     2.760086660363
    H           -3.087795967576     1.055488542920     3.631215112004
    C            3.577742688681    -0.782197371360    -1.337568641621
    H            3.678805723796    -0.130364425072    -2.193206718590
    H            4.210631719918    -1.646028388896    -1.460238654475
    H            3.867111267900    -0.252047756135    -0.437610772867

  Mulliken Charges: (a.u.)
   Center  Symbol    Alpha    Beta     Spin     Total
       1     O     4.17865  4.17865  0.00000 -0.35730
       2     C     2.79411  2.79411  0.00000  0.41178
       3     C     3.10874  3.10874  0.00000 -0.21747
       4     O     4.16517  4.16517  0.00000 -0.33035
       5     C     3.08506  3.08506  0.00000 -0.17012
       6     H     0.43686  0.43686  0.00000  0.12628
       7     H     0.44459  0.44459  0.00000  0.11083
       8     C     3.08886  3.08886  0.00000 -0.17773
       9     H     0.44541  0.44541  0.00000  0.10918
      10     H     0.44654  0.44654  0.00000  0.10692
      11     C     3.08410  3.08410  0.00000 -0.16820
      12     H     0.45515  0.45515  0.00000  0.08971
      13     H     0.45611  0.45611  0.00000  0.08778
      14     C     3.15035  3.15035  0.00000 -0.30071
      15     H     0.45292  0.45292  0.00000  0.09416
      16     H     0.45335  0.45335  0.00000  0.09331
      17     H     0.45512  0.45512  0.00000  0.08977
      18     H     0.44758  0.44758  0.00000  0.10483
      19     H     0.45547  0.45547  0.00000  0.08905
      20     C     3.03649  3.03649  0.00000 -0.07298
      21     H     0.44787  0.44787  0.00000  0.10426
      22     H     0.44536  0.44536  0.00000  0.10928
      23     H     0.46615  0.46615  0.00000  0.06771

   Total alpha = 36.00000, Total beta = 36.00000, Total charge = -0.00000

*** Psi4 exiting successfully. Buy a developer a beer!
