  ==> Input File <==

--------------------------------------------------------------------------
set {
	reference rhf
	basis 6-31G*
}

set_num_threads( 4 )
memory 2 gb

molecule MOL {
0 1

H	 2.591676	 2.013956	 0.335017
O	 3.341076	 1.666752	 -0.126416
C	 3.569581	 0.339145	 0.272707
C	 2.539767	 -0.640285	 -0.279495
H	 4.553106	 0.084646	 -0.100901
H	 3.608576	 0.269204	 1.359154
C	 1.349537	 -0.882767	 0.651860
H	 2.184482	 -0.264539	 -1.235504
H	 3.042715	 -1.585448	 -0.477174
C	 0.361624	 -1.910904	 0.093487
H	 0.834637	 0.058006	 0.825613
H	 1.712130	 -1.225609	 1.621049
C	 -0.805836	 -2.254517	 1.025854
H	 -0.030184	 -1.551714	 -0.856416
H	 0.904698	 -2.826771	 -0.130028
C	 -1.785096	 -1.105797	 1.282700
H	 -1.355090	 -3.087952	 0.592814
H	 -0.413279	 -2.613211	 1.976156
C	 -2.987119	 -1.525684	 2.131389
H	 -2.138502	 -0.715389	 0.329392
H	 -1.275389	 -0.283282	 1.778654
C	 -3.962936	 -0.379325	 2.394649
H	 -3.511886	 -2.338942	 1.634680
H	 -2.635523	 -1.925061	 3.080475
H	 -4.357842	 0.020680	 1.464988
H	 -4.804307	 -0.708791	 2.996463
H	 -3.477278	 0.435794	 2.923876

	symmetry c1
}
set optking {
	frozen_dihedral = ("
		8 4 3 2
	")
}

ee = optimize('scf')
oeprop('DIPOLE', 'QUADRUPOLE', 'MULLIKEN_CHARGES')
f=open( 'psi4out.xyz', 'w' )
f.write( "27  " )
f.write( str(ee) + "\n" )
f.write( MOL.save_string_xyz() )
f.close()
--------------------------------------------------------------------------

    Molecular point group: c1
  Charge       = 0
  Multiplicity = 1
  Basis Set: 6-31G*
  Basis Set:
  @DF-RHF Final Energy:  -388.27856574031824
    Total Energy =                       -388.2785657403180721
    Molecular point group: c1
  Basis Set: 6-31G*
  Basis Set:
  Basis Set: 6-31G*
  Basis Set:
  @DF-RHF Final Energy:  -388.27890089490609
    Total Energy =                       -388.2789008949063145
  Basis Set: 6-31G*
  Basis Set:
  Basis Set: 6-31G*
  Basis Set:
  @DF-RHF Final Energy:  -388.27897678742670
    Total Energy =                       -388.2789767874264726
  Basis Set: 6-31G*
  Basis Set:
  Basis Set: 6-31G*
  Basis Set:
  @DF-RHF Final Energy:  -388.27898422207949
    Total Energy =                       -388.2789842220793162
  Basis Set: 6-31G*
  Basis Set:
  Basis Set: 6-31G*
  Basis Set:
  @DF-RHF Final Energy:  -388.27898957827426
    Total Energy =                       -388.2789895782744907
  Basis Set: 6-31G*
  Basis Set:
  Charge       = 0
  Multiplicity = 1
  Basis Set: 6-31G*
  Basis Set:

    Orbital Energies (a.u.)
    -----------------------

    Doubly Occupied:

       1A    -20.552039     2A    -11.266587     3A    -11.220474
       4A    -11.217473     5A    -11.216628     6A    -11.216077
       7A    -11.215096     8A    -11.214976     9A    -11.210023
      10A     -1.358162    11A     -1.095679    12A     -1.061910
      13A     -1.011294    14A     -0.947224    15A     -0.886932
      16A     -0.821666    17A     -0.803852    18A     -0.779131
      19A     -0.689177    20A     -0.654853    21A     -0.641553
      22A     -0.610397    23A     -0.600482    24A     -0.583386
      25A     -0.578150    26A     -0.552777    27A     -0.539433
      28A     -0.533587    29A     -0.505841    30A     -0.499190
      31A     -0.485881    32A     -0.474238    33A     -0.466302
      34A     -0.461159    35A     -0.452990    36A     -0.441025
      37A     -0.423002

  @DF-RHF Final Energy:  -388.27898988694636

   => Energetics <=

    Nuclear Repulsion Energy =            457.7033850545015525
    One-Electron Energy =               -1433.3874585691355605
    Two-Electron Energy =                 587.4050836276877590
    DFT Exchange-Correlation Energy =       0.0000000000000000
    Empirical Dispersion Energy =           0.0000000000000000
    PCM Polarization Energy =               0.0000000000000000
    EFP Energy =                            0.0000000000000000
    Total Energy =                       -388.2789898869463059
    Molecular point group: c1
  Basis Set: 6-31G*
  Basis Set:

  -Total Gradient:
     Atom            X                  Y                   Z
    ------   -----------------  -----------------  -----------------
       1        0.000005349015     0.000001995758    -0.000000918030
       2        0.002218222257    -0.000507768728    -0.003035136129
       3       -0.003798522632     0.001172588245     0.004561701832
       4        0.005169478366    -0.002893020963    -0.003649786116
       5        0.000003734851    -0.000017759712     0.000004096732
       6       -0.000009920075    -0.000000502535    -0.000002707873
       7        0.000016819445    -0.000004017276     0.000011892962
       8       -0.003607735339     0.002243734684     0.002116249751
       9        0.000010934516     0.000006323971     0.000006620151
      10       -0.000013796359     0.000018424899    -0.000013894356
      11        0.000012728871    -0.000013144084    -0.000019339198
      12        0.000000434177    -0.000009177149     0.000012827140
      13        0.000011861611    -0.000004496030     0.000008033503
      14       -0.000010860862    -0.000000859578    -0.000001245366
      15        0.000004762926     0.000009707777    -0.000001953024
      16       -0.000005070753     0.000004324699    -0.000000999648
      17        0.000005347710    -0.000000120998    -0.000001285715
      18       -0.000005196185    -0.000001573267     0.000004327940
      19        0.000000421359     0.000000635660     0.000001780980
      20       -0.000004072424     0.000000613880     0.000003176276
      21       -0.000004473803    -0.000004469823    -0.000002119430
      22       -0.000001371001    -0.000001196795    -0.000003436846
      23       -0.000000489703    -0.000000539511     0.000002097791
      24        0.000001532658     0.000000621875     0.000000688242
      25        0.000000158986     0.000001589988    -0.000000174010
      26       -0.000000415081    -0.000000464221    -0.000000940803
      27        0.000000137456    -0.000001450772     0.000000443248

  **** Optimization is complete! (in 6 steps) ****
    Final optimized geometry and variables:
    Molecular point group: c1

    Geometry (in Angstrom), charge = 0, multiplicity = 1:

    H            2.224375525408     2.653260942932    -0.588746193401
    O            3.035545989119     2.361623278710    -0.980891201483
    C            3.338467234545     1.063371914316    -0.534621961248
    C            2.367229200847     0.005957950203    -1.067298522299
    H            4.336523466368     0.867995302479    -0.904527145952
    H            3.386680968356     1.029548711869     0.552410067396
    C            1.153979302638    -0.221208465318    -0.157411734207
    H            2.013051322990     0.346917596275    -2.035884209363
    H            2.889588186519    -0.935763698544    -1.213704800818
    C            0.150123603660    -1.217500892478    -0.742917011777
    H            0.661329865607     0.732027401367     0.025692205777
    H            1.492862085847    -0.580256510370     0.813290639470
    C           -1.025889260575    -1.564869006742     0.177197982449
    H           -0.232399404057    -0.830013412593    -1.685610818639
    H            0.679031042429    -2.136586254324    -0.987101785586
    C           -1.983409551272    -0.405072657428     0.464233860672
    H           -1.589827436762    -2.375404413343    -0.279711407635
    H           -0.642382713288    -1.956798452800     1.117928277899
    C           -3.195747304179    -0.825112953375     1.298049774006
    H           -2.326759386686     0.018887010161    -0.478504256997
    H           -1.458831002912     0.392614936874     0.984722057343
    C           -4.150335147552     0.331973779218     1.590519576316
    H           -3.734395562295    -1.614167580097     0.777760382343
    H           -2.854557355952    -1.257058009003     2.236568036288
    H           -4.534748008460     0.765054851729     0.671310472229
    H           -4.999707659917     0.002106465204     2.180719024882
    H           -3.650880830765     1.122579813028     2.143578073875

  Mulliken Charges: (a.u.)
   Center  Symbol    Alpha    Beta     Spin     Total
       1     H     0.28249  0.28249  0.00000  0.43501
       2     O     4.37025  4.37025  0.00000 -0.74049
       3     C     2.99622  2.99622  0.00000  0.00756
       4     C     3.16958  3.16958  0.00000 -0.33916
       5     H     0.41434  0.41434  0.00000  0.17132
       6     H     0.43033  0.43033  0.00000  0.13935
       7     C     3.15861  3.15861  0.00000 -0.31722
       8     H     0.41147  0.41147  0.00000  0.17707
       9     H     0.42070  0.42070  0.00000  0.15861
      10     C     3.15270  3.15270  0.00000 -0.30541
      11     H     0.42882  0.42882  0.00000  0.14236
      12     H     0.42292  0.42292  0.00000  0.15416
      13     C     3.15340  3.15340  0.00000 -0.30679
      14     H     0.42235  0.42235  0.00000  0.15531
      15     H     0.42115  0.42115  0.00000  0.15770
      16     C     3.15257  3.15257  0.00000 -0.30513
      17     H     0.42119  0.42119  0.00000  0.15762
      18     H     0.42387  0.42387  0.00000  0.15227
      19     C     3.15121  3.15121  0.00000 -0.30242
      20     H     0.42426  0.42426  0.00000  0.15147
      21     H     0.42357  0.42357  0.00000  0.15286
      22     C     3.23921  3.23921  0.00000 -0.47843
      23     H     0.42275  0.42275  0.00000  0.15451
      24     H     0.42302  0.42302  0.00000  0.15397
      25     H     0.42167  0.42167  0.00000  0.15666
      26     H     0.41904  0.41904  0.00000  0.16191
      27     H     0.42233  0.42233  0.00000  0.15534

   Total alpha = 37.00000, Total beta = 37.00000, Total charge = -0.00000
