                              Psi4 1.0.54 Driver

  ==> Input File <==

--------------------------------------------------------------------------
set {
	reference rhf
	basis cc-pvtz
}

set_num_threads( 4 )
memory 2 gb

molecule MOL {
0 1

H	 -2.698799	 -0.000846	 0.036018
C	 -1.694291	 -0.000483	 0.434279
O	 -0.828718	 -0.000608	 -0.655022
H	 -1.576855	 0.881100	 1.056504
H	 -1.576401	 -0.881658	 1.057001
C	 0.557892	 0.000078	 -0.420099
C	 1.151547	 1.404300	 -0.422267
C	 0.940959	 -0.788452	 0.827189
H	 0.954590	 -0.527252	 -1.278686
H	 0.829299	 1.948437	 -1.301546
H	 2.233733	 1.345711	 -0.435995
H	 0.866644	 1.971159	 0.456416
H	 0.472743	 -1.765004	 0.814375
H	 2.015510	 -0.926672	 0.858961
H	 0.650371	 -0.279830	 1.739003

	symmetry c1
}
set optking {
	frozen_dihedral = ("
		9 6 3 2
	")
}

ee,wfn = optimize('scf', return_wfn=True)
oeprop( wfn, 'DIPOLE', 'QUADRUPOLE', 'MULLIKEN_CHARGES')
f=open( 'psi4out.xyz', 'w' )
f.write( "15  " )
f.write( str(ee) + "\n" )
f.write( MOL.save_string_xyz() )
f.close()
--------------------------------------------------------------------------

    Molecular point group: c1
  Charge       = 0
  Multiplicity = 1
  Basis Set: CC-PVTZ
  Basis Set:
  @DF-RHF Final Energy:  -232.22336689954028
    Total Energy =                       -232.2233668995402809
    Molecular point group: c1
  Basis Set: CC-PVTZ
  Basis Set:
  Basis Set: CC-PVTZ
  Basis Set:
  @DF-RHF Final Energy:  -232.22384139785072
    Total Energy =                       -232.2238413978507765
  Basis Set: CC-PVTZ
  Basis Set:
  Basis Set: CC-PVTZ
  Basis Set:
  @DF-RHF Final Energy:  -232.22438481645878
    Total Energy =                       -232.2243848164587803
  Basis Set: CC-PVTZ
  Basis Set:
  Basis Set: CC-PVTZ
  Basis Set:
  @DF-RHF Final Energy:  -232.22440241399360
    Total Energy =                       -232.2244024139934595
  Basis Set: CC-PVTZ
  Basis Set:
  Basis Set: CC-PVTZ
  Basis Set:
  @DF-RHF Final Energy:  -232.22441555978207
    Total Energy =                       -232.2244155597820736
  Basis Set: CC-PVTZ
  Basis Set:
  Charge       = 0
  Multiplicity = 1
  Basis Set: CC-PVTZ
  Basis Set:

    Orbital Energies (a.u.)
    -----------------------

    Doubly Occupied:

       1A    -20.540410     2A    -11.272805     3A    -11.259379
       4A    -11.211880     5A    -11.205767     6A     -1.371837
       7A     -1.052288     8A     -0.945586     9A     -0.924973
      10A     -0.781415    11A     -0.676339    12A     -0.643838
      13A     -0.634079    14A     -0.577681    15A     -0.556823
      16A     -0.551236    17A     -0.535139    18A     -0.504934
      19A     -0.494556    20A     -0.445957    21A     -0.405638

  @DF-RHF Final Energy:  -232.22441608723116

   => Energetics <=

    Nuclear Repulsion Energy =            198.8511781875660915
    One-Electron Energy =                -708.9660713989273972
    Two-Electron Energy =                 277.8904771241300296
    DFT Exchange-Correlation Energy =       0.0000000000000000
    Empirical Dispersion Energy =           0.0000000000000000
    PCM Polarization Energy =               0.0000000000000000
    EFP Energy =                            0.0000000000000000
    Total Energy =                       -232.2244160872312477
    Molecular point group: c1
  Basis Set: CC-PVTZ
  Basis Set:

  -Total Gradient:
     Atom            X                  Y                   Z
    ------   -----------------  -----------------  -----------------
       1       -0.000013245863     0.000010033262    -0.000009555070
       2        0.000018575878    -0.003136193263     0.000090298926
       3        0.000033002846     0.004147759073     0.000231831996
       4       -0.000006968293     0.000015653146     0.000010215573
       5        0.000004321374    -0.000038613616     0.000028778756
       6        0.000349117406     0.002043909599    -0.002291479528
       7       -0.000023663506     0.000007189258     0.000037049187
       8       -0.000016393069     0.000028836955     0.000031047254
       9       -0.000266370478    -0.003099886056     0.001868362753
      10       -0.000009341969     0.000007717915     0.000001504157
      11       -0.000034899007    -0.000011237857    -0.000010834657
      12       -0.000002369487     0.000017213653     0.000014915733
      13       -0.000012428039     0.000036441276     0.000013838905
      14       -0.000045502604    -0.000002066810    -0.000005588318
      15        0.000026164811    -0.000026756534    -0.000010385669

  **** Optimization is complete! (in 6 steps) ****
    Final optimized geometry and variables:
    Molecular point group: c1

    Geometry (in Angstrom), charge = 0, multiplicity = 1:

    H           -2.702840494830    -0.014208729204     0.056527627229
    C           -1.707427008471    -0.112887038941     0.465699038921
    O           -0.831097880900    -0.145879446017    -0.613560966385
    H           -1.527563387145     0.733838764282     1.123372203832
    H           -1.670144773466    -1.021968159757     1.056241611579
    C            0.559713785558    -0.141902303488    -0.384364737253
    C            1.089884267653     1.284363153805    -0.412254680389
    C            0.990878968674    -0.892366965405     0.871604688669
    H            0.968129486292    -0.692632873847    -1.223532517144
    H            0.792716246480     1.773987282969    -1.330646799299
    H            2.172445464162     1.294426390895    -0.350787511337
    H            0.701916075506     1.861567413012     0.420459554881
    H            0.596950194739    -1.901305705594     0.877477449880
    H            2.072100567012    -0.957663197132     0.889514848604
    H            0.676750440953    -0.394526924440     1.781195868013

  Mulliken Charges: (a.u.)
   Center  Symbol    Alpha    Beta     Spin     Total
       1     H     0.44195  0.44195  0.00000  0.11609
       2     C     3.03877  3.03877  0.00000 -0.07754
       3     O     4.18687  4.18687  0.00000 -0.37373
       4     H     0.47119  0.47119  0.00000  0.05762
       5     H     0.46758  0.46758  0.00000  0.06485
       6     C     2.93213  2.93213  0.00000  0.13573
       7     C     3.14411  3.14411  0.00000 -0.28822
       8     C     3.16892  3.16892  0.00000 -0.33785
       9     H     0.44858  0.44858  0.00000  0.10285
      10     H     0.44584  0.44584  0.00000  0.10832
      11     H     0.45552  0.45552  0.00000  0.08895
      12     H     0.45704  0.45704  0.00000  0.08592
      13     H     0.44437  0.44437  0.00000  0.11127
      14     H     0.44529  0.44529  0.00000  0.10942
      15     H     0.45184  0.45184  0.00000  0.09633

   Total alpha = 21.00000, Total beta = 21.00000, Total charge = -0.00000

*** Psi4 exiting successfully. Buy a developer a beer!
