                              Psi4 1.0.54 Driver

  ==> Input File <==

--------------------------------------------------------------------------
set {
	reference rhf
	basis cc-pvtz
}

set_num_threads( 4 )
memory 2 gb

molecule MOL {
0 1

H	 2.462485	 -2.216993	 0.000000
O	 2.777472	 -1.330706	 0.000000
C	 1.763288	 -0.447523	 0.000000
C	 1.980650	 0.776829	 0.615496
C	 0.543483	 -0.720448	 -0.581331
H	 2.936497	 0.968468	 1.061353
C	 0.979171	 1.719928	 0.646401
H	 0.348355	 -1.656128	 -1.062709
C	 -0.438502	 0.249085	 -0.531526
H	 1.156217	 2.663340	 1.124289
C	 -0.254552	 1.469059	 0.069396
N	 -1.734273	 -0.048270	 -1.152297
H	 -1.041112	 2.191404	 0.085673
O	 -1.866608	 -1.109877	 -1.664695
O	 -2.570564	 0.789024	 -1.104827

	symmetry c1
}
set optking {
	frozen_dihedral = ("
		4 3 2 1
	")
}

ee,wfn = optimize('scf', return_wfn=True)
oeprop( wfn, 'DIPOLE', 'QUADRUPOLE', 'MULLIKEN_CHARGES')
f=open( 'psi4out.xyz', 'w' )
f.write( "15  " )
f.write( str(ee) + "\n" )
f.write( MOL.save_string_xyz() )
f.close()
--------------------------------------------------------------------------

    Molecular point group: c1
  Charge       = 0
  Multiplicity = 1
  Basis Set: CC-PVTZ
  Basis Set:
  @DF-RHF Final Energy:  -509.21783979204872
    Total Energy =                       -509.2178397920491761
    Molecular point group: c1
  Basis Set: CC-PVTZ
  Basis Set:
  Basis Set: CC-PVTZ
  Basis Set:
  @DF-RHF Final Energy:  -509.21783600543057
    Total Energy =                       -509.2178360054309678
  Basis Set: CC-PVTZ
  Basis Set:
  Basis Set: CC-PVTZ
  Basis Set:
  @DF-RHF Final Energy:  -509.20881961839450
    Total Energy =                       -509.2088196183947275
  Basis Set: CC-PVTZ
  Basis Set:
  Basis Set: CC-PVTZ
  Basis Set:
  @DF-RHF Final Energy:  -509.21737250547773
    Total Energy =                       -509.2173725054773286
  Basis Set: CC-PVTZ
  Basis Set:
  Basis Set: CC-PVTZ
  Basis Set:
  @DF-RHF Final Energy:  -509.21789031403063
    Total Energy =                       -509.2178903140302282
  Basis Set: CC-PVTZ
  Basis Set:
  Basis Set: CC-PVTZ
  Basis Set:
  @DF-RHF Final Energy:  -509.21789031298488
    Total Energy =                       -509.2178903129849914
  Basis Set: CC-PVTZ
  Basis Set:
  Basis Set: CC-PVTZ
  Basis Set:
  @DF-RHF Final Energy:  -509.21790509440928
    Total Energy =                       -509.2179050944090477
  Basis Set: CC-PVTZ
  Basis Set:
  Charge       = 0
  Multiplicity = 1
  Basis Set: CC-PVTZ
  Basis Set:

    Orbital Energies (a.u.)
    -----------------------

    Doubly Occupied:

       1A    -20.604561     2A    -20.594961     3A    -20.594482
       4A    -15.850620     5A    -11.325425     6A    -11.308667
       7A    -11.263320     8A    -11.263053     9A    -11.259932
      10A    -11.257401    11A     -1.644284    12A     -1.436237
      13A     -1.426720    14A     -1.202696    15A     -1.095456
      16A     -1.048040    17A     -0.966401    18A     -0.879015
      19A     -0.832359    20A     -0.795674    21A     -0.753471
      22A     -0.743598    23A     -0.729326    24A     -0.709712
      25A     -0.678013    26A     -0.638479    27A     -0.628480
      28A     -0.583928    29A     -0.559311    30A     -0.545188
      31A     -0.519562    32A     -0.494914    33A     -0.492761
      34A     -0.460295    35A     -0.380067    36A     -0.349719

  @DF-RHF Final Energy:  -509.21790547480271

   => Energetics <=

    Nuclear Repulsion Energy =            504.5657087939872554
    One-Electron Energy =               -1695.7349764321202201
    Two-Electron Energy =                 681.9513621633303728
    DFT Exchange-Correlation Energy =       0.0000000000000000
    Empirical Dispersion Energy =           0.0000000000000000
    PCM Polarization Energy =               0.0000000000000000
    EFP Energy =                            0.0000000000000000
    Total Energy =                       -509.2179054748027056
    Molecular point group: c1
  Basis Set: CC-PVTZ
  Basis Set:

  -Total Gradient:
     Atom            X                  Y                   Z
    ------   -----------------  -----------------  -----------------
       1        0.000017103242     0.000020457137     0.002451052616
       2       -0.000290950621    -0.000324495170    -0.002336146550
       3        0.000795996102     0.000897361932    -0.001687249992
       4       -0.000602600646    -0.000565172966     0.001537229081
       5        0.000051585928    -0.000021375349     0.000026372456
       6        0.000001326701    -0.000004737511     0.000002685350
       7        0.000076982147    -0.000024313598     0.000035560589
       8       -0.000004694476    -0.000000337376    -0.000008602693
       9       -0.000040360212     0.000064174556     0.000021845197
      10       -0.000006862524     0.000000655076    -0.000002733718
      11       -0.000045769103    -0.000056551696    -0.000059410105
      12       -0.000071327951     0.000002935822    -0.000052113169
      13       -0.000003231268     0.000007549178     0.000001899409
      14        0.000061409091    -0.000020288135     0.000026120272
      15        0.000061393593     0.000024138103     0.000043491253

  **** Optimization is complete! (in 8 steps) ****
    Final optimized geometry and variables:
    Molecular point group: c1

    Geometry (in Angstrom), charge = 0, multiplicity = 1:

    H            2.375117473657    -2.309282162960     0.431072107070
    O            2.698769556054    -1.426104001632     0.420349639066
    C            1.688107339610    -0.531521485940     0.418915236892
    C            1.910437548023     0.697982459311     1.018116871845
    C            0.468026983703    -0.806780603273    -0.161867741461
    H            2.864146511417     0.887704961999     1.469319253152
    C            0.917697839221     1.653182065367     1.023360161184
    H            0.274794990929    -1.746561764180    -0.635200129192
    C           -0.508820719008     0.167270454599    -0.127386464219
    H            1.099222067471     2.603132477029     1.486292543041
    C           -0.315199585079     1.398914780947     0.449432538112
    N           -1.807156597411    -0.132542753708    -0.740780084138
    H           -1.097294920333     2.126395853874     0.450969283581
    O           -1.955195152439    -1.210349245175    -1.213157501688
    O           -2.630198678583     0.719208042304    -0.726497605542

  Mulliken Charges: (a.u.)
   Center  Symbol    Alpha    Beta     Spin     Total
       1     H     0.38256  0.38256  0.00000  0.23488
       2     O     4.17442  4.17442  0.00000 -0.34885
       3     C     2.85272  2.85272  0.00000  0.29456
       4     C     3.09696  3.09696  0.00000 -0.19392
       5     C     3.12769  3.12769  0.00000 -0.25537
       6     H     0.41197  0.41197  0.00000  0.17606
       7     C     3.05861  3.05861  0.00000 -0.11723
       8     H     0.40288  0.40288  0.00000  0.19425
       9     C     2.98179  2.98179  0.00000  0.03641
      10     H     0.41577  0.41577  0.00000  0.16846
      11     C     3.09291  3.09291  0.00000 -0.18581
      12     N     3.24955  3.24955  0.00000  0.50091
      13     H     0.39931  0.39931  0.00000  0.20137
      14     O     4.17798  4.17798  0.00000 -0.35597
      15     O     4.17487  4.17487  0.00000 -0.34974

   Total alpha = 36.00000, Total beta = 36.00000, Total charge =  0.00000

*** Psi4 exiting successfully. Buy a developer a beer!
