  ==> Input File <==

--------------------------------------------------------------------------
set {
	reference rhf
	basis cc-pvtz
}

set_num_threads( 4 )
memory 2 gb

molecule MOL {
0 1

H	 -1.146964	 -0.318825	 0.746095
N	 -0.712187	 0.000026	 -0.093397
C	 0.734067	 -0.000020	 0.038424
H	 -1.054284	 0.920409	 -0.270344
H	 1.140372	 -0.872115	 -0.458226
H	 1.140363	 0.872301	 -0.457869
H	 1.095085	 -0.000244	 1.065614

	symmetry c1
}
set optking {
	frozen_dihedral = ("
		1 2 3 7
	")
}

ee = optimize('scf')
oeprop('DIPOLE', 'QUADRUPOLE', 'MULLIKEN_CHARGES')
f=open( 'psi4out.xyz', 'w' )
f.write( "7  " )
f.write( str(ee) + "\n" )
f.write( MOL.save_string_xyz() )
f.close()
--------------------------------------------------------------------------

    Molecular point group: c1
  Charge       = 0
  Multiplicity = 1
  Basis Set: CC-PVTZ
  Basis Set:
  @DF-RHF Final Energy:   -95.25109077308359
    Total Energy =                        -95.2510907730835754
    Molecular point group: c1
  Basis Set: CC-PVTZ
  Basis Set:
  Basis Set: CC-PVTZ
  Basis Set:
  @DF-RHF Final Energy:   -95.25125575809497
    Total Energy =                        -95.2512557580950130
  Basis Set: CC-PVTZ
  Basis Set:
  Basis Set: CC-PVTZ
  Basis Set:
  @DF-RHF Final Energy:   -95.25129211084943
    Total Energy =                        -95.2512921108494481
  Basis Set: CC-PVTZ
  Basis Set:
  Charge       = 0
  Multiplicity = 1
  Basis Set: CC-PVTZ
  Basis Set:

    Orbital Energies (a.u.)
    -----------------------

    Doubly Occupied:

       1A    -15.527793     2A    -11.235731     3A     -1.170583
       4A     -0.897989     5A     -0.664901     6A     -0.601165
       7A     -0.558636     8A     -0.518444     9A     -0.385940

  @DF-RHF Final Energy:   -95.25129261498154

   => Energetics <=

    Nuclear Repulsion Energy =             42.3139945305794001
    One-Electron Energy =                -212.0082111310331356
    Two-Electron Energy =                  74.4429239854721345
    DFT Exchange-Correlation Energy =       0.0000000000000000
    Empirical Dispersion Energy =           0.0000000000000000
    PCM Polarization Energy =               0.0000000000000000
    EFP Energy =                            0.0000000000000000
    Total Energy =                        -95.2512926149815939
    Molecular point group: c1
  Basis Set: CC-PVTZ
  Basis Set:

  -Total Gradient:
     Atom            X                  Y                   Z
    ------   -----------------  -----------------  -----------------
       1       -0.000087395981     0.002429196770     0.000852809538
       2        0.000136145182    -0.003742869702    -0.001011016707
       3       -0.000137134919     0.003772062962     0.000175089474
       4        0.000020881498    -0.000040770197    -0.000025533534
       5       -0.000004450915    -0.000000476138     0.000000545386
       6        0.000053097621     0.000006478880     0.000009318414
       7        0.000018857516    -0.002423622576    -0.000001212571

  **** Optimization is complete! (in 4 steps) ****
    Final optimized geometry and variables:
    Molecular point group: c1

    Geometry (in Angstrom), charge = 0, multiplicity = 1:

    H           -1.149554454625    -0.340521380101     0.755192986196
    N           -0.716456194687    -0.020472890331    -0.083636006624
    C            0.736670293891    -0.017750533938     0.039624538188
    H           -1.059639044187     0.901878237620    -0.241655289662
    H            1.154693839737    -0.896020391689    -0.438954138931
    H            1.156315270838     0.849271552886    -0.454020138837
    H            1.081470723407    -0.018797942802     1.069701964434

  Mulliken Charges: (a.u.)
   Center  Symbol    Alpha    Beta     Spin     Total
       1     H     0.42923  0.42923  0.00000  0.14155
       2     N     3.68529  3.68529  0.00000 -0.37057
       3     C     3.06981  3.06981  0.00000 -0.13963
       4     H     0.42835  0.42835  0.00000  0.14331
       5     H     0.45995  0.45995  0.00000  0.08010
       6     H     0.45952  0.45952  0.00000  0.08096
       7     H     0.46785  0.46785  0.00000  0.06429

   Total alpha =  9.00000, Total beta =  9.00000, Total charge =  0.00000
