  ==> Input File <==

--------------------------------------------------------------------------
set {
	reference rhf
	basis 6-31G*
}

set_num_threads( 1 )
memory 2 gb

molecule MOL {
0 1

O	 2.862325	 1.357334	 0.000267
C	 2.843464	 0.164689	 -0.000222
C	 1.546494	 -0.624492	 -0.000609
C	 4.124123	 -0.644674	 -0.000428
C	 0.291004	 0.242674	 0.000989
H	 1.557904	 -1.283758	 -0.867573
H	 1.558622	 -1.285963	 0.864672
C	 -0.994322	 -0.586602	 0.000262
H	 0.309117	 0.896430	 -0.865270
H	 0.309661	 0.894078	 0.869017
C	 -2.259874	 0.272531	 0.000494
H	 -1.004862	 -1.240012	 -0.870939
H	 -1.005220	 -1.241071	 0.870675
C	 -2.108229	 1.573963	 -0.788994
H	 -2.535951	 0.505518	 1.027391
H	 -3.085709	 -0.303953	 -0.412616
C	 -3.376426	 2.426801	 -0.783932
H	 -1.283770	 2.151633	 -0.376211
H	 -1.833740	 1.342305	 -1.816052
H	 -3.658429	 2.703825	 0.227938
H	 -3.237633	 3.342272	 -1.350810
H	 -4.212027	 1.889214	 -1.223156
H	 4.165367	 -1.288615	 -0.874074
H	 4.976217	 0.020734	 -0.001915
H	 4.166763	 -1.286207	 0.874930

	symmetry c1
}
set optking {
	frozen_dihedral = ("
		9 5 8 12,
		15 11 14 18,
		1 2 3 6,
		9 5 3 6
	")
}

ee = energy('scf')
oeprop('DIPOLE', 'QUADRUPOLE', 'MULLIKEN_CHARGES')
f=open( 'psi4out.xyz', 'w' )
f.write( "25  " )
f.write( str(ee) + "\n" )
f.write( MOL.save_string_xyz() )
f.close()
--------------------------------------------------------------------------

    Molecular point group: c1

    Geometry (in Angstrom), charge = 0, multiplicity = 1:

       Center              X                  Y                   Z               Mass
    ------------   -----------------  -----------------  -----------------  -----------------
           O          2.536645502549     0.877541540183     0.178378826587    15.994914619560
           C          2.517784502549    -0.315103459817     0.177889826587    12.000000000000
           C          1.220814502549    -1.104284459817     0.177502826587    12.000000000000
           C          3.798443502549    -1.124466459817     0.177683826587    12.000000000000
           C         -0.034675497451    -0.237118459817     0.179100826587    12.000000000000
           H          1.232224502549    -1.763550459817    -0.689461173413     1.007825032070
           H          1.232942502549    -1.765755459817     1.042783826587     1.007825032070
           C         -1.320001497451    -1.066394459817     0.178373826587    12.000000000000
           H         -0.016562497451     0.416637540183    -0.687158173413     1.007825032070
           H         -0.016018497451     0.414285540183     1.047128826587     1.007825032070
           C         -2.585553497451    -0.207261459817     0.178605826587    12.000000000000
           H         -1.330541497451    -1.719804459817    -0.692827173413     1.007825032070
           H         -1.330899497451    -1.720863459817     1.048786826587     1.007825032070
           C         -2.433908497451     1.094170540183    -0.610882173413    12.000000000000
           H         -2.861630497451     0.025725540183     1.205502826587     1.007825032070
           H         -3.411388497451    -0.783745459817    -0.234504173413     1.007825032070
           C         -3.702105497451     1.947008540183    -0.605820173413    12.000000000000
           H         -1.609449497451     1.671840540183    -0.198099173413     1.007825032070
           H         -2.159419497451     0.862512540183    -1.637940173413     1.007825032070
           H         -3.984108497451     2.224032540183     0.406049826587     1.007825032070
           H         -3.563312497451     2.862479540183    -1.172698173413     1.007825032070
           H         -4.537706497451     1.409421540183    -1.045044173413     1.007825032070
           H          3.839687502549    -1.768407459817    -0.695962173413     1.007825032070
           H          4.650537502549    -0.459058459817     0.176196826587     1.007825032070
           H          3.841083502549    -1.765999459817     1.053041826587     1.007825032070

  Charge       = 0
  Multiplicity = 1
  Basis Set: 6-31G*
  Basis Set:

    Orbital Energies (a.u.)
    -----------------------

    Doubly Occupied:

       1A    -20.550374     2A    -11.326172     3A    -11.231240
       4A    -11.228256     5A    -11.216319     6A    -11.215452
       7A    -11.212796     8A    -11.211550     9A    -11.205747
      10A     -1.395698    11A     -1.096011    12A     -1.053127
      13A     -1.011808    14A     -0.968890    15A     -0.887055
      16A     -0.836797    17A     -0.767576    18A     -0.731027
      19A     -0.657677    20A     -0.650823    21A     -0.633928
      22A     -0.621974    23A     -0.597705    24A     -0.580613
      25A     -0.571243    26A     -0.561343    27A     -0.551550
      28A     -0.516615    29A     -0.506355    30A     -0.494580
      31A     -0.488211    32A     -0.479526    33A     -0.460229
      34A     -0.450701    35A     -0.445777    36A     -0.399893

  @DF-RHF Final Energy:  -387.12920923675813

   => Energetics <=

    Nuclear Repulsion Energy =            449.3157630300820529
    One-Electron Energy =               -1415.2606239893668771
    Two-Electron Energy =                 578.8156517225284006
    DFT Exchange-Correlation Energy =       0.0000000000000000
    Empirical Dispersion Energy =           0.0000000000000000
    PCM Polarization Energy =               0.0000000000000000
    EFP Energy =                            0.0000000000000000
    Total Energy =                       -387.1292092367564237

  Mulliken Charges: (a.u.)
   Center  Symbol    Alpha    Beta     Spin     Total
       1     O     4.26162  4.26162  0.00000 -0.52324
       2     C     2.73560  2.73560  0.00000  0.52881
       3     C     3.20911  3.20911  0.00000 -0.41822
       4     C     3.28670  3.28670  0.00000 -0.57341
       5     C     3.15618  3.15618  0.00000 -0.31236
       6     H     0.41018  0.41018  0.00000  0.17965
       7     H     0.41042  0.41042  0.00000  0.17916
       8     C     3.15457  3.15457  0.00000 -0.30915
       9     H     0.40711  0.40711  0.00000  0.18578
      10     H     0.41234  0.41234  0.00000  0.17532
      11     C     3.15092  3.15092  0.00000 -0.30184
      12     H     0.42439  0.42439  0.00000  0.15121
      13     H     0.42251  0.42251  0.00000  0.15499
      14     C     3.16098  3.16098  0.00000 -0.32196
      15     H     0.42287  0.42287  0.00000  0.15426
      16     H     0.42167  0.42167  0.00000  0.15665
      17     C     3.23779  3.23779  0.00000 -0.47557
      18     H     0.41344  0.41344  0.00000  0.17312
      19     H     0.42360  0.42360  0.00000  0.15280
      20     H     0.42199  0.42199  0.00000  0.15602
      21     H     0.41894  0.41894  0.00000  0.16211
      22     H     0.42311  0.42311  0.00000  0.15378
      23     H     0.40875  0.40875  0.00000  0.18249
      24     H     0.39653  0.39653  0.00000  0.20693
      25     H     0.40866  0.40866  0.00000  0.18267

   Total alpha = 36.00000, Total beta = 36.00000, Total charge = -0.00000
