                              Psi4 1.0.54 Driver

  ==> Input File <==

--------------------------------------------------------------------------
set {
	reference rhf
	basis cc-pvtz
}

set_num_threads( 4 )
memory 2 gb

molecule MOL {
0 1

H	 3.107123	 4.273259	 -3.113921
C	 2.738732	 3.481799	 -2.489378
C	 1.576919	 3.661960	 -1.760423
C	 3.426749	 2.285465	 -2.415904
H	 1.043416	 4.590811	 -1.817948
C	 1.104159	 2.644471	 -0.958108
H	 4.327643	 2.146747	 -2.981606
C	 2.954642	 1.265693	 -1.612986
H	 0.206398	 2.766967	 -0.387075
C	 1.791073	 1.442746	 -0.881363
H	 3.485074	 0.337968	 -1.553835
C	 1.238974	 0.374429	 0.000004
O	 1.968286	 -0.725612	 -0.000027
O	 0.247281	 0.493342	 0.638427
C	 3.373556	 -0.568203	 0.000011
H	 3.695416	 -0.031588	 -0.879663
H	 3.782700	 -1.565294	 -0.000152
H	 3.695405	 -0.031851	 0.879862

	symmetry c1
}
set optking {
	frozen_dihedral = ("
		10 12 13 15
	")
}

ee,wfn = optimize('scf', return_wfn=True)
oeprop( wfn, 'DIPOLE', 'QUADRUPOLE', 'MULLIKEN_CHARGES')
f=open( 'psi4out.xyz', 'w' )
f.write( "18  " )
f.write( str(ee) + "\n" )
f.write( MOL.save_string_xyz() )
f.close()
--------------------------------------------------------------------------

    Molecular point group: c1
  Charge       = 0
  Multiplicity = 1
  Basis Set: CC-PVTZ
  Basis Set:
  @DF-RHF Final Energy:  -457.35749739419521
    Total Energy =                       -457.3574973941949793
    Molecular point group: c1
  Basis Set: CC-PVTZ
  Basis Set:
  Basis Set: CC-PVTZ
  Basis Set:
  @DF-RHF Final Energy:  -457.35246398952125
    Total Energy =                       -457.3524639895219934
  Basis Set: CC-PVTZ
  Basis Set:
  Basis Set: CC-PVTZ
  Basis Set:
  @DF-RHF Final Energy:  -457.39325559417551
    Total Energy =                       -457.3932555941759119
  Basis Set: CC-PVTZ
  Basis Set:
  Basis Set: CC-PVTZ
  Basis Set:
  @DF-RHF Final Energy:  -457.44198031717320
    Total Energy =                       -457.4419803171731473
  Basis Set: CC-PVTZ
  Basis Set:
  @DF-RHF Final Energy:  -457.47115745105623
    Total Energy =                       -457.4711574510565697
  @DF-RHF Final Energy:  -457.47751060158549
    Total Energy =                       -457.4775106015853225
  @DF-RHF Final Energy:  -457.48160523661664
    Total Energy =                       -457.4816052366161330
  @DF-RHF Final Energy:  -457.27822095696945
    Total Energy =                       -457.2782209569695624
  @DF-RHF Final Energy:  -457.45556116205506
    Total Energy =                       -457.4555611620548916
  @DF-RHF Final Energy:  -457.48388710548841
    Total Energy =                       -457.4838871054882929
  @DF-RHF Final Energy:  -457.48578921415759
    Total Energy =                       -457.4857892141574212
  @DF-RHF Final Energy:  -457.48815158637433
    Total Energy =                       -457.4881515863748973
  @DF-RHF Final Energy:  -457.48864161481640
    Total Energy =                       -457.4886416148161743
  @DF-RHF Final Energy:  -457.48889721352157
    Total Energy =                       -457.4888972135219092
  @DF-RHF Final Energy:  -457.48898905101811
    Total Energy =                       -457.4889890510180521
  @DF-RHF Final Energy:  -457.48901640068328
    Total Energy =                       -457.4890164006835676
  @DF-RHF Final Energy:  -457.48905228228637
    Total Energy =                       -457.4890522822865933
  @DF-RHF Final Energy:  -457.48908511506420
    Total Energy =                       -457.4890851150644266
  @DF-RHF Final Energy:  -457.48911573731039
    Total Energy =                       -457.4891157373108399
  @DF-RHF Final Energy:  -457.48913131663227
    Total Energy =                       -457.4891313166323243
  @DF-RHF Final Energy:  -457.48913424912229
    Total Energy =                       -457.4891342491229125
  @DF-RHF Final Energy:  -457.48913745812922
    Total Energy =                       -457.4891374581291075
  @DF-RHF Final Energy:  -457.48914804122938
    Total Energy =                       -457.4891480412292140
  @DF-RHF Final Energy:  -457.48732495484387
    Total Energy =                       -457.4873249548438707
  @DF-RHF Final Energy:  -457.48916605284131
    Total Energy =                       -457.4891660528414832
  @DF-RHF Final Energy:  -457.48671471090370
    Total Energy =                       -457.4867147109035841
  @DF-RHF Final Energy:  -457.48873123525709
    Total Energy =                       -457.4887312352576600
  @DF-RHF Final Energy:  -457.48918604473579
    Total Energy =                       -457.4891860447355612
  Basis Set: CC-PVTZ
  Basis Set:
  @DF-RHF Final Energy:  -457.48918219712556
    Total Energy =                       -457.4891821971255013
  Basis Set: CC-PVTZ
  Basis Set:
  Basis Set: CC-PVTZ
  Basis Set:
  @DF-RHF Final Energy:  -457.48919204187206
    Total Energy =                       -457.4891920418717746
  Basis Set: CC-PVTZ
  Basis Set:
  Basis Set: CC-PVTZ
  Basis Set:
  @DF-RHF Final Energy:  -457.48919328845744
    Total Energy =                       -457.4891932884577272
  Basis Set: CC-PVTZ
  Basis Set:
  Charge       = 0
  Multiplicity = 1
  Basis Set: CC-PVTZ
  Basis Set:

    Orbital Energies (a.u.)
    -----------------------

    Doubly Occupied:

       1A    -20.592520     2A    -20.535655     3A    -11.373718
       4A    -11.291756     5A    -11.253677     6A    -11.251350
       7A    -11.248372     8A    -11.246821     9A    -11.244490
      10A    -11.242675    11A     -1.466940    12A     -1.371071
      13A     -1.177656    14A     -1.050864    15A     -1.036551
      16A     -0.985034    17A     -0.878770    18A     -0.848429
      19A     -0.787150    20A     -0.741529    21A     -0.691860
      22A     -0.680515    23A     -0.676361    24A     -0.643222
      25A     -0.633185    26A     -0.608996    27A     -0.602340
      28A     -0.568193    29A     -0.540099    30A     -0.522040
      31A     -0.514586    32A     -0.502766    33A     -0.458905
      34A     -0.445753    35A     -0.356202    36A     -0.353268

  @DF-RHF Final Energy:  -457.48919337737573

   => Energetics <=

    Nuclear Repulsion Energy =            499.0460596493529692
    One-Electron Energy =               -1612.2238649409150639
    Two-Electron Energy =                 655.6886119141862537
    DFT Exchange-Correlation Energy =       0.0000000000000000
    Empirical Dispersion Energy =           0.0000000000000000
    PCM Polarization Energy =               0.0000000000000000
    EFP Energy =                            0.0000000000000000
    Total Energy =                       -457.4891933773757273
    Molecular point group: c1
  Basis Set: CC-PVTZ
  Basis Set:

  -Total Gradient:
     Atom            X                  Y                   Z
    ------   -----------------  -----------------  -----------------
       1        0.000005662693    -0.000000678969     0.000000520537
       2       -0.000017815747     0.000014864490     0.000004253560
       3        0.000005569904     0.000000163329     0.000001678612
       4        0.000008075509     0.000021711618    -0.000040355041
       5       -0.000004409163    -0.000001513035    -0.000006038148
       6        0.000001640262    -0.000012562533    -0.000006178008
       7        0.000003219132     0.000004789077    -0.000000066300
       8       -0.000015514548    -0.000017404889     0.000012020960
       9       -0.000005557771    -0.000002898478    -0.000001795498
      10       -0.000019991987     0.000018804397     0.000022986654
      11        0.000013902182    -0.000015636008     0.000016826681
      12        0.000062236866    -0.000009963153    -0.000014159271
      13       -0.000059107560    -0.000023175751    -0.000045942812
      14       -0.000000295483     0.000005821320     0.000010929256
      15        0.000048903565     0.000003042320     0.000035371130
      16       -0.000013817740     0.000009413657     0.000007481231
      17       -0.000004498867     0.000018310633    -0.000010612216
      18       -0.000008201247    -0.000013088028     0.000013078680

  **** Optimization is complete! (in 32 steps) ****
    Final optimized geometry and variables:
    Molecular point group: c1

    Geometry (in Angstrom), charge = 0, multiplicity = 1:

    H           -0.727284148438     2.972344924376    -2.379697821385
    C           -0.526270700769     2.193192470876    -1.669600373617
    C            0.500134038722     2.340100351151    -0.754159396415
    C           -1.299149625059     1.047881832995    -1.664915233932
    H            1.096198823356     3.232010750734    -0.752300795582
    C            0.750141275148     1.343946077457     0.167304807145
    H           -2.106889422472     0.939582087525    -2.362578633814
    C           -1.033756420040     0.040250355426    -0.757856356447
    H            1.524760801427     1.458216039813     0.898920770696
    C           -0.006118230901     0.182717985771     0.159369166812
    H           -1.643593980921    -0.841309685750    -0.750449728792
    C            0.264982513519    -0.848008446649     1.212671839173
    O            0.090357187800    -2.131486604582     0.899273077107
    O            0.581531217791    -0.549198887242     2.307967869582
    C            0.467321762154    -2.667345570138    -0.351323720358
    H           -0.403806391250    -2.849954378488    -0.963622542288
    H            0.961272851647    -3.605106913029    -0.149112007437
    H            1.146325784695    -2.015712720025    -0.881157415267

  Mulliken Charges: (a.u.)
   Center  Symbol    Alpha    Beta     Spin     Total
       1     H     0.41972  0.41972  0.00000  0.16056
       2     C     3.07288  3.07288  0.00000 -0.14576
       3     C     3.06914  3.06914  0.00000 -0.13828
       4     C     3.07512  3.07512  0.00000 -0.15024
       5     H     0.41972  0.41972  0.00000  0.16055
       6     C     3.08282  3.08282  0.00000 -0.16564
       7     H     0.42051  0.42051  0.00000  0.15897
       8     C     3.08118  3.08118  0.00000 -0.16235
       9     H     0.40991  0.40991  0.00000  0.18018
      10     C     3.02017  3.02017  0.00000 -0.04034
      11     H     0.41528  0.41528  0.00000  0.16944
      12     C     2.80179  2.80179  0.00000  0.39643
      13     O     4.13937  4.13937  0.00000 -0.27874
      14     O     4.18034  4.18034  0.00000 -0.36069
      15     C     3.05020  3.05020  0.00000 -0.10039
      16     H     0.45696  0.45696  0.00000  0.08608
      17     H     0.43283  0.43283  0.00000  0.13434
      18     H     0.45207  0.45207  0.00000  0.09587

   Total alpha = 36.00000, Total beta = 36.00000, Total charge =  0.00000

*** Psi4 exiting successfully. Buy a developer a beer!
