  ==> Input File <==

--------------------------------------------------------------------------
set {
	reference rhf
	basis cc-pvtz
}

set_num_threads( 4 )
memory 2 gb

molecule MOL {
0 1

H	 3.721907	 -0.933076	 -0.066039
O	 2.824271	 -1.154299	 0.131461
C	 2.076458	 -0.067370	 -0.038225
C	 0.626018	 -0.337582	 0.258241
O	 2.538288	 0.965419	 -0.381593
C	 -0.267326	 0.883135	 0.076490
H	 0.325620	 -1.161483	 -0.378003
H	 0.574537	 -0.713685	 1.275261
C	 -1.726822	 0.642622	 0.463839
H	 -0.210803	 1.217591	 -0.953497
H	 0.129920	 1.693110	 0.675679
C	 -2.480891	 -0.340606	 -0.429852
H	 -2.243098	 1.597649	 0.438609
H	 -1.776542	 0.301208	 1.495542
C	 -3.824968	 -0.758765	 0.157581
H	 -2.639552	 0.113253	 -1.404466
H	 -1.880563	 -1.228620	 -0.600130
H	 -4.339799	 -1.453603	 -0.495743
H	 -4.471840	 0.099632	 0.303895
H	 -3.697365	 -1.242781	 1.120182

	symmetry c1
}
set optking {
	frozen_dihedral = ("
		16 12 9 6
	")
}

ee = optimize('scf')
oeprop('DIPOLE', 'QUADRUPOLE', 'MULLIKEN_CHARGES')
f=open( 'psi4out.xyz', 'w' )
f.write( "20  " )
f.write( str(ee) + "\n" )
f.write( MOL.save_string_xyz() )
f.close()
--------------------------------------------------------------------------

    Molecular point group: c1
  Charge       = 0
  Multiplicity = 1
  Basis Set: CC-PVTZ
  Basis Set:
  @DF-RHF Final Energy:  -384.09412086002334
    Total Energy =                       -384.0941208600231676
    Molecular point group: c1
  Basis Set: CC-PVTZ
  Basis Set:
  Basis Set: CC-PVTZ
  Basis Set:
  @DF-RHF Final Energy:  -384.09410709495529
    Total Energy =                       -384.0941070949556320
  Basis Set: CC-PVTZ
  Basis Set:
  Basis Set: CC-PVTZ
  Basis Set:
  @DF-RHF Final Energy:  -384.09428607660084
    Total Energy =                       -384.0942860766011222
  Basis Set: CC-PVTZ
  Basis Set:
  Basis Set: CC-PVTZ
  Basis Set:
  @DF-RHF Final Energy:  -384.09403829835577
    Total Energy =                       -384.0940382983558834
  Basis Set: CC-PVTZ
  Basis Set:
  Basis Set: CC-PVTZ
  Basis Set:
  @DF-RHF Final Energy:  -384.09430591622237
    Total Energy =                       -384.0943059162224813
  Basis Set: CC-PVTZ
  Basis Set:
  Charge       = 0
  Multiplicity = 1
  Basis Set: CC-PVTZ
  Basis Set:

    Orbital Energies (a.u.)
    -----------------------

    Doubly Occupied:

       1A    -20.603938     2A    -20.540555     3A    -11.373531
       4A    -11.238841     5A    -11.221094     6A    -11.218751
       7A    -11.218118     8A    -11.210475     9A     -1.477524
      10A     -1.369045    11A     -1.097389    12A     -1.042316
      13A     -0.962357    14A     -0.870287    15A     -0.816633
      16A     -0.779507    17A     -0.703742    18A     -0.693537
      19A     -0.666231    20A     -0.636348    21A     -0.607192
      22A     -0.595286    23A     -0.578629    24A     -0.554517
      25A     -0.542013    26A     -0.512324    27A     -0.498001
      28A     -0.484661    29A     -0.470751    30A     -0.468311
      31A     -0.457845    32A     -0.446628

  @DF-RHF Final Energy:  -384.09430684473523

   => Energetics <=

    Nuclear Repulsion Energy =            376.7135786581922048
    One-Electron Energy =               -1269.7030077807310136
    Two-Electron Energy =                 508.8951222778033525
    DFT Exchange-Correlation Energy =       0.0000000000000000
    Empirical Dispersion Energy =           0.0000000000000000
    PCM Polarization Energy =               0.0000000000000000
    EFP Energy =                            0.0000000000000000
    Total Energy =                       -384.0943068447354563
    Molecular point group: c1
  Basis Set: CC-PVTZ
  Basis Set:

  -Total Gradient:
     Atom            X                  Y                   Z
    ------   -----------------  -----------------  -----------------
       1       -0.000002700641     0.000003012368     0.000000273724
       2       -0.000007553354    -0.000006179178     0.000019190036
       3        0.000007535380     0.000021530089    -0.000048697886
       4       -0.000045138591     0.000017746811     0.000004144549
       5       -0.000000858750     0.000004412081     0.000019489165
       6        0.000551587843    -0.001503225815     0.001063030453
       7       -0.000005091587    -0.000016967706    -0.000004478663
       8       -0.000001755812    -0.000002662729    -0.000004895627
       9       -0.001284758061     0.002285011120    -0.001328188840
      10        0.000018394971    -0.000014593474    -0.000006027517
      11       -0.000021697104     0.000022801892     0.000010444347
      12        0.002997361365    -0.001732032007    -0.000675624113
      13        0.000021951873    -0.000006050529    -0.000009508774
      14       -0.000006560717    -0.000020231468     0.000030892801
      15        0.000006713717    -0.000004147717     0.000035320272
      16       -0.002219100365     0.000946938914     0.000880598884
      17        0.000003019432     0.000005875430     0.000005631874
      18        0.000005629510    -0.000005108057     0.000001995076
      19       -0.000003934221     0.000000107806    -0.000006678549
      20       -0.000013044881     0.000003762170     0.000013088788

  **** Optimization is complete! (in 6 steps) ****
    Final optimized geometry and variables:
    Molecular point group: c1

    Geometry (in Angstrom), charge = 0, multiplicity = 1:

    H            3.721767633877    -0.870300218532    -0.084784202628
    O            2.831563149923    -1.090050834695     0.145360166652
    C            2.065980655642    -0.023954659497    -0.071255883758
    C            0.626142438988    -0.293855464169     0.273600173822
    O            2.506245475300     0.992293767554    -0.485112239085
    C           -0.286559284130     0.904247651172     0.044652405581
    H            0.322975647124    -1.157506760605    -0.306052818576
    H            0.602705801517    -0.610577799077     1.311515936327
    C           -1.740196114033     0.653648395204     0.449981975378
    H           -0.237235979226     1.198946480327    -0.997945217582
    H            0.101248425444     1.743079394256     0.609537491989
    C           -2.512379927432    -0.297359397435    -0.465253612960
    H           -2.261932125463     1.604840304596     0.479787840507
    H           -1.761458856696     0.268326175005     1.467332000803
    C           -3.861135669465    -0.707258514877     0.120087706187
    H           -2.684592725881     0.193871050607    -1.418721031416
    H           -1.930525589459    -1.189139623552    -0.670867312674
    H           -4.406670889810    -1.348918287370    -0.562166402150
    H           -4.479207847171     0.161315780476     0.322197147970
    H           -3.736030777205    -1.246138160340     1.053304196287

  Mulliken Charges: (a.u.)
   Center  Symbol    Alpha    Beta     Spin     Total
       1     H     0.38239  0.38239  0.00000  0.23521
       2     O     4.16034  4.16034  0.00000 -0.32068
       3     C     2.80322  2.80322  0.00000  0.39356
       4     C     3.11121  3.11121  0.00000 -0.22242
       5     O     4.19121  4.19121  0.00000 -0.38242
       6     C     3.09177  3.09177  0.00000 -0.18353
       7     H     0.43772  0.43772  0.00000  0.12457
       8     H     0.43798  0.43798  0.00000  0.12405
       9     C     3.10043  3.10043  0.00000 -0.20086
      10     H     0.44599  0.44599  0.00000  0.10802
      11     H     0.43974  0.43974  0.00000  0.12052
      12     C     3.08434  3.08434  0.00000 -0.16869
      13     H     0.44380  0.44380  0.00000  0.11240
      14     H     0.45620  0.45620  0.00000  0.08759
      15     C     3.14974  3.14974  0.00000 -0.29949
      16     H     0.45185  0.45185  0.00000  0.09629
      17     H     0.45518  0.45518  0.00000  0.08964
      18     H     0.44780  0.44780  0.00000  0.10441
      19     H     0.45391  0.45391  0.00000  0.09218
      20     H     0.45519  0.45519  0.00000  0.08963

   Total alpha = 32.00000, Total beta = 32.00000, Total charge = -0.00000
