                              Psi4 1.0.54 Driver

  ==> Input File <==

--------------------------------------------------------------------------
set {
	reference rhf
	basis cc-pvtz
}

set_num_threads( 4 )
memory 2 gb

molecule MOL {
0 1

H	 2.614283	 2.028610	 0.296620
O	 3.358864	 1.662087	 -0.142800
C	 3.565468	 0.338079	 0.273842
C	 2.901384	 0.009829	 1.602726
H	 3.145756	 -0.285292	 -0.504123
H	 4.630083	 0.117753	 0.323849
C	 3.476165	 0.770067	 2.795836
H	 1.838170	 0.213302	 1.517095
H	 3.005596	 -1.059027	 1.773264
C	 2.807521	 0.390533	 4.116330
H	 3.366058	 1.836304	 2.628449
H	 4.544513	 0.573156	 2.867573
C	 3.394476	 1.067842	 5.356085
H	 1.744955	 0.612891	 4.055191
H	 2.883674	 -0.685651	 4.244772
C	 3.177283	 2.578093	 5.431677
H	 2.950986	 0.610733	 6.236367
H	 4.459704	 0.854603	 5.410597
C	 3.692355	 3.191318	 6.731317
H	 2.115408	 2.792339	 5.331729
H	 3.666577	 3.068311	 4.595447
C	 3.480471	 4.699643	 6.808469
H	 3.197763	 2.715024	 7.573398
H	 4.751293	 2.970919	 6.836843
H	 2.427322	 4.950995	 6.738196
H	 3.854283	 5.101802	 7.743156
H	 3.994837	 5.209384	 6.000419

	symmetry c1
}
set optking {
	frozen_dihedral = ("
		4 3 2 1
	")
}

ee,wfn = optimize('scf', return_wfn=True)
oeprop( wfn, 'DIPOLE', 'QUADRUPOLE', 'MULLIKEN_CHARGES')
f=open( 'psi4out.xyz', 'w' )
f.write( "27  " )
f.write( str(ee) + "\n" )
f.write( MOL.save_string_xyz() )
f.close()
--------------------------------------------------------------------------

    Molecular point group: c1
  Charge       = 0
  Multiplicity = 1
  Basis Set: CC-PVTZ
  Basis Set:
  @DF-RHF Final Energy:  -388.42520369036237
    Total Energy =                       -388.4252036903616272
    Molecular point group: c1
  Basis Set: CC-PVTZ
  Basis Set:
  Basis Set: CC-PVTZ
  Basis Set:
  @DF-RHF Final Energy:  -388.42587621353340
    Total Energy =                       -388.4258762135331153
  Basis Set: CC-PVTZ
  Basis Set:
  Basis Set: CC-PVTZ
  Basis Set:
  @DF-RHF Final Energy:  -388.42617702881751
    Total Energy =                       -388.4261770288177331
  Basis Set: CC-PVTZ
  Basis Set:
  Basis Set: CC-PVTZ
  Basis Set:
  @DF-RHF Final Energy:  -388.42618668691085
    Total Energy =                       -388.4261866869110236
  Basis Set: CC-PVTZ
  Basis Set:
  Basis Set: CC-PVTZ
  Basis Set:
  @DF-RHF Final Energy:  -388.42618857269281
    Total Energy =                       -388.4261885726928085
  Basis Set: CC-PVTZ
  Basis Set:
  Charge       = 0
  Multiplicity = 1
  Basis Set: CC-PVTZ
  Basis Set:

    Orbital Energies (a.u.)
    -----------------------

    Doubly Occupied:

       1A    -20.543503     2A    -11.264597     3A    -11.221002
       4A    -11.216209     5A    -11.215419     6A    -11.213428
       7A    -11.213270     8A    -11.211530     9A    -11.206706
      10A     -1.361725    11A     -1.096793    12A     -1.063448
      13A     -1.013304    14A     -0.948964    15A     -0.888549
      16A     -0.825968    17A     -0.804950    18A     -0.779433
      19A     -0.665471    20A     -0.655342    21A     -0.647692
      22A     -0.629642    23A     -0.607571    24A     -0.585836
      25A     -0.574219    26A     -0.564469    27A     -0.539052
      28A     -0.524884    29A     -0.512156    30A     -0.489677
      31A     -0.486157    32A     -0.478672    33A     -0.467151
      34A     -0.460446    35A     -0.449521    36A     -0.446432
      37A     -0.425667

  @DF-RHF Final Energy:  -388.42618897819995

   => Energetics <=

    Nuclear Repulsion Energy =            460.3874020351224203
    One-Electron Energy =               -1439.0294699334090183
    Two-Electron Energy =                 590.2158789200869933
    DFT Exchange-Correlation Energy =       0.0000000000000000
    Empirical Dispersion Energy =           0.0000000000000000
    PCM Polarization Energy =               0.0000000000000000
    EFP Energy =                            0.0000000000000000
    Total Energy =                       -388.4261889781995478
    Molecular point group: c1
  Basis Set: CC-PVTZ
  Basis Set:

  -Total Gradient:
     Atom            X                  Y                   Z
    ------   -----------------  -----------------  -----------------
       1        0.001340771319     0.000722239318     0.001434484920
       2       -0.002144564265    -0.001083502067    -0.002029022084
       3        0.001896556008     0.000786009716     0.001194386324
       4       -0.001078945132    -0.000415723853    -0.000621063045
       5        0.000005605161     0.000007362732     0.000028729050
       6       -0.000028836236    -0.000012235201     0.000018262630
       7       -0.000002157566    -0.000009753351    -0.000000701708
       8        0.000025131667     0.000008503712    -0.000020080576
       9       -0.000014834402     0.000002575769     0.000009002237
      10       -0.000011112160     0.000015740692     0.000004675893
      11       -0.000017294212    -0.000034714424    -0.000024386639
      12        0.000011686768     0.000002593672     0.000000829206
      13        0.000021569338     0.000001520074    -0.000013413126
      14        0.000007074668     0.000008962395    -0.000010047075
      15       -0.000010668583     0.000003915697     0.000009308480
      16        0.000007913240     0.000003717269    -0.000001597669
      17        0.000009928737    -0.000005942091    -0.000004632631
      18       -0.000000138307     0.000007123395    -0.000009364251
      19       -0.000011687188    -0.000005782734     0.000009039649
      20        0.000000671326     0.000001485435    -0.000007538196
      21       -0.000002716005    -0.000003795062     0.000033704569
      22       -0.000002970731    -0.000000637161    -0.000001538072
      23        0.000003890149     0.000001736578     0.000002073897
      24       -0.000007092691     0.000001746349    -0.000003731593
      25        0.000005175122    -0.000000790204     0.000000403670
      26       -0.000000525331     0.000000006289    -0.000000230966
      27       -0.000002430694    -0.000002362943     0.000002447109

  **** Optimization is complete! (in 6 steps) ****
    Final optimized geometry and variables:
    Molecular point group: c1

    Geometry (in Angstrom), charge = 0, multiplicity = 1:

    H           -0.843536179858     0.293931143581    -3.274597834289
    O           -0.100142966987    -0.045698895322    -3.736414534540
    C            0.183592078537    -1.355617101389    -3.314388547181
    C           -0.411084090923    -1.705576770603    -1.959504263478
    H           -0.186817635261    -2.055665635249    -4.057565593367
    H            1.262669137992    -1.454256204790    -3.285813139800
    C            0.163517244416    -0.901489165596    -0.794462209375
    H           -1.491108665072    -1.572237235980    -2.005315913616
    H           -0.246625605720    -2.764937835593    -1.784568320936
    C           -0.478226645352    -1.260359095858     0.544627892623
    H            0.044799319694     0.157610206666    -0.992241453526
    H            1.234701375022    -1.079613064826    -0.738854781050
    C            0.127187232842    -0.553429461238     1.758714665910
    H           -1.544091460257    -1.047469945510     0.501419490444
    H           -0.391853270277    -2.333265235048     0.693795123032
    C           -0.098555653386     0.956673195839     1.805286717576
    H           -0.296294152970    -0.994212919089     2.656945666761
    H            1.194489601807    -0.758584205533     1.796701579063
    C            0.438813393445     1.601936069779     3.080058296431
    H           -1.164000341854     1.161643736567     1.723518921127
    H            0.370008075623     1.430811765977     0.948486543448
    C            0.217515995854     3.110040915804     3.128329967948
    H           -0.034232610228     1.140938215730     3.942807083507
    H            1.501278716167     1.391466133444     3.167513956770
    H           -0.838810241426     3.352475191108     3.076338995993
    H            0.609044733912     3.535616344942     4.045175127484
    H            0.709907191267     3.604835271395     2.297767895424

  Mulliken Charges: (a.u.)
   Center  Symbol    Alpha    Beta     Spin     Total
       1     H     0.39258  0.39258  0.00000  0.21484
       2     O     4.20752  4.20752  0.00000 -0.41503
       3     C     2.95775  2.95775  0.00000  0.08450
       4     C     3.11550  3.11550  0.00000 -0.23100
       5     H     0.46394  0.46394  0.00000  0.07213
       6     H     0.46783  0.46783  0.00000  0.06435
       7     C     3.09055  3.09055  0.00000 -0.18111
       8     H     0.45452  0.45452  0.00000  0.09096
       9     H     0.44920  0.44920  0.00000  0.10160
      10     C     3.09914  3.09914  0.00000 -0.19828
      11     H     0.45035  0.45035  0.00000  0.09929
      12     H     0.45221  0.45221  0.00000  0.09558
      13     C     3.09779  3.09779  0.00000 -0.19558
      14     H     0.45368  0.45368  0.00000  0.09264
      15     H     0.44807  0.44807  0.00000  0.10386
      16     C     3.08898  3.08898  0.00000 -0.17795
      17     H     0.44813  0.44813  0.00000  0.10373
      18     H     0.45307  0.45307  0.00000  0.09386
      19     C     3.08404  3.08404  0.00000 -0.16808
      20     H     0.45584  0.45584  0.00000  0.08833
      21     H     0.45243  0.45243  0.00000  0.09515
      22     C     3.14977  3.14977  0.00000 -0.29953
      23     H     0.45409  0.45409  0.00000  0.09182
      24     H     0.45430  0.45430  0.00000  0.09140
      25     H     0.45549  0.45549  0.00000  0.08902
      26     H     0.44832  0.44832  0.00000  0.10335
      27     H     0.45492  0.45492  0.00000  0.09017

   Total alpha = 37.00000, Total beta = 37.00000, Total charge = -0.00000

*** Psi4 exiting successfully. Buy a developer a beer!
