  ==> Input File <==

--------------------------------------------------------------------------
set {
	reference rhf
	basis 6-31G*
}

set_num_threads( 1 )
memory 2 gb

molecule MOL {
0 1

H	 -3.420663	 1.227371	 -1.044276
O	 -3.452007	 0.283848	 -0.965577
C	 -3.181085	 -0.079926	 0.364119
C	 -1.765924	 0.277073	 0.805136
H	 -3.327791	 -1.152017	 0.410903
H	 -3.905698	 0.375695	 1.036898
C	 -0.677594	 -0.417312	 -0.014550
H	 -1.637766	 1.358238	 0.744969
H	 -1.659588	 0.017670	 1.857098
C	 0.738335	 -0.034840	 0.421385
H	 -0.814977	 -0.178223	 -1.064632
H	 -0.802730	 -1.495410	 0.071702
C	 1.822265	 -0.738362	 -0.399735
H	 0.853533	 1.043532	 0.342250
H	 0.871597	 -0.279636	 1.474438
C	 2.726636	 -1.679586	 0.404233
H	 2.436742	 0.008961	 -0.899355
H	 1.342486	 -1.312516	 -1.189657
C	 3.610640	 -0.981624	 1.439506
H	 3.364876	 -2.220293	 -0.290444
H	 2.114303	 -2.430432	 0.899694
H	 4.225793	 -0.215927	 0.974281
H	 4.276439	 -1.692228	 1.919706
H	 3.025294	 -0.506790	 2.219933

	symmetry c1
}
set optking {
	frozen_dihedral = ("
		20 16 13 17,
		13 10 7 11,
		11 7 4 3,
		1 2 3 5,
		7 4 3 2
	")
}

ee = energy('scf')
oeprop('DIPOLE', 'QUADRUPOLE', 'MULLIKEN_CHARGES')
f=open( 'psi4out.xyz', 'w' )
f.write( "24  " )
f.write( str(ee) + "\n" )
f.write( MOL.save_string_xyz() )
f.close()
--------------------------------------------------------------------------

    Molecular point group: c1

    Geometry (in Angstrom), charge = 0, multiplicity = 1:

       Center              X                  Y                   Z               Mass
    ------------   -----------------  -----------------  -----------------  -----------------
           H         -3.343681410531     1.630618246178    -1.288150340664     1.007825032070
           O         -3.375025410531     0.687095246178    -1.209451340664    15.994914619560
           C         -3.104103410531     0.323321246178     0.120244659336    12.000000000000
           C         -1.688942410531     0.680320246178     0.561261659336    12.000000000000
           H         -3.250809410531    -0.748769753822     0.167028659336     1.007825032070
           H         -3.828716410531     0.778942246178     0.793023659336     1.007825032070
           C         -0.600612410531    -0.014064753822    -0.258424340664    12.000000000000
           H         -1.560784410531     1.761485246178     0.501094659336     1.007825032070
           H         -1.582606410531     0.420917246178     1.613223659336     1.007825032070
           C          0.815316589469     0.368407246178     0.177510659336    12.000000000000
           H         -0.737995410531     0.225024246178    -1.308506340664     1.007825032070
           H         -0.725748410531    -1.092162753822    -0.172172340664     1.007825032070
           C          1.899246589469    -0.335114753822    -0.643609340664    12.000000000000
           H          0.930514589469     1.446779246178     0.098375659336     1.007825032070
           H          0.948578589469     0.123611246178     1.230563659336     1.007825032070
           C          2.803617589469    -1.276338753822     0.160358659336    12.000000000000
           H          2.513723589469     0.412208246178    -1.143229340664     1.007825032070
           H          1.419467589469    -0.909268753822    -1.433531340664     1.007825032070
           C          3.687621589469    -0.578376753822     1.195631659336    12.000000000000
           H          3.441857589469    -1.817045753822    -0.534318340664     1.007825032070
           H          2.191284589469    -2.027184753822     0.655819659336     1.007825032070
           H          4.302774589469     0.187320246178     0.730406659336     1.007825032070
           H          4.353420589469    -1.288980753822     1.675831659336     1.007825032070
           H          3.102275589469    -0.103542753822     1.976058659336     1.007825032070

  Charge       = 0
  Multiplicity = 1
  Basis Set: 6-31G*
  Basis Set:

    Orbital Energies (a.u.)
    -----------------------

    Doubly Occupied:

       1A    -20.553499     2A    -11.267604     3A    -11.216953
       4A    -11.214252     5A    -11.211578     6A    -11.210803
       7A    -11.209923     8A    -11.207452     9A     -1.360095
      10A     -1.088895    11A     -1.047790    12A     -0.985298
      13A     -0.914529    14A     -0.851245    15A     -0.803861
      16A     -0.772799    17A     -0.679883    18A     -0.651099
      19A     -0.626858    20A     -0.617484    21A     -0.600202
      22A     -0.583871    23A     -0.553714    24A     -0.545133
      25A     -0.517918    26A     -0.505700    27A     -0.498278
      28A     -0.476873    29A     -0.467580    30A     -0.458311
      31A     -0.451992    32A     -0.447858    33A     -0.418806

  @DF-RHF Final Energy:  -349.24214182546399

   => Energetics <=

    Nuclear Repulsion Energy =            385.7091717281959404
    One-Electron Energy =               -1237.8663112700219244
    Two-Electron Energy =                 502.9149977163623362
    DFT Exchange-Correlation Energy =       0.0000000000000000
    Empirical Dispersion Energy =           0.0000000000000000
    PCM Polarization Energy =               0.0000000000000000
    EFP Energy =                            0.0000000000000000
    Total Energy =                       -349.2421418254635910

  Mulliken Charges: (a.u.)
   Center  Symbol    Alpha    Beta     Spin     Total
       1     H     0.28338  0.28338  0.00000  0.43324
       2     O     4.36833  4.36833  0.00000 -0.73666
       3     C     2.99614  2.99614  0.00000  0.00772
       4     C     3.16946  3.16946  0.00000 -0.33893
       5     H     0.41646  0.41646  0.00000  0.16708
       6     H     0.42826  0.42826  0.00000  0.14348
       7     C     3.15477  3.15477  0.00000 -0.30954
       8     H     0.42827  0.42827  0.00000  0.14345
       9     H     0.42241  0.42241  0.00000  0.15518
      10     C     3.15457  3.15457  0.00000 -0.30913
      11     H     0.41151  0.41151  0.00000  0.17699
      12     H     0.42341  0.42341  0.00000  0.15318
      13     C     3.15626  3.15626  0.00000 -0.31251
      14     H     0.42212  0.42212  0.00000  0.15575
      15     H     0.42228  0.42228  0.00000  0.15544
      16     C     3.15396  3.15396  0.00000 -0.30792
      17     H     0.42224  0.42224  0.00000  0.15552
      18     H     0.41799  0.41799  0.00000  0.16401
      19     C     3.24038  3.24038  0.00000 -0.48077
      20     H     0.42154  0.42154  0.00000  0.15691
      21     H     0.42391  0.42391  0.00000  0.15217
      22     H     0.42225  0.42225  0.00000  0.15549
      23     H     0.41949  0.41949  0.00000  0.16102
      24     H     0.42059  0.42059  0.00000  0.15882

   Total alpha = 33.00000, Total beta = 33.00000, Total charge = -0.00000
