  ==> Input File <==

--------------------------------------------------------------------------
set {
	reference rhf
	basis 6-31G*
}

set_num_threads( 4 )
memory 2 gb

molecule MOL {
0 1

H	 -2.798360	 -0.862255	 -0.071053
N	 -1.863561	 -0.715187	 0.256814
C	 -1.344686	 0.554728	 -0.219830
H	 -1.300452	 -1.461917	 -0.101532
C	 0.081427	 0.741154	 0.254071
H	 -1.362155	 0.656231	 -1.305829
H	 -1.952773	 1.354456	 0.191809
O	 0.874168	 -0.245412	 -0.342030
H	 0.444037	 1.730782	 -0.023037
H	 0.121165	 0.653424	 1.337565
C	 0.233768	 -0.968834	 -1.344088
H	 0.938259	 -1.695430	 -1.725464
H	 -0.639103	 -1.493836	 -0.960095
H	 -0.083424	 -0.322772	 -2.160055

	symmetry c1
}
set optking {
	frozen_dihedral = ("
		11 8 5 3
	")
}

ee = optimize('scf')
oeprop('DIPOLE', 'QUADRUPOLE', 'MULLIKEN_CHARGES')
f=open( 'psi4out.xyz', 'w' )
f.write( "14  " )
f.write( str(ee) + "\n" )
f.write( MOL.save_string_xyz() )
f.close()
--------------------------------------------------------------------------

    Molecular point group: c1
  Charge       = 0
  Multiplicity = 1
  Basis Set: 6-31G*
  Basis Set:
  @DF-RHF Final Energy:  -248.05337877086149
    Total Energy =                       -248.0533787708615705
    Molecular point group: c1
  Basis Set: 6-31G*
  Basis Set:
  Basis Set: 6-31G*
  Basis Set:
  @DF-RHF Final Energy:  -248.09387633124462
    Total Energy =                       -248.0938763312445872
  Basis Set: 6-31G*
  Basis Set:
  Basis Set: 6-31G*
  Basis Set:
  @DF-RHF Final Energy:  -248.10588167743788
    Total Energy =                       -248.1058816774378784
  Basis Set: 6-31G*
  Basis Set:
  Basis Set: 6-31G*
  Basis Set:
  @DF-RHF Final Energy:  -248.10839244612507
    Total Energy =                       -248.1083924461250945
  Basis Set: 6-31G*
  Basis Set:
  @DF-RHF Final Energy:  -248.10953802693575
    Total Energy =                       -248.1095380269355246
  @DF-RHF Final Energy:  -248.10986171671445
    Total Energy =                       -248.1098617167143630
  @DF-RHF Final Energy:  -248.11007580651716
    Total Energy =                       -248.1100758065171590
  @DF-RHF Final Energy:  -248.11018660035629
    Total Energy =                       -248.1101866003565419
  Basis Set: 6-31G*
  Basis Set:
  @DF-RHF Final Energy:  -248.11026393617641
    Total Energy =                       -248.1102639361765227
  Basis Set: 6-31G*
  Basis Set:
  Basis Set: 6-31G*
  Basis Set:
  @DF-RHF Final Energy:  -248.11029628358631
    Total Energy =                       -248.1102962835860808
  Basis Set: 6-31G*
  Basis Set:
  Basis Set: 6-31G*
  Basis Set:
  @DF-RHF Final Energy:  -248.11030037574267
    Total Energy =                       -248.1103003757425540
  Basis Set: 6-31G*
  Basis Set:
  Charge       = 0
  Multiplicity = 1
  Basis Set: 6-31G*
  Basis Set:

    Orbital Energies (a.u.)
    -----------------------

    Doubly Occupied:

       1A    -20.549620     2A    -15.540800     3A    -11.268487
       4A    -11.265969     5A    -11.250802     6A     -1.369357
       7A     -1.183178     8A     -1.001903     9A     -0.924894
      10A     -0.806324    11A     -0.686767    12A     -0.675974
      13A     -0.645404    14A     -0.612360    15A     -0.607120
      16A     -0.550281    17A     -0.538127    18A     -0.521911
      19A     -0.450830    20A     -0.407064    21A     -0.389876

  @DF-RHF Final Energy:  -248.11030066145446

   => Energetics <=

    Nuclear Repulsion Energy =            196.3958795955057894
    One-Electron Energy =                -726.5182674207436548
    Two-Electron Energy =                 282.0120871637833488
    DFT Exchange-Correlation Energy =       0.0000000000000000
    Empirical Dispersion Energy =           0.0000000000000000
    PCM Polarization Energy =               0.0000000000000000
    EFP Energy =                            0.0000000000000000
    Total Energy =                       -248.1103006614545166
    Molecular point group: c1
  Basis Set: 6-31G*
  Basis Set:

  -Total Gradient:
     Atom            X                  Y                   Z
    ------   -----------------  -----------------  -----------------
       1       -0.000005988916    -0.000009283743    -0.000000972528
       2        0.000016322662     0.000023275643    -0.000002617615
       3        0.000541767890     0.002423780088    -0.002616455364
       4       -0.000000810872     0.000018273957    -0.000006210860
       5       -0.001378277284    -0.005216978495     0.005200704594
       6       -0.000006396625     0.000000611091     0.000015839509
       7       -0.000015900066    -0.000014338006     0.000011935293
       8        0.001955218065     0.005800457304    -0.005141991312
       9        0.000002130482     0.000000928875     0.000001503255
      10        0.000009992784    -0.000010213416    -0.000006210511
      11       -0.001142673548    -0.003031082550     0.002564558160
      12        0.000005011458    -0.000004256450    -0.000020411610
      13        0.000007815914     0.000011654074    -0.000013860150
      14        0.000011788059     0.000007171628     0.000014189139

  **** Optimization is complete! (in 12 steps) ****
    Final optimized geometry and variables:
    Molecular point group: c1

    Geometry (in Angstrom), charge = 0, multiplicity = 1:

    H           -2.671036265742    -0.422495288895     0.564747618931
    N           -1.696229016760    -0.408855140348     0.793740889416
    C           -1.023262051223     0.700434128076     0.134276153023
    H           -1.315266507735    -1.292064676167     0.519243479370
    C            0.451655885252     0.782443419523     0.510399121078
    H           -1.138029116423     0.708629514013    -0.949299261874
    H           -1.482568451715     1.613611916199     0.498204707748
    O            1.353437174469    -0.092130309891    -0.131444919286
    H            0.790222511882     1.794203375406     0.302299477528
    H            0.545395094107     0.611692784750     1.575167627900
    C            0.966330048505    -0.862678786719    -1.222345802365
    H            1.826149017648    -1.460301255808    -1.493217876871
    H            0.144657136510    -1.536646289515    -0.998579506067
    H            0.688536904973    -0.258279071339    -2.082729934572

  Mulliken Charges: (a.u.)
   Center  Symbol    Alpha    Beta     Spin     Total
       1     H     0.33082  0.33082  0.00000  0.33836
       2     N     3.92400  3.92400  0.00000 -0.84800
       3     C     3.09162  3.09162  0.00000 -0.18324
       4     H     0.32714  0.32714  0.00000  0.34573
       5     C     2.98036  2.98036  0.00000  0.03928
       6     H     0.42668  0.42668  0.00000  0.14664
       7     H     0.41285  0.41285  0.00000  0.17430
       8     O     4.31527  4.31527  0.00000 -0.63053
       9     H     0.42594  0.42594  0.00000  0.14813
      10     H     0.41043  0.41043  0.00000  0.17913
      11     C     3.07647  3.07647  0.00000 -0.15294
      12     H     0.40998  0.40998  0.00000  0.18003
      13     H     0.43895  0.43895  0.00000  0.12210
      14     H     0.42949  0.42949  0.00000  0.14102

   Total alpha = 21.00000, Total beta = 21.00000, Total charge = -0.00000
