  ==> Input File <==

--------------------------------------------------------------------------
set {
	reference rhf
	basis 6-31G*
}

set_num_threads( 4 )
memory 2 gb

molecule MOL {
0 1

O	 1.617080	 1.024438	 -0.759799
C	 1.705091	 0.115954	 0.001797
C	 0.704308	 -0.228310	 1.077800
O	 2.721346	 -0.737485	 -0.000216
C	 -0.488237	 0.722179	 1.123085
H	 0.384921	 -1.252990	 0.908279
H	 1.236481	 -0.237771	 2.025123
C	 -1.485893	 0.349782	 2.220840
H	 -0.984157	 0.719909	 0.157556
H	 -0.131916	 1.735964	 1.276659
C	 -2.689092	 1.292480	 2.279934
H	 -1.836756	 -0.669075	 2.063292
H	 -0.982017	 0.351498	 3.186235
C	 -3.684957	 0.920610	 3.377757
H	 -3.195056	 1.289945	 1.317056
H	 -2.340280	 2.310535	 2.438148
H	 -4.078524	 -0.080794	 3.227725
H	 -4.525851	 1.606955	 3.394426
H	 -3.216781	 0.947467	 4.357757
C	 4.024888	 -0.184556	 -0.001949
H	 4.179030	 0.422472	 -0.882452
H	 4.701782	 -1.024608	 -0.003642
H	 4.181981	 0.421185	 0.878906

	symmetry c1
}
set optking {
	frozen_dihedral = ("
		1 2 4 20
	")
}

ee = optimize('scf')
oeprop('DIPOLE', 'QUADRUPOLE', 'MULLIKEN_CHARGES')
f=open( 'psi4out.xyz', 'w' )
f.write( "23  " )
f.write( str(ee) + "\n" )
f.write( MOL.save_string_xyz() )
f.close()
--------------------------------------------------------------------------

    Molecular point group: c1
  Charge       = 0
  Multiplicity = 1
  Basis Set: 6-31G*
  Basis Set:
  @DF-RHF Final Energy:  -422.96443286749439
    Total Energy =                       -422.9644328674949065
    Molecular point group: c1
  Basis Set: 6-31G*
  Basis Set:
  Basis Set: 6-31G*
  Basis Set:
  @DF-RHF Final Energy:  -422.96189616875529
    Total Energy =                       -422.9618961687548335
  Basis Set: 6-31G*
  Basis Set:
  Basis Set: 6-31G*
  Basis Set:
  @DF-RHF Final Energy:  -422.96518444377045
    Total Energy =                       -422.9651844437707950
  Basis Set: 6-31G*
  Basis Set:
  Basis Set: 6-31G*
  Basis Set:
  @DF-RHF Final Energy:  -422.96526053198971
    Total Energy =                       -422.9652605319901113
  Basis Set: 6-31G*
  Basis Set:
  Basis Set: 6-31G*
  Basis Set:
  @DF-RHF Final Energy:  -422.96526774011016
    Total Energy =                       -422.9652677401099936
  Basis Set: 6-31G*
  Basis Set:
  Charge       = 0
  Multiplicity = 1
  Basis Set: 6-31G*
  Basis Set:

    Orbital Energies (a.u.)
    -----------------------

    Doubly Occupied:

       1A    -20.592644     2A    -20.551644     3A    -11.374011
       4A    -11.285573     5A    -11.236592     6A    -11.219955
       7A    -11.218566     8A    -11.216984     9A    -11.210078
      10A     -1.462195    11A     -1.364773    12A     -1.093532
      13A     -1.042623    14A     -0.984345    15A     -0.935494
      16A     -0.846233    17A     -0.795699    18A     -0.765254
      19A     -0.696128    20A     -0.678913    21A     -0.672355
      22A     -0.650055    23A     -0.611408    24A     -0.604283
      25A     -0.575826    26A     -0.566750    27A     -0.553377
      28A     -0.530351    29A     -0.510466    30A     -0.508004
      31A     -0.485457    32A     -0.471046    33A     -0.467520
      34A     -0.465607    35A     -0.451652    36A     -0.432021

  @DF-RHF Final Energy:  -422.96526865729578

   => Energetics <=

    Nuclear Repulsion Energy =            451.6232125969941649
    One-Electron Energy =               -1470.9221419404802873
    Two-Electron Energy =                 596.3336606861905693
    DFT Exchange-Correlation Energy =       0.0000000000000000
    Empirical Dispersion Energy =           0.0000000000000000
    PCM Polarization Energy =               0.0000000000000000
    EFP Energy =                            0.0000000000000000
    Total Energy =                       -422.9652686572956100
    Molecular point group: c1
  Basis Set: 6-31G*
  Basis Set:

  -Total Gradient:
     Atom            X                  Y                   Z
    ------   -----------------  -----------------  -----------------
       1       -0.005506481596    -0.005400240529    -0.005871999827
       2        0.008324149873     0.008023471419     0.012367034896
       3        0.000058200391     0.000037784504    -0.000001149838
       4       -0.003350734599    -0.002569832040    -0.014065748024
       5       -0.000020143132    -0.000032825365    -0.000012748820
       6       -0.000015517449     0.000000852126    -0.000021267683
       7        0.000000258977    -0.000022741771    -0.000009812719
       8       -0.000011670696     0.000004548063     0.000005198407
       9        0.000004752738    -0.000006265685    -0.000004066496
      10       -0.000008171426     0.000003903626     0.000000919234
      11        0.000006980560     0.000015044411     0.000013112144
      12       -0.000006722444     0.000000526911    -0.000004886271
      13        0.000005289617    -0.000005045734    -0.000004419314
      14        0.000004191063    -0.000005593163    -0.000002750235
      15        0.000003216788    -0.000001685057     0.000001604493
      16        0.000000220448     0.000005664967     0.000001027617
      17        0.000000502959    -0.000002824799     0.000002005159
      18        0.000002001055    -0.000001215309    -0.000004908837
      19       -0.000000669712     0.000002844745     0.000000223672
      20        0.000494741890    -0.000026288135     0.007606237449
      21        0.000005548050    -0.000010442227     0.000005767931
      22       -0.000002776687    -0.000002522215    -0.000001345474
      23        0.000012833323    -0.000007118744     0.000001972540

  **** Optimization is complete! (in 6 steps) ****
    Final optimized geometry and variables:
    Molecular point group: c1

    Geometry (in Angstrom), charge = 0, multiplicity = 1:

    O            1.348872054556     0.722400769103    -1.714652895450
    C            1.431768866980    -0.190637037784    -0.963642623209
    C            0.418700267403    -0.541802840939     0.096467281733
    O            2.410143871138    -1.106799865732    -1.036110386723
    C           -0.801854694190     0.372693449759     0.108692242575
    H            0.136800655800    -1.579308666258    -0.060933457307
    H            0.935583232263    -0.522458556460     1.053589407298
    C           -1.804366081458    -0.009275063214     1.198721106411
    H           -1.283073467453     0.337413779881    -0.863882455025
    H           -0.478461383807     1.399531673502     0.248008493485
    C           -3.034016201598     0.900120813712     1.225288049756
    H           -2.124321096768    -1.040007756584     1.053643879269
    H           -1.314518704755     0.022676244807     2.170912176223
    C           -4.035416658369     0.517610197347     2.314388562453
    H           -3.525244784692     0.868184837561     0.255393259558
    H           -2.716156164268     1.929947672671     1.372105648270
    H           -4.397981724552    -0.497004998524     2.175258855624
    H           -4.895649168158     1.179663009947     2.307260672728
    H           -3.583203676148     0.573796501760     3.300630250824
    C            3.739430052835    -0.628591330440    -1.119850418910
    H            3.860073279754     0.033635487867    -1.964741215066
    H            4.368222581790    -1.497243025567    -1.238303101206
    H            4.007998090292    -0.110408886241    -0.206627410248

  Mulliken Charges: (a.u.)
   Center  Symbol    Alpha    Beta     Spin     Total
       1     O     4.26979  4.26979  0.00000 -0.53957
       2     C     2.60539  2.60539  0.00000  0.78923
       3     C     3.21141  3.21141  0.00000 -0.42282
       4     O     4.31389  4.31389  0.00000 -0.62778
       5     C     3.15295  3.15295  0.00000 -0.30590
       6     H     0.39822  0.39822  0.00000  0.20355
       7     H     0.40489  0.40489  0.00000  0.19023
       8     C     3.15320  3.15320  0.00000 -0.30641
       9     H     0.41140  0.41140  0.00000  0.17720
      10     H     0.41195  0.41195  0.00000  0.17610
      11     C     3.15158  3.15158  0.00000 -0.30316
      12     H     0.42355  0.42355  0.00000  0.15290
      13     H     0.42448  0.42448  0.00000  0.15104
      14     C     3.23960  3.23960  0.00000 -0.47920
      15     H     0.42106  0.42106  0.00000  0.15787
      16     H     0.42146  0.42146  0.00000  0.15709
      17     H     0.42165  0.42165  0.00000  0.15670
      18     H     0.41837  0.41837  0.00000  0.16325
      19     H     0.42197  0.42197  0.00000  0.15607
      20     C     3.09522  3.09522  0.00000 -0.19043
      21     H     0.40275  0.40275  0.00000  0.19449
      22     H     0.40591  0.40591  0.00000  0.18817
      23     H     0.41931  0.41931  0.00000  0.16138

   Total alpha = 36.00000, Total beta = 36.00000, Total charge = -0.00000
