                              Psi4 1.0.54 Driver

  ==> Input File <==

--------------------------------------------------------------------------
set {
	reference rhf
	basis cc-pvtz
}

set_num_threads( 4 )
memory 2 gb

molecule MOL {
0 1

H	 -4.025190	 0.838247	 -0.948979
O	 -3.391922	 0.160998	 -0.798979
C	 -2.168543	 0.722783	 -0.403809
C	 -1.175688	 -0.398187	 -0.171891
H	 -1.793685	 1.396930	 -1.171130
H	 -2.292784	 1.302148	 0.508732
C	 0.196029	 0.106276	 0.266738
H	 -1.085619	 -0.972604	 -1.088489
H	 -1.583624	 -1.069173	 0.577297
C	 1.330220	 -0.826136	 -0.155230
H	 0.359542	 1.097229	 -0.145561
H	 0.212134	 0.218135	 1.348778
C	 2.719700	 -0.407669	 0.328325
H	 1.339388	 -0.911200	 -1.239363
H	 1.119001	 -1.821953	 0.224128
C	 3.241564	 0.893452	 -0.276737
H	 3.418299	 -1.204729	 0.093035
H	 2.711776	 -0.323368	 1.411960
H	 3.254204	 0.841071	 -1.360784
H	 2.634460	 1.745075	 0.005842
H	 4.254264	 1.092401	 0.054971

	symmetry c1
}
set optking {
	frozen_dihedral = ("
		8 4 7 10
	")
}

ee,wfn = optimize('scf', return_wfn=True)
oeprop( wfn, 'DIPOLE', 'QUADRUPOLE', 'MULLIKEN_CHARGES')
f=open( 'psi4out.xyz', 'w' )
f.write( "21  " )
f.write( str(ee) + "\n" )
f.write( MOL.save_string_xyz() )
f.close()
--------------------------------------------------------------------------

    Molecular point group: c1
  Charge       = 0
  Multiplicity = 1
  Basis Set: CC-PVTZ
  Basis Set:
  @DF-RHF Final Energy:  -310.33073996616974
    Total Energy =                       -310.3307399661696877
    Molecular point group: c1
  Basis Set: CC-PVTZ
  Basis Set:
  Basis Set: CC-PVTZ
  Basis Set:
  @DF-RHF Final Energy:  -310.33090111361963
    Total Energy =                       -310.3309011136197455
  Basis Set: CC-PVTZ
  Basis Set:
  Basis Set: CC-PVTZ
  Basis Set:
  @DF-RHF Final Energy:  -310.33096551085845
    Total Energy =                       -310.3309655108581637
  Basis Set: CC-PVTZ
  Basis Set:
  Basis Set: CC-PVTZ
  Basis Set:
  @DF-RHF Final Energy:  -310.33096460879614
    Total Energy =                       -310.3309646087961937
  Basis Set: CC-PVTZ
  Basis Set:
  Basis Set: CC-PVTZ
  Basis Set:
  @DF-RHF Final Energy:  -310.33098151174971
    Total Energy =                       -310.3309815117501671
  Basis Set: CC-PVTZ
  Basis Set:
  Charge       = 0
  Multiplicity = 1
  Basis Set: CC-PVTZ
  Basis Set:

    Orbital Energies (a.u.)
    -----------------------

    Doubly Occupied:

       1A    -20.545599     2A    -11.265466     3A    -11.213178
       4A    -11.213031     5A    -11.211574     6A    -11.208717
       7A    -11.206280     8A     -1.363611     9A     -1.086926
      10A     -1.033984    11A     -0.955621    12A     -0.876634
      13A     -0.808950    14A     -0.779288    15A     -0.697188
      16A     -0.657387    17A     -0.627523    18A     -0.607374
      19A     -0.583825    20A     -0.578357    21A     -0.530885
      22A     -0.525668    23A     -0.512459    24A     -0.485428
      25A     -0.481376    26A     -0.460899    27A     -0.454886
      28A     -0.444607    29A     -0.436570

  @DF-RHF Final Energy:  -310.33098164944323

   => Energetics <=

    Nuclear Repulsion Energy =            313.1954889126829471
    One-Electron Energy =               -1041.3463529867451598
    Two-Electron Energy =                 417.8198824246191521
    DFT Exchange-Correlation Energy =       0.0000000000000000
    Empirical Dispersion Energy =           0.0000000000000000
    PCM Polarization Energy =               0.0000000000000000
    EFP Energy =                            0.0000000000000000
    Total Energy =                       -310.3309816494430038
    Molecular point group: c1
  Basis Set: CC-PVTZ
  Basis Set:

  -Total Gradient:
     Atom            X                  Y                   Z
    ------   -----------------  -----------------  -----------------
       1        0.000008830514     0.000004516531     0.000007771562
       2       -0.000014573917    -0.000025005370    -0.000009678980
       3        0.000042530188     0.000033266791     0.000009470356
       4       -0.000562471312     0.004320738076    -0.003538784643
       5       -0.000006264953     0.000002054053    -0.000010230176
       6       -0.000013120480    -0.000000579495     0.000002976299
       7       -0.000206696302    -0.002549656942     0.003813878191
       8        0.000515806531    -0.003078867419     0.002089117545
       9        0.000002314205    -0.000003785201     0.000006395028
      10        0.000233963926     0.001290315945    -0.002378914380
      11        0.000000436284     0.000000420031    -0.000003332956
      12        0.000005933855     0.000000470606     0.000007184730
      13       -0.000002370400    -0.000000749666     0.000010622157
      14       -0.000001090005     0.000001407797    -0.000000244937
      15        0.000000203960     0.000003396769     0.000000180492
      16       -0.000001378234     0.000005776125    -0.000004772263
      17       -0.000005591789    -0.000000131887     0.000000242995
      18       -0.000000374976    -0.000002322721     0.000000143238
      19        0.000000837219     0.000001151195    -0.000001781897
      20        0.000004571195    -0.000002299352    -0.000000444407
      21       -0.000001495511    -0.000000115865     0.000000202046

  **** Optimization is complete! (in 6 steps) ****
    Final optimized geometry and variables:
    Molecular point group: c1

    Geometry (in Angstrom), charge = 0, multiplicity = 1:

    H           -4.105876145842     0.746750634782    -0.677298714440
    O           -3.463725231125     0.076901196323    -0.532100578057
    C           -2.221998844805     0.655218848228    -0.231334025096
    C           -1.211384245537    -0.450918489762    -0.013879703094
    H           -1.894076077976     1.299240878647    -1.044592959956
    H           -2.293941556091     1.270136390703     0.663881961169
    C            0.166977973089     0.068956300912     0.406724397815
    H           -1.131518493482    -1.051799687902    -0.913739396342
    H           -1.599542280066    -1.120716509039     0.746913959444
    C            1.302472252158    -0.872343295093     0.008018282567
    H            0.337088414052     1.039422206555    -0.050892163208
    H            0.184895203706     0.234421020457     1.480166137529
    C            2.684792539393    -0.468188183847     0.522261596000
    H            1.330655293075    -0.950742225132    -1.075966829084
    H            1.076152239244    -1.869341875246     0.377034572082
    C            3.220843040030     0.842003211704    -0.049970669649
    H            3.384578586080    -1.263435840966     0.284410547650
    H            2.658660064514    -0.403296376503     1.606856816513
    H            3.248124090056     0.811036337787    -1.134617846334
    H            2.613681123204     1.690639494712     0.241311688175
    H            4.229773579392     1.029478201752     0.299315196834

  Mulliken Charges: (a.u.)
   Center  Symbol    Alpha    Beta     Spin     Total
       1     H     0.39750  0.39750  0.00000  0.20501
       2     O     4.19451  4.19451  0.00000 -0.38901
       3     C     2.96248  2.96248  0.00000  0.07504
       4     C     3.08452  3.08452  0.00000 -0.16904
       5     H     0.47509  0.47509  0.00000  0.04982
       6     H     0.47447  0.47447  0.00000  0.05105
       7     C     3.10504  3.10504  0.00000 -0.21008
       8     H     0.45157  0.45157  0.00000  0.09685
       9     H     0.44960  0.44960  0.00000  0.10079
      10     C     3.09429  3.09429  0.00000 -0.18857
      11     H     0.45638  0.45638  0.00000  0.08724
      12     H     0.45168  0.45168  0.00000  0.09665
      13     C     3.08994  3.08994  0.00000 -0.17988
      14     H     0.45337  0.45337  0.00000  0.09326
      15     H     0.44835  0.44835  0.00000  0.10330
      16     C     3.15302  3.15302  0.00000 -0.30605
      17     H     0.44855  0.44855  0.00000  0.10291
      18     H     0.45467  0.45467  0.00000  0.09066
      19     H     0.45481  0.45481  0.00000  0.09039
      20     H     0.45398  0.45398  0.00000  0.09204
      21     H     0.44620  0.44620  0.00000  0.10761

   Total alpha = 29.00000, Total beta = 29.00000, Total charge =  0.00000

*** Psi4 exiting successfully. Buy a developer a beer!
