  ==> Input File <==

--------------------------------------------------------------------------
set {
	reference rhf
	basis cc-pvtz
}

set_num_threads( 4 )
memory 2 gb

molecule MOL {
0 1

H	 2.609167	 -0.669362	 -0.380975
O	 1.675515	 -0.612943	 -0.465627
C	 1.135873	 0.113391	 0.608264
C	 0.027642	 1.012027	 0.090274
H	 1.902972	 0.727968	 1.072615
H	 0.756163	 -0.561896	 1.370018
C	 -1.138737	 0.285728	 -0.581921
H	 0.464661	 1.708096	 -0.618252
H	 -0.340737	 1.603071	 0.925246
C	 -1.933983	 -0.631436	 0.343653
H	 -0.763151	 -0.285569	 -1.422081
H	 -1.808359	 1.035291	 -0.992333
H	 -2.789188	 -1.049673	 -0.174718
H	 -1.335629	 -1.461368	 0.700418
H	 -2.305435	 -0.092167	 1.209725

	symmetry c1
}
set optking {
	frozen_dihedral = ("
		1 2 3 4
	")
}

ee = optimize('scf')
oeprop('DIPOLE', 'QUADRUPOLE', 'MULLIKEN_CHARGES')
f=open( 'psi4out.xyz', 'w' )
f.write( "15  " )
f.write( str(ee) + "\n" )
f.write( MOL.save_string_xyz() )
f.close()
--------------------------------------------------------------------------

    Molecular point group: c1
  Charge       = 0
  Multiplicity = 1
  Basis Set: CC-PVTZ
  Basis Set:
  @DF-RHF Final Energy:  -232.23617747556699
    Total Energy =                       -232.2361774755668193
    Molecular point group: c1
  Basis Set: CC-PVTZ
  Basis Set:
  Basis Set: CC-PVTZ
  Basis Set:
  @DF-RHF Final Energy:  -232.23627449559848
    Total Energy =                       -232.2362744955986500
  Basis Set: CC-PVTZ
  Basis Set:
  Basis Set: CC-PVTZ
  Basis Set:
  @DF-RHF Final Energy:  -232.23629742256017
    Total Energy =                       -232.2362974225599714
  Basis Set: CC-PVTZ
  Basis Set:
  Basis Set: CC-PVTZ
  Basis Set:
  @DF-RHF Final Energy:  -232.23630181481875
    Total Energy =                       -232.2363018148188871
  Basis Set: CC-PVTZ
  Basis Set:
  Charge       = 0
  Multiplicity = 1
  Basis Set: CC-PVTZ
  Basis Set:

    Orbital Energies (a.u.)
    -----------------------

    Doubly Occupied:

       1A    -20.545484     2A    -11.265639     3A    -11.210642
       4A    -11.206990     5A    -11.201788     6A     -1.363052
       7A     -1.064933     8A     -0.970777     9A     -0.869807
      10A     -0.777365    11A     -0.704306    12A     -0.647288
      13A     -0.612431    14A     -0.572607    15A     -0.565404
      16A     -0.532556    17A     -0.510254    18A     -0.480233
      19A     -0.467084    20A     -0.452097    21A     -0.430152

  @DF-RHF Final Energy:  -232.23630370008857

   => Energetics <=

    Nuclear Repulsion Energy =            191.7981379942473268
    One-Electron Energy =                -695.1671146535136359
    Two-Electron Energy =                 271.1326729591777394
    DFT Exchange-Correlation Energy =       0.0000000000000000
    Empirical Dispersion Energy =           0.0000000000000000
    PCM Polarization Energy =               0.0000000000000000
    EFP Energy =                            0.0000000000000000
    Total Energy =                       -232.2363037000885697
    Molecular point group: c1
  Basis Set: CC-PVTZ
  Basis Set:

  -Total Gradient:
     Atom            X                  Y                   Z
    ------   -----------------  -----------------  -----------------
       1        0.000177371152     0.001195991490    -0.000799827088
       2        0.000053851928    -0.001222699546     0.000892834780
       3       -0.000785190513    -0.000643989491     0.000025801909
       4        0.000567500423     0.000623098638    -0.000131483494
       5        0.000024995665     0.000005841884    -0.000003029263
       6       -0.000036970019     0.000041765473     0.000019495584
       7        0.000005753172    -0.000000179248    -0.000027150516
       8        0.000001514054    -0.000025761533     0.000014739004
       9        0.000000701507     0.000021144619    -0.000000652376
      10        0.000000612794    -0.000000029681     0.000007744059
      11       -0.000003340718     0.000006618292    -0.000000447455
      12       -0.000000863537    -0.000001700425     0.000000331241
      13        0.000001119518     0.000001461052     0.000001982156
      14       -0.000005495713     0.000000093096    -0.000003222355
      15       -0.000001559712    -0.000001654623     0.000002883811

  **** Optimization is complete! (in 5 steps) ****
    Final optimized geometry and variables:
    Molecular point group: c1

    Geometry (in Angstrom), charge = 0, multiplicity = 1:

    H            2.595685860843    -0.706015292283    -0.379674978736
    O            1.662965036970    -0.644253106766    -0.453740426519
    C            1.134743379271     0.116124128187     0.605892757945
    C            0.022041426575     1.016458202185     0.096777585306
    H            1.908695356749     0.733444017690     1.052071243267
    H            0.768835516140    -0.548419928288     1.382112778909
    C           -1.139539738864     0.287020262308    -0.580597873016
    H            0.453779939296     1.720395980770    -0.607357579313
    H           -0.351274352192     1.597787405980     0.936926369874
    C           -1.930531430355    -0.638317269967     0.340491840186
    H           -0.758345229226    -0.279469813515    -1.421729144755
    H           -1.812514209426     1.033815351332    -0.990513229842
    H           -2.779959746296    -1.062964904093    -0.182087522185
    H           -1.325988802905    -1.463152451408     0.698149094556
    H           -2.310203302158    -0.103286529480     1.205618809013

  Mulliken Charges: (a.u.)
   Center  Symbol    Alpha    Beta     Spin     Total
       1     H     0.39303  0.39303  0.00000  0.21395
       2     O     4.20249  4.20249  0.00000 -0.40499
       3     C     2.97727  2.97727  0.00000  0.04545
       4     C     3.08920  3.08920  0.00000 -0.17839
       5     H     0.46371  0.46371  0.00000  0.07258
       6     H     0.46957  0.46957  0.00000  0.06086
       7     C     3.08878  3.08878  0.00000 -0.17755
       8     H     0.45186  0.45186  0.00000  0.09629
       9     H     0.45645  0.45645  0.00000  0.08709
      10     C     3.15437  3.15437  0.00000 -0.30874
      11     H     0.44670  0.44670  0.00000  0.10659
      12     H     0.45046  0.45046  0.00000  0.09908
      13     H     0.44694  0.44694  0.00000  0.10613
      14     H     0.45170  0.45170  0.00000  0.09660
      15     H     0.45747  0.45747  0.00000  0.08506

   Total alpha = 21.00000, Total beta = 21.00000, Total charge = -0.00000
