  ==> Input File <==

--------------------------------------------------------------------------
set {
	reference rhf
	basis 6-31G*
}

set_num_threads( 4 )
memory 2 gb

molecule MOL {
0 1

O	 -1.599401	 0.122117	 2.494262
C	 -0.691869	 0.822409	 2.161978
C	 0.577500	 0.227150	 1.578303
C	 -0.769456	 2.328731	 2.273103
C	 0.379448	 -0.143569	 0.099626
H	 0.813550	 -0.665858	 2.146740
H	 1.406810	 0.921479	 1.679189
C	 1.631333	 -0.777471	 -0.511575
H	 -0.464008	 -0.821253	 0.030991
H	 0.114647	 0.746551	 -0.468980
C	 2.915987	 -0.544314	 0.291766
H	 1.766672	 -0.399098	 -1.523130
H	 1.471257	 -1.849544	 -0.605828
C	 3.373361	 0.914346	 0.347591
H	 3.708709	 -1.142521	 -0.150311
H	 2.780642	 -0.921148	 1.303579
H	 3.506512	 1.320010	 -0.651625
H	 4.322697	 0.999599	 0.867103
H	 2.660624	 1.545032	 0.868198
H	 -0.049198	 2.678353	 3.008125
H	 -1.763818	 2.627007	 2.574865
H	 -0.514576	 2.797645	 1.327080

	symmetry c1
}
set optking {
	frozen_dihedral = ("
		3 5 8 12
	")
}

ee = optimize('scf')
oeprop('DIPOLE', 'QUADRUPOLE', 'MULLIKEN_CHARGES')
f=open( 'psi4out.xyz', 'w' )
f.write( "22  " )
f.write( str(ee) + "\n" )
f.write( MOL.save_string_xyz() )
f.close()
--------------------------------------------------------------------------

    Molecular point group: c1
  Charge       = 0
  Multiplicity = 1
  Basis Set: 6-31G*
  Basis Set:
  @DF-RHF Final Energy:  -348.07942816244957
    Total Energy =                       -348.0794281624492896
    Molecular point group: c1
  Basis Set: 6-31G*
  Basis Set:
  Basis Set: 6-31G*
  Basis Set:
  @DF-RHF Final Energy:  -348.08735446331235
    Total Energy =                       -348.0873544633122947
  Basis Set: 6-31G*
  Basis Set:
  Basis Set: 6-31G*
  Basis Set:
  @DF-RHF Final Energy:  -348.08882695892584
    Total Energy =                       -348.0888269589261199
  Basis Set: 6-31G*
  Basis Set:
  Basis Set: 6-31G*
  Basis Set:
  @DF-RHF Final Energy:  -348.08843909883683
    Total Energy =                       -348.0884390988367727
  Basis Set: 6-31G*
  Basis Set:
  @DF-RHF Final Energy:  -348.08832928979456
    Total Energy =                       -348.0883292897943306
  @DF-RHF Final Energy:  -348.08917539282731
    Total Energy =                       -348.0891753928277126
  @DF-RHF Final Energy:  -348.08804518303162
    Total Energy =                       -348.0880451830319657
  @DF-RHF Final Energy:  -348.08913131626531
    Total Energy =                       -348.0891313162658207
  Basis Set: 6-31G*
  Basis Set:
  @DF-RHF Final Energy:  -348.08916025515185
    Total Energy =                       -348.0891602551521942
  Basis Set: 6-31G*
  Basis Set:
  Basis Set: 6-31G*
  Basis Set:
  @DF-RHF Final Energy:  -348.08917211527131
    Total Energy =                       -348.0891721152711966
  Basis Set: 6-31G*
  Basis Set:
  Basis Set: 6-31G*
  Basis Set:
  @DF-RHF Final Energy:  -348.08920827422884
    Total Energy =                       -348.0892082742293496
  Basis Set: 6-31G*
  Basis Set:
  Charge       = 0
  Multiplicity = 1
  Basis Set: 6-31G*
  Basis Set:

    Orbital Energies (a.u.)
    -----------------------

    Doubly Occupied:

       1A    -20.547295     2A    -11.324496     3A    -11.230290
       4A    -11.228763     5A    -11.228374     6A    -11.223037
       7A    -11.221995     8A    -11.215913     9A     -1.393172
      10A     -1.093473    11A     -1.042401    12A     -0.998707
      13A     -0.943262    14A     -0.862422    15A     -0.779788
      16A     -0.733623    17A     -0.662599    18A     -0.653241
      19A     -0.621104    20A     -0.612382    21A     -0.604471
      22A     -0.578279    23A     -0.561551    24A     -0.551404
      25A     -0.534911    26A     -0.520254    27A     -0.508398
      28A     -0.490144    29A     -0.465560    30A     -0.458772
      31A     -0.455267    32A     -0.397132

  @DF-RHF Final Energy:  -348.08920848722528

   => Energetics <=

    Nuclear Repulsion Energy =            380.0543207690975578
    One-Electron Energy =               -1224.8020953112900315
    Two-Electron Energy =                 496.6585660549673094
    DFT Exchange-Correlation Energy =       0.0000000000000000
    Empirical Dispersion Energy =           0.0000000000000000
    PCM Polarization Energy =               0.0000000000000000
    EFP Energy =                            0.0000000000000000
    Total Energy =                       -348.0892084872251644
    Molecular point group: c1
  Basis Set: 6-31G*
  Basis Set:

  -Total Gradient:
     Atom            X                  Y                   Z
    ------   -----------------  -----------------  -----------------
       1        0.000005542359    -0.000004847111     0.000000749484
       2        0.000003980691     0.000005750653     0.000001564183
       3        0.001895014584     0.004842678416    -0.001129872829
       4       -0.000000368443     0.000006740800    -0.000002242113
       5       -0.001879155439    -0.005951836321     0.002302942586
       6        0.000005105180    -0.000001056734     0.000002940911
       7        0.000019485995     0.000022888104     0.000006937710
       8       -0.004138570321    -0.003982142282    -0.004023064462
       9        0.000000662625    -0.000007220341    -0.000017252134
      10        0.000013540063    -0.000008871634    -0.000020192989
      11       -0.000001675404    -0.000007880317     0.000015418866
      12        0.004097911164     0.005083642306     0.002849915096
      13        0.000004258092     0.000009170117     0.000006806472
      14        0.000003685065    -0.000009602395    -0.000004408628
      15       -0.000002192431    -0.000006610059     0.000001316131
      16        0.000007495078     0.000006579928     0.000001672091
      17       -0.000003928658    -0.000005324962    -0.000003462381
      18       -0.000004517431    -0.000009999275    -0.000003867537
      19       -0.000024419343     0.000012003063     0.000013814581
      20       -0.000002385502    -0.000001481240    -0.000001614310
      21        0.000000119772     0.000003078955     0.000000642980
      22        0.000000412305     0.000004340332     0.000001256292

  **** Optimization is complete! (in 12 steps) ****
    Final optimized geometry and variables:
    Molecular point group: c1

    Geometry (in Angstrom), charge = 0, multiplicity = 1:

    O           -2.469242424330    -0.290010706420     1.305296215077
    C           -1.542018849004     0.426629401025     1.079980832575
    C           -0.216485215727    -0.139204749203     0.598380845769
    C           -1.641441798441     1.927503689314     1.240719303193
    C           -0.302454678731    -0.462961747311    -0.904173086109
    H           -0.027154675572    -1.043416776067     1.166708445269
    H            0.584722819023     0.560857829602     0.799675460060
    C            0.950152887260    -1.108350855381    -1.553735774787
    H           -1.156248828648    -1.112320415301    -1.058389302979
    H           -0.532099968752     0.461318986389    -1.429812604361
    C            2.295471009575    -0.936355236880    -0.828263070359
    H            1.086701787516    -0.665264597273    -2.536430402082
    H            0.767775160795    -2.168429663082    -1.694504192296
    C            2.896798953113     0.465210752860    -0.958674315830
    H            2.997079730002    -1.646214761509    -1.258752030661
    H            2.206753290880    -1.207759012346     0.219193145533
    H            3.087305998795     0.705121533384    -2.001014018666
    H            3.840831186664     0.535399359474    -0.427136751812
    H            2.241113466765     1.234918947524    -0.564077521311
    H           -0.997475795481     2.250881916991     2.054357849128
    H           -2.662291257370     2.209629176926     1.457541361998
    H           -1.301271361711     2.434372162483     0.342302290453

  Mulliken Charges: (a.u.)
   Center  Symbol    Alpha    Beta     Spin     Total
       1     O     4.26252  4.26252  0.00000 -0.52504
       2     C     2.73633  2.73633  0.00000  0.52735
       3     C     3.20425  3.20425  0.00000 -0.40851
       4     C     3.28990  3.28990  0.00000 -0.57980
       5     C     3.16660  3.16660  0.00000 -0.33320
       6     H     0.40121  0.40121  0.00000  0.19759
       7     H     0.41361  0.41361  0.00000  0.17277
       8     C     3.15589  3.15589  0.00000 -0.31179
       9     H     0.40203  0.40203  0.00000  0.19595
      10     H     0.42043  0.42043  0.00000  0.15914
      11     C     3.15829  3.15829  0.00000 -0.31657
      12     H     0.41948  0.41948  0.00000  0.16104
      13     H     0.41532  0.41532  0.00000  0.16936
      14     C     3.24111  3.24111  0.00000 -0.48221
      15     H     0.41781  0.41781  0.00000  0.16438
      16     H     0.41997  0.41997  0.00000  0.16006
      17     H     0.42031  0.42031  0.00000  0.15938
      18     H     0.41768  0.41768  0.00000  0.16464
      19     H     0.42368  0.42368  0.00000  0.15264
      20     H     0.40690  0.40690  0.00000  0.18620
      21     H     0.39691  0.39691  0.00000  0.20618
      22     H     0.40978  0.40978  0.00000  0.18044

   Total alpha = 32.00000, Total beta = 32.00000, Total charge = -0.00000
