  ==> Input File <==

--------------------------------------------------------------------------
set {
	reference rhf
	basis 6-31G*
}

set_num_threads( 4 )
memory 2 gb

molecule MOL {
0 1

O	 2.861823	 1.358085	 0.031107
C	 2.841718	 0.167309	 0.097493
C	 1.544786	 -0.621929	 0.094408
C	 4.120663	 -0.639479	 0.189946
C	 0.291004	 0.242674	 0.000989
H	 1.587171	 -1.329238	 -0.732819
H	 1.524574	 -1.233306	 0.995636
C	 -0.994322	 -0.586602	 0.000262
H	 0.341464	 0.846324	 -0.899672
H	 0.278619	 0.942225	 0.830822
C	 -2.259874	 0.272531	 0.000494
H	 -1.004862	 -1.240012	 -0.870939
H	 -1.005220	 -1.241071	 0.870675
C	 -3.549786	 -0.549746	 -0.000374
H	 -2.250389	 0.926680	 -0.869574
H	 -2.250838	 0.925513	 0.871430
C	 -4.809590	 0.315458	 -0.000369
H	 -3.560515	 -1.202009	 -0.871156
H	 -3.561123	 -1.202955	 0.869711
H	 -4.844746	 0.956611	 -0.876632
H	 -5.706986	 -0.295590	 -0.001609
H	 -4.845960	 0.954827	 0.877144
H	 4.193123	 -1.331837	 -0.643725
H	 4.972953	 0.025632	 0.181913
H	 4.130596	 -1.230349	 1.101214

	symmetry c1
}
set optking {
	frozen_dihedral = ("
		9 5 8 12
	")
}

ee = optimize('scf')
oeprop('DIPOLE', 'QUADRUPOLE', 'MULLIKEN_CHARGES')
f=open( 'psi4out.xyz', 'w' )
f.write( "25  " )
f.write( str(ee) + "\n" )
f.write( MOL.save_string_xyz() )
f.close()
--------------------------------------------------------------------------

    Molecular point group: c1
  Charge       = 0
  Multiplicity = 1
  Basis Set: 6-31G*
  Basis Set:
  @DF-RHF Final Energy:  -387.13648481091013
    Total Energy =                       -387.1364848109102468
    Molecular point group: c1
  Basis Set: 6-31G*
  Basis Set:
  Basis Set: 6-31G*
  Basis Set:
  @DF-RHF Final Energy:  -387.13648772679619
    Total Energy =                       -387.1364877267960765
  Basis Set: 6-31G*
  Basis Set:
  Basis Set: 6-31G*
  Basis Set:
  @DF-RHF Final Energy:  -387.13646866624600
    Total Energy =                       -387.1364686662459462
  Basis Set: 6-31G*
  Basis Set:
  Basis Set: 6-31G*
  Basis Set:
  @DF-RHF Final Energy:  -387.13649388402450
    Total Energy =                       -387.1364938840247305
  Basis Set: 6-31G*
  Basis Set:
  Charge       = 0
  Multiplicity = 1
  Basis Set: 6-31G*
  Basis Set:

    Orbital Energies (a.u.)
    -----------------------

    Doubly Occupied:

       1A    -20.550465     2A    -11.326291     3A    -11.231856
       4A    -11.228344     5A    -11.217143     6A    -11.216550
       7A    -11.215368     8A    -11.213492     9A    -11.208315
      10A     -1.395764    11A     -1.093617    12A     -1.056304
      13A     -1.014505    14A     -0.969236    15A     -0.890669
      16A     -0.814084    17A     -0.790750    18A     -0.729887
      19A     -0.661724    20A     -0.651898    21A     -0.631934
      22A     -0.624036    23A     -0.596047    24A     -0.584198
      25A     -0.566318    26A     -0.560045    27A     -0.540152
      28A     -0.526039    29A     -0.512819    30A     -0.489762
      31A     -0.487832    32A     -0.473443    33A     -0.463635
      34A     -0.462443    35A     -0.450679    36A     -0.399380

  @DF-RHF Final Energy:  -387.13649427043225

   => Energetics <=

    Nuclear Repulsion Energy =            438.3396026860336292
    One-Electron Energy =               -1393.2621416229428633
    Two-Electron Energy =                 567.7860446664769825
    DFT Exchange-Correlation Energy =       0.0000000000000000
    Empirical Dispersion Energy =           0.0000000000000000
    PCM Polarization Energy =               0.0000000000000000
    EFP Energy =                            0.0000000000000000
    Total Energy =                       -387.1364942704321948
    Molecular point group: c1
  Basis Set: 6-31G*
  Basis Set:

  -Total Gradient:
     Atom            X                  Y                   Z
    ------   -----------------  -----------------  -----------------
       1       -0.000000171335    -0.000003452411    -0.000036351269
       2        0.000001648173     0.000005140962     0.000120135074
       3       -0.000007090720    -0.000001526862    -0.000001529721
       4        0.000001520190    -0.000002681814    -0.000035104674
       5       -0.000488821222     0.000736006176     0.000250605916
       6       -0.000007112777     0.000005031782     0.000000656772
       7        0.000017197710    -0.000010260099     0.000001994480
       8        0.000472903465    -0.000710561005     0.000345976643
       9        0.000326877401    -0.000513638925    -0.000330664477
      10       -0.000011611902     0.000002557938    -0.000004941340
      11        0.000007268882    -0.000002432980     0.000057585209
      12       -0.000309514988     0.000484054943    -0.000374148770
      13        0.000007395059     0.000005006456    -0.000006058439
      14       -0.000002610197     0.000002244578     0.000007855879
      15        0.000002502038    -0.000000737512     0.000011909904
      16       -0.000010831511     0.000005825771     0.000012577060
      17        0.000000609821    -0.000000750539    -0.000020897519
      18        0.000004725785    -0.000009878914     0.000004988083
      19       -0.000005048759     0.000009946160     0.000005357169
      20       -0.000003199391     0.000005912871    -0.000000610151
      21       -0.000000597851     0.000000012011    -0.000005993481
      22        0.000003647858    -0.000006245949    -0.000000685115
      23        0.000005289935    -0.000003742604     0.000000086548
      24        0.000000765241    -0.000000047870    -0.000001616257
      25       -0.000005740913     0.000004217833    -0.000001127525

  **** Optimization is complete! (in 5 steps) ****
    Final optimized geometry and variables:
    Molecular point group: c1

    Geometry (in Angstrom), charge = 0, multiplicity = 1:

    O            2.862855874794     1.356571639118    -0.025491290752
    C            2.842793451056     0.166038510973     0.045204657047
    C            1.545516332499    -0.622565716588     0.055768777701
    C            4.122146067655    -0.641052228014     0.129021285117
    C            0.291107974984     0.242526267185    -0.029131836953
    H            1.580212727932    -1.332185098704    -0.769905283763
    H            1.533144203892    -1.231489187543     0.958755213122
    C           -0.993437905803    -0.588145267506    -0.027415949738
    H            0.338762794079     0.844687984933    -0.930828039391
    H            0.283237654497     0.940552259555     0.801925417644
    C           -2.259245646357     0.271081925993    -0.034894909957
    H           -1.002707434158    -1.241844060269    -0.898336815172
    H           -1.007510719790    -1.239289651533     0.845286767900
    C           -3.549046705021    -0.551209819080    -0.051194518378
    H           -2.241871122636     0.928979920603    -0.902034578133
    H           -2.258279421437     0.920337699500     0.838856233698
    C           -4.808847934101     0.313939119518    -0.061360866404
    H           -3.551003240492    -1.200907601431    -0.923958085244
    H           -3.569122023048    -1.207017298747     0.816795877903
    H           -4.835186513537     0.957657274269    -0.936044133969
    H           -5.706136593816    -0.297133147916    -0.073463257455
    H           -4.854119122425     0.950724519952     0.817611237335
    H            4.186924586576    -1.336151010581    -0.702999974351
    H            4.974639423545     0.023601377243     0.111282844302
    H            4.139867359665    -1.228968302991     1.042084338167

  Mulliken Charges: (a.u.)
   Center  Symbol    Alpha    Beta     Spin     Total
       1     O     4.26117  4.26117  0.00000 -0.52235
       2     C     2.73570  2.73570  0.00000  0.52859
       3     C     3.21094  3.21094  0.00000 -0.42187
       4     C     3.28662  3.28662  0.00000 -0.57325
       5     C     3.14797  3.14797  0.00000 -0.29594
       6     H     0.41000  0.41000  0.00000  0.17999
       7     H     0.41005  0.41005  0.00000  0.17991
       8     C     3.15392  3.15392  0.00000 -0.30784
       9     H     0.41195  0.41195  0.00000  0.17610
      10     H     0.41225  0.41225  0.00000  0.17550
      11     C     3.15078  3.15078  0.00000 -0.30156
      12     H     0.42459  0.42459  0.00000  0.15083
      13     H     0.42500  0.42500  0.00000  0.14999
      14     C     3.15150  3.15150  0.00000 -0.30300
      15     H     0.42238  0.42238  0.00000  0.15523
      16     H     0.42256  0.42256  0.00000  0.15489
      17     C     3.23932  3.23932  0.00000 -0.47864
      18     H     0.42353  0.42353  0.00000  0.15295
      19     H     0.42359  0.42359  0.00000  0.15281
      20     H     0.42133  0.42133  0.00000  0.15733
      21     H     0.41954  0.41954  0.00000  0.16093
      22     H     0.42140  0.42140  0.00000  0.15719
      23     H     0.40874  0.40874  0.00000  0.18252
      24     H     0.39646  0.39646  0.00000  0.20707
      25     H     0.40870  0.40870  0.00000  0.18260

   Total alpha = 36.00000, Total beta = 36.00000, Total charge = -0.00000
