  ==> Input File <==

--------------------------------------------------------------------------
set {
	reference rhf
	basis cc-pvtz
}

set_num_threads( 4 )
memory 2 gb

molecule MOL {
0 1

H	 -1.117699	 -1.097439	 0.514249
N	 -1.173824	 -0.310545	 -0.096857
C	 -0.022588	 0.563366	 0.065815
H	 -1.223249	 -0.664288	 -1.029614
C	 1.270420	 -0.230572	 -0.014245
H	 -0.045354	 1.293678	 -0.735129
H	 -0.043155	 1.123061	 1.001180
H	 1.336273	 -0.754933	 -0.959364
H	 2.130728	 0.422015	 0.082222
H	 1.323344	 -0.967006	 0.781773

	symmetry c1
}
set optking {
	frozen_dihedral = ("
		1 2 3 6
	")
}

ee = optimize('scf')
oeprop('DIPOLE', 'QUADRUPOLE', 'MULLIKEN_CHARGES')
f=open( 'psi4out.xyz', 'w' )
f.write( "10  " )
f.write( str(ee) + "\n" )
f.write( MOL.save_string_xyz() )
f.close()
--------------------------------------------------------------------------

    Molecular point group: c1
  Charge       = 0
  Multiplicity = 1
  Basis Set: CC-PVTZ
  Basis Set:
  @DF-RHF Final Energy:  -134.30250350016610
    Total Energy =                       -134.3025035001660967
    Molecular point group: c1
  Basis Set: CC-PVTZ
  Basis Set:
  Basis Set: CC-PVTZ
  Basis Set:
  @DF-RHF Final Energy:  -134.30407289107148
    Total Energy =                       -134.3040728910715131
  Basis Set: CC-PVTZ
  Basis Set:
  Basis Set: CC-PVTZ
  Basis Set:
  @DF-RHF Final Energy:  -134.30428045327807
    Total Energy =                       -134.3042804532780394
  Basis Set: CC-PVTZ
  Basis Set:
  Charge       = 0
  Multiplicity = 1
  Basis Set: CC-PVTZ
  Basis Set:

    Orbital Energies (a.u.)
    -----------------------

    Doubly Occupied:

       1A    -15.527496     2A    -11.241398     3A    -11.208795
       4A     -1.178996     5A     -0.988582     6A     -0.832404
       7A     -0.674884     8A     -0.599788     9A     -0.576142
      10A     -0.559918    11A     -0.507139    12A     -0.483995
      13A     -0.384895

  @DF-RHF Final Energy:  -134.30428173920632

   => Energetics <=

    Nuclear Repulsion Energy =             83.3403186830594791
    One-Electron Energy =                -345.7603349211308341
    Two-Electron Energy =                 128.1157344988649811
    DFT Exchange-Correlation Energy =       0.0000000000000000
    Empirical Dispersion Energy =           0.0000000000000000
    PCM Polarization Energy =               0.0000000000000000
    EFP Energy =                            0.0000000000000000
    Total Energy =                       -134.3042817392063739
    Molecular point group: c1
  Basis Set: CC-PVTZ
  Basis Set:

  -Total Gradient:
     Atom            X                  Y                   Z
    ------   -----------------  -----------------  -----------------
       1        0.000794027209    -0.000843147842    -0.001265388525
       2       -0.000689089243     0.000945304099     0.001338560813
       3       -0.000801621919     0.000916392288     0.000839901098
       4        0.000026392742     0.000055287323     0.000041115276
       5        0.000048735646    -0.000060632459    -0.000035336344
       6        0.000717595144    -0.001013690699    -0.000933613865
       7       -0.000052925549    -0.000019175708    -0.000001690082
       8        0.000001263330     0.000000807120     0.000007160845
       9       -0.000024858738     0.000010894889     0.000002123575
      10       -0.000019518617     0.000007960990     0.000007167209

  **** Optimization is complete! (in 4 steps) ****
    Final optimized geometry and variables:
    Molecular point group: c1

    Geometry (in Angstrom), charge = 0, multiplicity = 1:

    H           -1.183099322462    -1.060564865688     0.542778616510
    N           -1.229983941134    -0.264024784359    -0.058473731050
    C           -0.035649147230     0.554915944232     0.072453705945
    H           -1.313914971612    -0.615575687272    -0.989465783797
    C            1.285010925846    -0.206004425484     0.010135756154
    H           -0.056759515906     1.295356143425    -0.718917571427
    H           -0.096554933067     1.097955040844     1.008878117125
    H            1.388474967087    -0.729061192406    -0.935154256363
    H            2.129142799359     0.467629867482     0.114911615500
    H            1.346602017203    -0.941716152475     0.806045186865

  Mulliken Charges: (a.u.)
   Center  Symbol    Alpha    Beta     Spin     Total
       1     H     0.43245  0.43245  0.00000  0.13510
       2     N     3.68579  3.68579  0.00000 -0.37159
       3     C     3.02748  3.02748  0.00000 -0.05496
       4     H     0.43196  0.43196  0.00000  0.13608
       5     C     3.13843  3.13843  0.00000 -0.27686
       6     H     0.45505  0.45505  0.00000  0.08989
       7     H     0.45443  0.45443  0.00000  0.09114
       8     H     0.45919  0.45919  0.00000  0.08161
       9     H     0.45575  0.45575  0.00000  0.08850
      10     H     0.45946  0.45946  0.00000  0.08107

   Total alpha = 13.00000, Total beta = 13.00000, Total charge = -0.00000
