  ==> Input File <==

--------------------------------------------------------------------------
set {
	reference rhf
	basis 6-31G*
}

set_num_threads( 4 )
memory 2 gb

molecule MOL {
0 1

H	 2.176868	 -0.646004	 -0.217325
O	 1.337496	 -0.537251	 0.205931
C	 0.702312	 0.627605	 -0.264544
C	 -0.714990	 0.596302	 0.266387
H	 0.682322	 0.642550	 -1.350929
H	 1.215941	 1.520383	 0.085680
O	 -1.405996	 -0.526611	 -0.195820
H	 -1.257453	 1.468809	 -0.075599
H	 -0.688972	 0.618407	 1.353696
H	 -2.282582	 -0.495210	 0.165601

	symmetry c1
}
set optking {
	frozen_dihedral = ("
		10 7 4 3
	")
}

ee = optimize('scf')
oeprop('DIPOLE', 'QUADRUPOLE', 'MULLIKEN_CHARGES')
f=open( 'psi4out.xyz', 'w' )
f.write( "10  " )
f.write( str(ee) + "\n" )
f.write( MOL.save_string_xyz() )
f.close()
--------------------------------------------------------------------------

    Molecular point group: c1
  Charge       = 0
  Multiplicity = 1
  Basis Set: 6-31G*
  Basis Set:
  @DF-RHF Final Energy:  -228.91725397854989
    Total Energy =                       -228.9172539785498657
    Molecular point group: c1
  Basis Set: 6-31G*
  Basis Set:
  Basis Set: 6-31G*
  Basis Set:
  @DF-RHF Final Energy:  -228.91914148209827
    Total Energy =                       -228.9191414820982402
  Basis Set: 6-31G*
  Basis Set:
  Basis Set: 6-31G*
  Basis Set:
  @DF-RHF Final Energy:  -228.91939535215860
    Total Energy =                       -228.9193953521586309
  Basis Set: 6-31G*
  Basis Set:
  Basis Set: 6-31G*
  Basis Set:
  @DF-RHF Final Energy:  -228.91942073682438
    Total Energy =                       -228.9194207368243497
  Basis Set: 6-31G*
  Basis Set:
  Basis Set: 6-31G*
  Basis Set:
  @DF-RHF Final Energy:  -228.91942432422877
    Total Energy =                       -228.9194243242288280
  Basis Set: 6-31G*
  Basis Set:
  Charge       = 0
  Multiplicity = 1
  Basis Set: 6-31G*
  Basis Set:

    Orbital Energies (a.u.)
    -----------------------

    Doubly Occupied:

       1A    -20.552585     2A    -20.552070     3A    -11.270157
       4A    -11.269496     5A     -1.370682     6A     -1.350179
       7A     -1.001979     8A     -0.830056     9A     -0.713569
      10A     -0.707847    11A     -0.610385    12A     -0.603169
      13A     -0.585925    14A     -0.524244    15A     -0.473229
      16A     -0.442411    17A     -0.436952

  @DF-RHF Final Energy:  -228.91942510971563

   => Energetics <=

    Nuclear Repulsion Energy =            133.4207877651434160
    One-Electron Energy =                -578.0905551267468354
    Two-Electron Energy =                 215.7503422518878722
    DFT Exchange-Correlation Energy =       0.0000000000000000
    Empirical Dispersion Energy =           0.0000000000000000
    PCM Polarization Energy =               0.0000000000000000
    EFP Energy =                            0.0000000000000000
    Total Energy =                       -228.9194251097155473
    Molecular point group: c1
  Basis Set: 6-31G*
  Basis Set:

  -Total Gradient:
     Atom            X                  Y                   Z
    ------   -----------------  -----------------  -----------------
       1        0.000022112807    -0.000005215901     0.000012275669
       2       -0.000034407371     0.000020862369    -0.000019211650
       3       -0.000085724261     0.000317031386    -0.000384135670
       4        0.000124958808    -0.000266499930     0.000432008527
       5       -0.000004495563     0.000005780769    -0.000027043986
       6        0.000012334468    -0.000035582837    -0.000015145038
       7        0.000237266273    -0.000506136178     0.000605649803
       8       -0.000008649135    -0.000016844069     0.000009997808
       9       -0.000001386815     0.000021790390     0.000018370171
      10       -0.000262009213     0.000464814003    -0.000632765635

  **** Optimization is complete! (in 6 steps) ****
    Final optimized geometry and variables:
    Molecular point group: c1

    Geometry (in Angstrom), charge = 0, multiplicity = 1:

    H            2.215685837616    -0.645248944742    -0.206168320291
    O            1.414157879834    -0.508205579884     0.277532603889
    C            0.701653051867     0.560984897800    -0.280060346863
    C           -0.700351317063     0.561885080816     0.282191948619
    H            0.642532388316     0.476546426579    -1.361766099245
    H            1.178647144353     1.509673629747    -0.037728928256
    O           -1.410347713850    -0.511547383495    -0.270658553580
    H           -1.174864317690     1.509757694397     0.031428286019
    H           -0.646535308915     0.484852047071     1.365040714284
    H           -2.291435376130    -0.521181777176     0.074717563795

  Mulliken Charges: (a.u.)
   Center  Symbol    Alpha    Beta     Spin     Total
       1     H     0.27975  0.27975  0.00000  0.44051
       2     O     4.36603  4.36603  0.00000 -0.73205
       3     C     3.00002  3.00002  0.00000 -0.00004
       4     C     3.00028  3.00028  0.00000 -0.00056
       5     H     0.42223  0.42223  0.00000  0.15554
       6     H     0.43161  0.43161  0.00000  0.13679
       7     O     4.36586  4.36586  0.00000 -0.73173
       8     H     0.43266  0.43266  0.00000  0.13469
       9     H     0.42141  0.42141  0.00000  0.15718
      10     H     0.28016  0.28016  0.00000  0.43968

   Total alpha = 17.00000, Total beta = 17.00000, Total charge =  0.00000
