  ==> Input File <==

--------------------------------------------------------------------------
set {
	reference rhf
	basis 6-31G*
}

set_num_threads( 4 )
memory 2 gb

molecule MOL {
0 1

H	 2.768649	 0.511505	 0.683428
N	 2.332695	 -0.069570	 0.000000
C	 0.936681	 -0.007078	 0.000000
H	 2.748812	 0.068358	 -0.895879
C	 0.227108	 -0.002120	 -1.198267
C	 0.227108	 -0.002120	 1.198267
H	 0.761569	 -0.014657	 -2.132680
C	 -1.156334	 0.010459	 -1.192360
H	 0.761569	 -0.014657	 2.132680
C	 -1.156334	 0.010459	 1.192360
H	 -1.684791	 0.014915	 -2.129421
C	 -1.862085	 0.017996	 0.000000
H	 -1.684791	 0.014915	 2.129421
H	 -2.936703	 0.028387	 0.000000

	symmetry c1
}
set optking {
	frozen_dihedral = ("
		1 2 3 5
	")
}

ee = optimize('scf')
oeprop('DIPOLE', 'QUADRUPOLE', 'MULLIKEN_CHARGES')
f=open( 'psi4out.xyz', 'w' )
f.write( "14  " )
f.write( str(ee) + "\n" )
f.write( MOL.save_string_xyz() )
f.close()
--------------------------------------------------------------------------

    Molecular point group: c1
  Charge       = 0
  Multiplicity = 1
  Basis Set: 6-31G*
  Basis Set:
  @DF-RHF Final Energy:  -285.72987238755553
    Total Energy =                       -285.7298723875558721
    Molecular point group: c1
  Basis Set: 6-31G*
  Basis Set:
  Basis Set: 6-31G*
  Basis Set:
  @DF-RHF Final Energy:  -285.72998815159337
    Total Energy =                       -285.7299881515934885
  Basis Set: 6-31G*
  Basis Set:
  Basis Set: 6-31G*
  Basis Set:
  @DF-RHF Final Energy:  -285.73001809013317
    Total Energy =                       -285.7300180901333988
  Basis Set: 6-31G*
  Basis Set:
  Charge       = 0
  Multiplicity = 1
  Basis Set: 6-31G*
  Basis Set:

    Orbital Energies (a.u.)
    -----------------------

    Doubly Occupied:

       1A    -15.560043     2A    -11.270114     3A    -11.228894
       4A    -11.228630     5A    -11.218683     6A    -11.217534
       7A    -11.214584     8A     -1.221193     9A     -1.125722
      10A     -1.009671    11A     -0.984167    12A     -0.828735
      13A     -0.809004    14A     -0.702904    15A     -0.680548
      16A     -0.651532    17A     -0.596849    18A     -0.589978
      19A     -0.578961    20A     -0.526494    21A     -0.502648
      22A     -0.485026    23A     -0.442153    24A     -0.331159
      25A     -0.292121

  @DF-RHF Final Energy:  -285.73002073371413

   => Energetics <=

    Nuclear Repulsion Energy =            273.0083197892010958
    One-Electron Energy =                -926.8819907037059238
    Two-Electron Energy =                 368.1436501807907007
    DFT Exchange-Correlation Energy =       0.0000000000000000
    Empirical Dispersion Energy =           0.0000000000000000
    PCM Polarization Energy =               0.0000000000000000
    EFP Energy =                            0.0000000000000000
    Total Energy =                       -285.7300207337141273
    Molecular point group: c1
  Basis Set: 6-31G*
  Basis Set:

  -Total Gradient:
     Atom            X                  Y                   Z
    ------   -----------------  -----------------  -----------------
       1        0.000047365603     0.001253278208    -0.001072118911
       2       -0.000153747042    -0.000981623861     0.001331712878
       3        0.000053505977    -0.001553356499    -0.000214367673
       4        0.000096216142     0.000032341506    -0.000035298430
       5       -0.000097198157     0.001252948267    -0.000023956344
       6       -0.000005321045    -0.000035372035    -0.000028742656
       7        0.000023898676    -0.000002804567    -0.000018083254
       8        0.000166745349     0.000033699532    -0.000072837455
       9        0.000001352592    -0.000012923623    -0.000003794183
      10       -0.000138897832     0.000072050428    -0.000063572207
      11        0.000008083801    -0.000004923488     0.000009185672
      12        0.000000921563    -0.000058267294     0.000187173921
      13       -0.000000700190     0.000008353388     0.000010153631
      14       -0.000002225441    -0.000003399962    -0.000005454989

  **** Optimization is complete! (in 4 steps) ****
    Final optimized geometry and variables:
    Molecular point group: c1

    Geometry (in Angstrom), charge = 0, multiplicity = 1:

    H            2.753045671520     0.507061204587     0.703735838179
    N            2.335944997963    -0.075441171573     0.008283414919
    C            0.935485793877    -0.017232819229    -0.003476798911
    H            2.747402605942     0.118300053817    -0.880321990888
    C            0.224132747788    -0.006141781134    -1.198647595832
    C            0.229340474880    -0.003148513605     1.197318241483
    H            0.755186474718    -0.014315261347    -2.135325846070
    C           -1.160687932068     0.007601328305    -1.189951421217
    H            0.769059970838    -0.023415080728     2.128243758940
    C           -1.152812742015     0.023646709231     1.195588543889
    H           -1.691639129651     0.011739331976    -2.125623613285
    C           -1.861575090704     0.026321358054     0.003686750079
    H           -1.679449360109     0.036474370031     2.133651086112
    H           -2.936229428417     0.042698687615     0.006756386686

  Mulliken Charges: (a.u.)
   Center  Symbol    Alpha    Beta     Spin     Total
       1     H     0.32118  0.32118  0.00000  0.35765
       2     N     3.94201  3.94201  0.00000 -0.88403
       3     C     2.85738  2.85738  0.00000  0.28523
       4     H     0.32191  0.32191  0.00000  0.35618
       5     C     3.12811  3.12811  0.00000 -0.25621
       6     C     3.12285  3.12285  0.00000 -0.24571
       7     H     0.40476  0.40476  0.00000  0.19048
       8     C     3.09029  3.09029  0.00000 -0.18059
       9     H     0.40194  0.40194  0.00000  0.19613
      10     C     3.09080  3.09080  0.00000 -0.18159
      11     H     0.40074  0.40074  0.00000  0.19851
      12     C     3.11482  3.11482  0.00000 -0.22964
      13     H     0.40064  0.40064  0.00000  0.19873
      14     H     0.40256  0.40256  0.00000  0.19487

   Total alpha = 25.00000, Total beta = 25.00000, Total charge = -0.00000
