  ==> Input File <==

--------------------------------------------------------------------------
set {
	reference rhf
	basis 6-31G*
}

set_num_threads( 4 )
memory 2 gb

molecule MOL {
0 1

H	 -2.644614	 0.537847	 -1.391032
O	 -3.452007	 0.283848	 -0.965577
C	 -3.181085	 -0.079926	 0.364119
C	 -1.765924	 0.277073	 0.805136
H	 -3.327791	 -1.152017	 0.410903
H	 -3.905698	 0.375695	 1.036898
C	 -0.677594	 -0.417312	 -0.014550
H	 -1.637766	 1.358238	 0.744969
H	 -1.659588	 0.017670	 1.857098
C	 0.738335	 -0.034840	 0.421385
H	 -0.814977	 -0.178223	 -1.064632
H	 -0.802730	 -1.495410	 0.071702
C	 1.822265	 -0.738362	 -0.399735
H	 0.853533	 1.043532	 0.342250
H	 0.871597	 -0.279636	 1.474438
C	 3.258060	 -0.455774	 0.057203
H	 1.718003	 -0.459167	 -1.447053
H	 1.651028	 -1.811884	 -0.354513
C	 3.709143	 0.994797	 -0.123830
H	 3.930637	 -1.101717	 -0.501982
H	 3.365259	 -0.739518	 1.102287
H	 3.601178	 1.310569	 -1.158127
H	 4.753787	 1.110486	 0.148516
H	 3.135362	 1.678896	 0.492569

	symmetry c1
}
set optking {
	frozen_dihedral = ("
		1 2 3 5
	")
}

ee = optimize('scf')
oeprop('DIPOLE', 'QUADRUPOLE', 'MULLIKEN_CHARGES')
f=open( 'psi4out.xyz', 'w' )
f.write( "24  " )
f.write( str(ee) + "\n" )
f.write( MOL.save_string_xyz() )
f.close()
--------------------------------------------------------------------------

    Molecular point group: c1
  Charge       = 0
  Multiplicity = 1
  Basis Set: 6-31G*
  Basis Set:
  @DF-RHF Final Energy:  -349.24294751920019
    Total Energy =                       -349.2429475192002997
    Molecular point group: c1
  Basis Set: 6-31G*
  Basis Set:
  Basis Set: 6-31G*
  Basis Set:
  @DF-RHF Final Energy:  -349.24382247090892
    Total Energy =                       -349.2438224709090377
  Basis Set: 6-31G*
  Basis Set:
  Basis Set: 6-31G*
  Basis Set:
  @DF-RHF Final Energy:  -349.24429176713414
    Total Energy =                       -349.2442917671340865
  Basis Set: 6-31G*
  Basis Set:
  Basis Set: 6-31G*
  Basis Set:
  @DF-RHF Final Energy:  -349.24428878045438
    Total Energy =                       -349.2442887804544398
  Basis Set: 6-31G*
  Basis Set:
  Basis Set: 6-31G*
  Basis Set:
  @DF-RHF Final Energy:  -349.24430471244148
    Total Energy =                       -349.2443047124416466
  Basis Set: 6-31G*
  Basis Set:
  Basis Set: 6-31G*
  Basis Set:
  @DF-RHF Final Energy:  -349.24430300751158
    Total Energy =                       -349.2443030075114052
  Basis Set: 6-31G*
  Basis Set:
  Basis Set: 6-31G*
  Basis Set:
  @DF-RHF Final Energy:  -349.24430487540695
    Total Energy =                       -349.2443048754067831
  Basis Set: 6-31G*
  Basis Set:
  Charge       = 0
  Multiplicity = 1
  Basis Set: 6-31G*
  Basis Set:

    Orbital Energies (a.u.)
    -----------------------

    Doubly Occupied:

       1A    -20.548157     2A    -11.266043     3A    -11.225505
       4A    -11.224113     5A    -11.220378     6A    -11.218864
       7A    -11.218055     8A    -11.211250     9A     -1.355708
      10A     -1.096331    11A     -1.053786    12A     -0.990211
      13A     -0.921097    14A     -0.856977    15A     -0.805409
      16A     -0.783011    17A     -0.668516    18A     -0.659953
      19A     -0.631846    20A     -0.624263    21A     -0.606510
      22A     -0.590869    23A     -0.561881    24A     -0.539834
      25A     -0.527491    26A     -0.515232    27A     -0.496729
      28A     -0.481939    29A     -0.479612    30A     -0.465618
      31A     -0.459245    32A     -0.439402    33A     -0.427757

  @DF-RHF Final Energy:  -349.24430503751000

   => Energetics <=

    Nuclear Repulsion Energy =            384.3591844750761766
    One-Electron Energy =               -1234.8637953301158632
    Two-Electron Energy =                 501.2603058175293995
    DFT Exchange-Correlation Energy =       0.0000000000000000
    Empirical Dispersion Energy =           0.0000000000000000
    PCM Polarization Energy =               0.0000000000000000
    EFP Energy =                            0.0000000000000000
    Total Energy =                       -349.2443050375102871
    Molecular point group: c1
  Basis Set: 6-31G*
  Basis Set:

  -Total Gradient:
     Atom            X                  Y                   Z
    ------   -----------------  -----------------  -----------------
       1       -0.000114649487     0.000870768596     0.000324410897
       2       -0.000074012495    -0.001064571697    -0.000319288244
       3        0.000928806399     0.000107191568    -0.000246471844
       4        0.000017941044    -0.000048365901     0.000028807549
       5       -0.000760795591     0.000118813719     0.000246456014
       6       -0.000011370471    -0.000007512357    -0.000024901951
       7        0.000005396165     0.000015891963    -0.000019382419
       8       -0.000002966743    -0.000016478397    -0.000006293488
       9        0.000008215873     0.000006530500     0.000010658652
      10        0.000011780583     0.000000549945     0.000003481137
      11       -0.000009838595    -0.000000899903    -0.000014527970
      12       -0.000011046940     0.000007430689     0.000005325423
      13       -0.000004034189     0.000004412842     0.000007444837
      14        0.000004614975    -0.000003076679    -0.000004329276
      15        0.000012568308     0.000006857718     0.000003669869
      16       -0.000000352798    -0.000001673881     0.000007304727
      17        0.000001070090     0.000003877497     0.000000622063
      18       -0.000006381867    -0.000000346201    -0.000001855689
      19        0.000000923413     0.000000739363    -0.000000149651
      20       -0.000001020654     0.000000535791     0.000000410844
      21        0.000001803136     0.000000042023     0.000000094824
      22        0.000000590616     0.000000044246    -0.000000292498
      23       -0.000000427896    -0.000000049877    -0.000000089887
      24        0.000003187128    -0.000000711567    -0.000001103918

  **** Optimization is complete! (in 8 steps) ****
    Final optimized geometry and variables:
    Molecular point group: c1

    Geometry (in Angstrom), charge = 0, multiplicity = 1:

    H           -2.784265720362     0.595029327267    -1.404280739499
    O           -3.546242555837     0.320212875937    -0.917729527304
    C           -3.181939200550    -0.096251360983     0.375714391932
    C           -1.761116678302     0.288443868981     0.772770281350
    H           -3.308579631290    -1.173800607552     0.449463882140
    H           -3.884803381347     0.356533449374     1.066398099366
    C           -0.667559411420    -0.416044416475    -0.036671199055
    H           -1.652405411168     1.368185921911     0.684639773872
    H           -1.630449606493     0.051170965593     1.826037122390
    C            0.745367203754    -0.030656571063     0.407060493759
    H           -0.774400322225    -0.190253175226    -1.096840989574
    H           -0.796341558288    -1.492598807098     0.054219146726
    C            1.836393696144    -0.737214304807    -0.401788241011
    H            0.859573117582     1.047257632803     0.325858965167
    H            0.867140309791    -0.272565777865     1.461725513649
    C            3.267236682327    -0.454370017731     0.070170342715
    H            1.744258553491    -0.459662690281    -1.450784964976
    H            1.663656618975    -1.810472322197    -0.356246738519
    C            3.720872078482     0.995588837183    -0.108945862136
    H            3.944790140438    -1.102026280075    -0.480604124236
    H            3.362704567196    -0.736413281238     1.116744789116
    H            3.624604670204     1.309428724921    -1.144956434092
    H            4.762493564628     1.110788236966     0.174414225712
    H            3.141303390889     1.681461500159     0.499991141743

  Mulliken Charges: (a.u.)
   Center  Symbol    Alpha    Beta     Spin     Total
       1     H     0.27791  0.27791  0.00000  0.44418
       2     O     4.37935  4.37935  0.00000 -0.75870
       3     C     2.97566  2.97566  0.00000  0.04868
       4     C     3.18640  3.18640  0.00000 -0.37279
       5     H     0.42845  0.42845  0.00000  0.14309
       6     H     0.42083  0.42083  0.00000  0.15835
       7     C     3.15607  3.15607  0.00000 -0.31214
       8     H     0.41807  0.41807  0.00000  0.16386
       9     H     0.41728  0.41728  0.00000  0.16544
      10     C     3.15298  3.15298  0.00000 -0.30597
      11     H     0.42910  0.42910  0.00000  0.14180
      12     H     0.41834  0.41834  0.00000  0.16332
      13     C     3.15291  3.15291  0.00000 -0.30582
      14     H     0.42064  0.42064  0.00000  0.15871
      15     H     0.42262  0.42262  0.00000  0.15477
      16     C     3.15271  3.15271  0.00000 -0.30542
      17     H     0.42404  0.42404  0.00000  0.15191
      18     H     0.42133  0.42133  0.00000  0.15734
      19     C     3.24148  3.24148  0.00000 -0.48296
      20     H     0.42014  0.42014  0.00000  0.15971
      21     H     0.42292  0.42292  0.00000  0.15416
      22     H     0.42212  0.42212  0.00000  0.15575
      23     H     0.41847  0.41847  0.00000  0.16306
      24     H     0.42017  0.42017  0.00000  0.15965

   Total alpha = 33.00000, Total beta = 33.00000, Total charge = -0.00000
