  ==> Input File <==

--------------------------------------------------------------------------
set {
	reference rhf
	basis 6-31G*
}

set_num_threads( 4 )
memory 2 gb

molecule MOL {
0 1

O	 1.214711	 1.306902	 -0.000018
C	 1.122059	 0.121804	 -0.000188
C	 -0.170150	 -0.657997	 -0.000612
O	 2.172624	 -0.688929	 0.000216
C	 -1.412532	 0.227344	 -0.000452
H	 -0.153702	 -1.313099	 -0.867402
H	 -0.153924	 -1.313811	 0.865644
C	 -2.254808	 0.046975	 1.263432
H	 -2.012113	 0.003662	 -0.877364
H	 -1.112355	 1.266081	 -0.097527
C	 -3.500956	 0.931304	 1.272450
H	 -2.552225	 -0.995618	 1.356278
H	 -1.648521	 0.269834	 2.139115
H	 -4.145295	 0.708378	 0.427001
H	 -4.080230	 0.784036	 2.178557
H	 -3.235114	 1.982869	 1.216059
C	 3.452279	 -0.082609	 0.000533
H	 3.583069	 0.529321	 -0.880332
H	 4.163299	 -0.894027	 0.001117
H	 3.582335	 0.529955	 0.881077

	symmetry c1
}
set optking {
	frozen_dihedral = ("
		9 5 3 6
	")
}

ee = optimize('scf')
oeprop('DIPOLE', 'QUADRUPOLE', 'MULLIKEN_CHARGES')
f=open( 'psi4out.xyz', 'w' )
f.write( "20  " )
f.write( str(ee) + "\n" )
f.write( MOL.save_string_xyz() )
f.close()
--------------------------------------------------------------------------

    Molecular point group: c1
  Charge       = 0
  Multiplicity = 1
  Basis Set: 6-31G*
  Basis Set:
  @DF-RHF Final Energy:  -383.93679715750221
    Total Energy =                       -383.9367971575024967
    Molecular point group: c1
  Basis Set: 6-31G*
  Basis Set:
  Basis Set: 6-31G*
  Basis Set:
  @DF-RHF Final Energy:  -383.93707746804466
    Total Energy =                       -383.9370774680446630
  Basis Set: 6-31G*
  Basis Set:
  Basis Set: 6-31G*
  Basis Set:
  @DF-RHF Final Energy:  -383.93699452945197
    Total Energy =                       -383.9369945294517947
  Basis Set: 6-31G*
  Basis Set:
  Basis Set: 6-31G*
  Basis Set:
  @DF-RHF Final Energy:  -383.93718046921873
    Total Energy =                       -383.9371804692187879
  Basis Set: 6-31G*
  Basis Set:
  Charge       = 0
  Multiplicity = 1
  Basis Set: 6-31G*
  Basis Set:

    Orbital Energies (a.u.)
    -----------------------

    Doubly Occupied:

       1A    -20.604107     2A    -20.546428     3A    -11.373370
       4A    -11.281210     5A    -11.235465     6A    -11.218659
       7A    -11.217344     8A    -11.209009     9A     -1.470173
      10A     -1.363448    11A     -1.085669    12A     -1.023703
      13A     -0.968107    14A     -0.885758    15A     -0.804816
      16A     -0.766927    17A     -0.701849    18A     -0.680937
      19A     -0.672729    20A     -0.633957    21A     -0.603465
      22A     -0.590647    23A     -0.579104    24A     -0.545652
      25A     -0.529436    26A     -0.517576    27A     -0.508793
      28A     -0.477514    29A     -0.468255    30A     -0.462713
      31A     -0.457482    32A     -0.439802

  @DF-RHF Final Energy:  -383.93718122060130

   => Energetics <=

    Nuclear Repulsion Energy =            383.1851828855533881
    One-Electron Energy =               -1282.3965186768346030
    Two-Electron Energy =                 515.2741545706800252
    DFT Exchange-Correlation Energy =       0.0000000000000000
    Empirical Dispersion Energy =           0.0000000000000000
    PCM Polarization Energy =               0.0000000000000000
    EFP Energy =                            0.0000000000000000
    Total Energy =                       -383.9371812206012464
    Molecular point group: c1
  Basis Set: 6-31G*
  Basis Set:

  -Total Gradient:
     Atom            X                  Y                   Z
    ------   -----------------  -----------------  -----------------
       1        0.000083252273    -0.000081607351    -0.000064414349
       2       -0.000113390974    -0.000047519214     0.000027460291
       3        0.000682242000     0.001169411984    -0.000556033213
       4       -0.000030549429     0.000155076418     0.000022476950
       5       -0.000677127720    -0.001159677418     0.000760624890
       6       -0.000543752135    -0.000688016268     0.000450005084
       7       -0.000036543579    -0.000012750539    -0.000031449863
       8        0.000036699328    -0.000111059004    -0.000049432498
       9        0.000507794885     0.000693237588    -0.000517755764
      10        0.000014041321     0.000046620999    -0.000049537906
      11        0.000025634244     0.000053375357     0.000019854676
      12       -0.000030106864     0.000010846007    -0.000021625060
      13        0.000003375075    -0.000046845449     0.000004849689
      14        0.000017591130    -0.000007252160     0.000017508564
      15        0.000006380020     0.000019244930     0.000015198166
      16       -0.000021968131     0.000013831969    -0.000017211961
      17        0.000052528595    -0.000032809134    -0.000005272418
      18       -0.000001510727     0.000003555218    -0.000004116855
      19        0.000028055872     0.000021785828    -0.000001131123
      20       -0.000002645199     0.000000550238     0.000000002701

  **** Optimization is complete! (in 5 steps) ****
    Final optimized geometry and variables:
    Molecular point group: c1

    Geometry (in Angstrom), charge = 0, multiplicity = 1:

    O            1.126640308594     1.155366051098    -0.289517572638
    C            1.019119105083    -0.028152230464    -0.314872202633
    C           -0.276141077515    -0.807537144549    -0.323237751985
    O            2.061965551944    -0.848415552853    -0.334878396958
    C           -1.545131151722     0.059858585742    -0.316345974154
    H           -0.242772616443    -1.469743439052    -1.182281272471
    H           -0.242450033373    -1.466063058105     0.540264088369
    C           -2.387771027394    -0.112154595839     0.949394078168
    H           -2.149397816779    -0.177792392438    -1.187112931806
    H           -1.261356439142     1.100182643191    -0.418322814958
    C           -3.635247445440     0.769191168743     0.951832817398
    H           -2.680889217141    -1.155002697762     1.053477732705
    H           -1.776970892353     0.123389611503     1.818366767255
    H           -4.282533297681     0.534511567912     0.111407465919
    H           -4.211526478032     0.631772393809     1.861441884188
    H           -3.371108338202     1.820275609296     0.881813273703
    C            3.347712864838    -0.255027237640    -0.325268375812
    H            3.481563769906     0.375694336553    -1.192285327770
    H            4.050517770850    -1.073300978813    -0.346028291300
    H            3.486940045727     0.335577259415     0.568751699351

  Mulliken Charges: (a.u.)
   Center  Symbol    Alpha    Beta     Spin     Total
       1     O     4.28495  4.28495  0.00000 -0.56990
       2     C     2.61266  2.61266  0.00000  0.77467
       3     C     3.21039  3.21039  0.00000 -0.42079
       4     O     4.30530  4.30530  0.00000 -0.61061
       5     C     3.16105  3.16105  0.00000 -0.32211
       6     H     0.39699  0.39699  0.00000  0.20603
       7     H     0.39788  0.39788  0.00000  0.20424
       8     C     3.15518  3.15518  0.00000 -0.31035
       9     H     0.41931  0.41931  0.00000  0.16138
      10     H     0.39464  0.39464  0.00000  0.21072
      11     C     3.24069  3.24069  0.00000 -0.48137
      12     H     0.42357  0.42357  0.00000  0.15287
      13     H     0.42022  0.42022  0.00000  0.15956
      14     H     0.42171  0.42171  0.00000  0.15657
      15     H     0.41876  0.41876  0.00000  0.16247
      16     H     0.41821  0.41821  0.00000  0.16358
      17     C     3.09202  3.09202  0.00000 -0.18405
      18     H     0.40894  0.40894  0.00000  0.18212
      19     H     0.40844  0.40844  0.00000  0.18313
      20     H     0.40908  0.40908  0.00000  0.18184

   Total alpha = 32.00000, Total beta = 32.00000, Total charge =  0.00000
