  ==> Input File <==

--------------------------------------------------------------------------
set {
	reference rhf
	basis 6-31G*
}

set_num_threads( 4 )
memory 2 gb

molecule MOL {
0 1

O	 2.414628	 2.050996	 0.273660
C	 1.423493	 2.364802	 0.858412
C	 0.165630	 1.515030	 0.833831
C	 1.357087	 3.642594	 1.669581
C	 0.291004	 0.242674	 0.000989
H	 -0.095564	 1.276619	 1.864039
H	 -0.649575	 2.136954	 0.466336
C	 -0.994322	 -0.586602	 0.000262
H	 1.114340	 -0.352709	 0.382783
H	 0.559474	 0.508536	 -1.016552
C	 -2.259874	 0.272531	 0.000494
H	 -1.004862	 -1.240012	 -0.870939
H	 -1.005220	 -1.241071	 0.870675
C	 -3.549786	 -0.549746	 -0.000374
H	 -2.250389	 0.926680	 -0.869574
H	 -2.250838	 0.925513	 0.871430
C	 -4.809590	 0.315458	 -0.000369
H	 -3.560515	 -1.202009	 -0.871156
H	 -3.561123	 -1.202955	 0.869711
H	 -4.844746	 0.956611	 -0.876632
H	 -5.706986	 -0.295590	 -0.001609
H	 -4.845960	 0.954827	 0.877144
H	 1.124633	 3.421193	 2.707157
H	 2.305075	 4.159420	 1.614403
H	 0.569393	 4.289124	 1.293853

	symmetry c1
}
set optking {
	frozen_dihedral = ("
		9 5 8 12
	")
}

ee = optimize('scf')
oeprop('DIPOLE', 'QUADRUPOLE', 'MULLIKEN_CHARGES')
f=open( 'psi4out.xyz', 'w' )
f.write( "25  " )
f.write( str(ee) + "\n" )
f.write( MOL.save_string_xyz() )
f.close()
--------------------------------------------------------------------------

    Molecular point group: c1
  Charge       = 0
  Multiplicity = 1
  Basis Set: 6-31G*
  Basis Set:
  @DF-RHF Final Energy:  -387.12910283073330
    Total Energy =                       -387.1291028307332454
    Molecular point group: c1
  Basis Set: 6-31G*
  Basis Set:
  Basis Set: 6-31G*
  Basis Set:
  @DF-RHF Final Energy:  -387.12978999242580
    Total Energy =                       -387.1297899924255717
  Basis Set: 6-31G*
  Basis Set:
  Basis Set: 6-31G*
  Basis Set:
  @DF-RHF Final Energy:  -387.13171806947429
    Total Energy =                       -387.1317180694740046
  Basis Set: 6-31G*
  Basis Set:
  Basis Set: 6-31G*
  Basis Set:
  @DF-RHF Final Energy:  -387.13191159267205
    Total Energy =                       -387.1319115926723953
  Basis Set: 6-31G*
  Basis Set:
  @DF-RHF Final Energy:  -387.13149642265063
    Total Energy =                       -387.1314964226506845
  @DF-RHF Final Energy:  -387.13179543895484
    Total Energy =                       -387.1317954389545548
  Basis Set: 6-31G*
  Basis Set:
  @DF-RHF Final Energy:  -387.13193174403523
    Total Energy =                       -387.1319317440351142
  Basis Set: 6-31G*
  Basis Set:
  Basis Set: 6-31G*
  Basis Set:
  @DF-RHF Final Energy:  -387.13194879495796
    Total Energy =                       -387.1319487949576796
  Basis Set: 6-31G*
  Basis Set:
  Basis Set: 6-31G*
  Basis Set:
  @DF-RHF Final Energy:  -387.13195868633471
    Total Energy =                       -387.1319586863347695
  Basis Set: 6-31G*
  Basis Set:
  Charge       = 0
  Multiplicity = 1
  Basis Set: 6-31G*
  Basis Set:

    Orbital Energies (a.u.)
    -----------------------

    Doubly Occupied:

       1A    -20.550206     2A    -11.325965     3A    -11.230939
       4A    -11.228081     5A    -11.217696     6A    -11.217534
       7A    -11.217058     8A    -11.216607     9A    -11.211003
      10A     -1.395532    11A     -1.094263    12A     -1.055328
      13A     -1.014003    14A     -0.967527    15A     -0.899123
      16A     -0.816925    17A     -0.786336    18A     -0.728354
      19A     -0.659775    20A     -0.654213    21A     -0.634282
      22A     -0.620904    23A     -0.597110    24A     -0.582600
      25A     -0.567499    26A     -0.563728    27A     -0.543063
      28A     -0.527129    29A     -0.519567    30A     -0.493361
      31A     -0.489009    32A     -0.477442    33A     -0.460280
      34A     -0.458548    35A     -0.445917    36A     -0.400661

  @DF-RHF Final Energy:  -387.13195921027653

   => Energetics <=

    Nuclear Repulsion Energy =            445.9358510089168135
    One-Electron Energy =               -1408.4004847096557569
    Two-Electron Energy =                 575.3326744904625230
    DFT Exchange-Correlation Energy =       0.0000000000000000
    Empirical Dispersion Energy =           0.0000000000000000
    PCM Polarization Energy =               0.0000000000000000
    EFP Energy =                            0.0000000000000000
    Total Energy =                       -387.1319592102763636
    Molecular point group: c1
  Basis Set: 6-31G*
  Basis Set:

  -Total Gradient:
     Atom            X                  Y                   Z
    ------   -----------------  -----------------  -----------------
       1       -0.000000813212     0.000000048884    -0.000001804908
       2        0.000001620367    -0.000003109493     0.000014333780
       3        0.000004221731    -0.000013400290    -0.000000591022
       4        0.000000994565     0.000009742041    -0.000012967903
       5        0.000585171659    -0.001516743627    -0.007174301048
       6       -0.000014202342     0.000001288620    -0.000004088919
       7        0.000010645994     0.000000762724    -0.000005632494
       8        0.003137966225    -0.004348703276     0.004851463194
       9       -0.000959509619     0.001945729254     0.005311963272
      10       -0.000002627125    -0.000002741295     0.000010927554
      11        0.000006020282    -0.000009228214     0.000002358831
      12       -0.002760777631     0.003930589209    -0.003026632404
      13       -0.000012390595     0.000009302912    -0.000002089993
      14       -0.000003381704    -0.000001317642     0.000027126122
      15        0.000002591269    -0.000005804203     0.000006885444
      16        0.000002216176     0.000004656191     0.000012171158
      17       -0.000000530803     0.000001331137    -0.000032033081
      18       -0.000009050251    -0.000001394538     0.000007493275
      19        0.000010488009     0.000001512105     0.000007897899
      20       -0.000001559306     0.000012300202     0.000005539091
      21       -0.000000715607     0.000000835313    -0.000010293327
      22        0.000000452297    -0.000012683440     0.000004396129
      23        0.000004277604    -0.000005668529     0.000000050964
      24        0.000000376423     0.000002066463     0.000001321903
      25       -0.000001484413     0.000000629492     0.000006506484

  **** Optimization is complete! (in 10 steps) ****
    Final optimized geometry and variables:
    Molecular point group: c1

    Geometry (in Angstrom), charge = 0, multiplicity = 1:

    O            3.154497933398     0.933386617268    -0.133226389844
    C            2.194424835524     1.324340759311     0.456948183912
    C            0.868910929841     0.582996685703     0.436600169346
    C            2.236548741098     2.601615509880     1.271039324044
    C            0.898113357625    -0.695087473411    -0.403446352933
    H            0.598557535832     0.361212718834     1.468519856273
    H            0.112708063282     1.279185617809     0.082381321132
    C           -0.386763140778    -1.539254578664    -0.329682893366
    H            1.726531224518    -1.288501744286    -0.033222342475
    H            1.122397407367    -0.436652016190    -1.432163678357
    C           -1.702445825340    -0.752179633711    -0.371634149850
    H           -0.395135447550    -2.204556799149    -1.189655841937
    H           -0.371733532480    -2.160621035900     0.562358848009
    C           -2.930094133397    -1.661599026004    -0.457779510584
    H           -1.696472712125    -0.080076718370    -1.229088371058
    H           -1.795448782636    -0.122736709169     0.510169946833
    C           -4.247356253798    -0.887198927734    -0.485251305483
    H           -2.857693709096    -2.281197381999    -1.348861103409
    H           -2.931011643087    -2.345058383457     0.388866209171
    H           -4.289820758191    -0.215716400497    -1.338262122373
    H           -5.097518801025    -1.559046925451    -0.551285714938
    H           -4.369200142445    -0.287666807207     0.412600574098
    H            1.985943022343     2.398894123918     2.308194369837
    H            3.224963793051     3.036264891129     1.216715357104
    H            1.506789756926     3.313522892498     0.896492398750

  Mulliken Charges: (a.u.)
   Center  Symbol    Alpha    Beta     Spin     Total
       1     O     4.26117  4.26117  0.00000 -0.52234
       2     C     2.73568  2.73568  0.00000  0.52865
       3     C     3.21449  3.21449  0.00000 -0.42898
       4     C     3.28635  3.28635  0.00000 -0.57270
       5     C     3.14909  3.14909  0.00000 -0.29817
       6     H     0.41063  0.41063  0.00000  0.17875
       7     H     0.40762  0.40762  0.00000  0.18476
       8     C     3.15536  3.15536  0.00000 -0.31072
       9     H     0.40912  0.40912  0.00000  0.18176
      10     H     0.41239  0.41239  0.00000  0.17522
      11     C     3.15588  3.15588  0.00000 -0.31177
      12     H     0.41907  0.41907  0.00000  0.16186
      13     H     0.42206  0.42206  0.00000  0.15589
      14     C     3.15088  3.15088  0.00000 -0.30175
      15     H     0.42429  0.42429  0.00000  0.15143
      16     H     0.42452  0.42452  0.00000  0.15095
      17     C     3.23919  3.23919  0.00000 -0.47838
      18     H     0.42215  0.42215  0.00000  0.15571
      19     H     0.42285  0.42285  0.00000  0.15429
      20     H     0.42176  0.42176  0.00000  0.15648
      21     H     0.41870  0.41870  0.00000  0.16261
      22     H     0.42252  0.42252  0.00000  0.15496
      23     H     0.40900  0.40900  0.00000  0.18200
      24     H     0.39657  0.39657  0.00000  0.20686
      25     H     0.40868  0.40868  0.00000  0.18264

   Total alpha = 36.00000, Total beta = 36.00000, Total charge =  0.00000
