  ==> Input File <==

--------------------------------------------------------------------------
set {
	reference rhf
	basis 6-31G*
}

set_num_threads( 4 )
memory 2 gb

molecule MOL {
0 1

H	 -1.836216	 1.387520	 -0.000064
C	 -1.301823	 0.443321	 -0.000031
O	 -0.003969	 0.658512	 0.000451
O	 -1.829879	 -0.616434	 -0.000857
C	 0.850537	 -0.484732	 0.000380
C	 0.946599	 -0.979621	 -1.426567
H	 0.430922	 -1.233587	 0.657995
H	 1.816740	 -0.198351	 0.392465
H	 -0.031243	 -1.254248	 -1.805301
H	 1.589811	 -1.852286	 -1.470910
H	 1.361271	 -0.214101	 -2.072255

	symmetry c1
}
set optking {
	frozen_dihedral = ("
		7 5 3 2
	")
}

ee = optimize('scf')
oeprop('DIPOLE', 'QUADRUPOLE', 'MULLIKEN_CHARGES')
f=open( 'psi4out.xyz', 'w' )
f.write( "11  " )
f.write( str(ee) + "\n" )
f.write( MOL.save_string_xyz() )
f.close()
--------------------------------------------------------------------------

    Molecular point group: c1
  Charge       = 0
  Multiplicity = 1
  Basis Set: 6-31G*
  Basis Set:
  @DF-RHF Final Energy:  -266.82645198033219
    Total Energy =                       -266.8264519803323651
    Molecular point group: c1
  Basis Set: 6-31G*
  Basis Set:
  Basis Set: 6-31G*
  Basis Set:
  @DF-RHF Final Energy:  -266.82776605066647
    Total Energy =                       -266.8277660506664120
  Basis Set: 6-31G*
  Basis Set:
  Basis Set: 6-31G*
  Basis Set:
  @DF-RHF Final Energy:  -266.82013696991419
    Total Energy =                       -266.8201369699140173
  Basis Set: 6-31G*
  Basis Set:
  Basis Set: 6-31G*
  Basis Set:
  @DF-RHF Final Energy:  -266.82809689372874
    Total Energy =                       -266.8280968937289117
  Basis Set: 6-31G*
  Basis Set:
  Basis Set: 6-31G*
  Basis Set:
  @DF-RHF Final Energy:  -266.82821624522501
    Total Energy =                       -266.8282162452249509
  Basis Set: 6-31G*
  Basis Set:
  Charge       = 0
  Multiplicity = 1
  Basis Set: 6-31G*
  Basis Set:

    Orbital Energies (a.u.)
    -----------------------

    Doubly Occupied:

       1A    -20.612824     2A    -20.557190     3A    -11.379461
       4A    -11.291820     5A    -11.223100     6A     -1.475631
       7A     -1.374284     8A     -1.048464     9A     -0.911768
      10A     -0.796966    11A     -0.744867    12A     -0.683746
      13A     -0.653022    14A     -0.624256    15A     -0.575196
      16A     -0.540915    17A     -0.536630    18A     -0.501469
      19A     -0.458496    20A     -0.453261

  @DF-RHF Final Energy:  -266.82821884893349

   => Energetics <=

    Nuclear Repulsion Energy =            182.1403075591447021
    One-Electron Energy =                -725.0503158686314009
    Two-Electron Energy =                 276.0817894605534093
    DFT Exchange-Correlation Energy =       0.0000000000000000
    Empirical Dispersion Energy =           0.0000000000000000
    PCM Polarization Energy =               0.0000000000000000
    EFP Energy =                            0.0000000000000000
    Total Energy =                       -266.8282188489332611
    Molecular point group: c1
  Basis Set: 6-31G*
  Basis Set:

  -Total Gradient:
     Atom            X                  Y                   Z
    ------   -----------------  -----------------  -----------------
       1        0.000058877744    -0.000036268566     0.000032794142
       2        0.000162336697    -0.000166020033    -0.000101278084
       3        0.000113340233     0.000234553677    -0.000004060617
       4       -0.000169878789    -0.000009782502     0.000014348178
       5       -0.000076652119    -0.000184662014     0.000046834522
       6       -0.000081827690     0.000083841605     0.000009459246
       7        0.000042251093    -0.000012883877     0.000001742558
       8       -0.000062622496     0.000091800693    -0.000012556648
       9        0.000005821303     0.000002628563    -0.000006749249
      10        0.000009868353     0.000004063983     0.000031816446
      11       -0.000001514329    -0.000007271531    -0.000012350495

  **** Optimization is complete! (in 6 steps) ****
    Final optimized geometry and variables:
    Molecular point group: c1

    Geometry (in Angstrom), charge = 0, multiplicity = 1:

    H           -1.537943625786     1.632068791847     0.363214504065
    C           -1.035554871278     0.671455757970     0.323145543446
    O            0.268025279203     0.849322765485     0.297785640933
    O           -1.601704635657    -0.368834593564     0.309943552905
    C            1.107895873935    -0.305915780363     0.253297118639
    C            1.271403955199    -0.817138407248    -1.165731029085
    H            0.698066637935    -1.065562986781     0.901807986084
    H            2.050899942239     0.031845248641     0.656860925293
    H            0.326411606813    -1.166180445327    -1.562610726342
    H            1.972768530967    -1.645602865358    -1.177011109448
    H            1.656515114249    -0.035158577531    -1.810809272914

  Mulliken Charges: (a.u.)
   Center  Symbol    Alpha    Beta     Spin     Total
       1     H     0.41068  0.41068  0.00000  0.17864
       2     C     2.72704  2.72704  0.00000  0.54592
       3     O     4.29165  4.29165  0.00000 -0.58329
       4     O     4.26460  4.26460  0.00000 -0.52921
       5     C     3.01056  3.01056  0.00000 -0.02112
       6     C     3.25510  3.25510  0.00000 -0.51019
       7     H     0.40202  0.40202  0.00000  0.19595
       8     H     0.40767  0.40767  0.00000  0.18465
       9     H     0.40188  0.40188  0.00000  0.19624
      10     H     0.41620  0.41620  0.00000  0.16760
      11     H     0.41259  0.41259  0.00000  0.17481

   Total alpha = 20.00000, Total beta = 20.00000, Total charge = -0.00000
