  ==> Input File <==

--------------------------------------------------------------------------
set {
	reference rhf
	basis cc-pvtz
}

set_num_threads( 4 )
memory 2 gb

molecule MOL {
0 1

O	 -2.817697	 1.304178	 0.001046
C	 -2.664672	 0.129869	 0.003507
C	 -3.797908	 -0.860100	 -0.001145
O	 -1.481217	 -0.452708	 0.001092
H	 -4.408836	 -0.679689	 -0.875387
H	 -3.443486	 -1.878443	 -0.002770
H	 -4.412123	 -0.683688	 0.871605
C	 -0.332055	 0.384012	 -0.000250
C	 0.892252	 -0.506059	 -0.000295
H	 -0.360822	 1.020205	 -0.874146
H	 -0.359817	 1.021310	 0.872861
C	 0.961598	 -1.387673	 -1.243802
H	 0.878132	 -1.123866	 0.891773
H	 1.779380	 0.115740	 0.063217
C	 2.189101	 -2.294241	 -1.266081
H	 0.064878	 -1.999322	 -1.305081
H	 0.964116	 -0.761432	 -2.132504
C	 2.259396	 -3.174545	 -2.509114
H	 2.186782	 -2.921772	 -0.379370
H	 3.085828	 -1.684124	 -1.205054
H	 1.391685	 -3.821770	 -2.579993
H	 3.141045	 -3.804602	 -2.493914
H	 2.297368	 -2.574520	 -3.412098

	symmetry c1
}
set optking {
	frozen_dihedral = ("
		13 9 8 10
	")
}

ee = optimize('scf')
oeprop('DIPOLE', 'QUADRUPOLE', 'MULLIKEN_CHARGES')
f=open( 'psi4out.xyz', 'w' )
f.write( "23  " )
f.write( str(ee) + "\n" )
f.write( MOL.save_string_xyz() )
f.close()
--------------------------------------------------------------------------

    Molecular point group: c1
  Charge       = 0
  Multiplicity = 1
  Basis Set: CC-PVTZ
  Basis Set:
  @DF-RHF Final Energy:  -423.13422173237325
    Total Energy =                       -423.1342217323734758
    Molecular point group: c1
  Basis Set: CC-PVTZ
  Basis Set:
  Basis Set: CC-PVTZ
  Basis Set:
  @DF-RHF Final Energy:  -423.13437822187126
    Total Energy =                       -423.1343782218714296
  Basis Set: CC-PVTZ
  Basis Set:
  Basis Set: CC-PVTZ
  Basis Set:
  @DF-RHF Final Energy:  -423.13442990047258
    Total Energy =                       -423.1344299004726963
  Basis Set: CC-PVTZ
  Basis Set:
  Basis Set: CC-PVTZ
  Basis Set:
  @DF-RHF Final Energy:  -423.13455267753710
    Total Energy =                       -423.1345526775377266
  Basis Set: CC-PVTZ
  Basis Set:
  Basis Set: CC-PVTZ
  Basis Set:
  @DF-RHF Final Energy:  -423.13458975420440
    Total Energy =                       -423.1345897542048533
  Basis Set: CC-PVTZ
  Basis Set:
  Basis Set: CC-PVTZ
  Basis Set:
  @DF-RHF Final Energy:  -423.13459277391206
    Total Energy =                       -423.1345927739121180
  Basis Set: CC-PVTZ
  Basis Set:
  Charge       = 0
  Multiplicity = 1
  Basis Set: CC-PVTZ
  Basis Set:

    Orbital Energies (a.u.)
    -----------------------

    Doubly Occupied:

       1A    -20.596312     2A    -20.529956     3A    -11.366912
       4A    -11.280114     5A    -11.231248     6A    -11.223476
       7A    -11.217505     8A    -11.216236     9A    -11.209542
      10A     -1.471606    11A     -1.364481    12A     -1.093090
      13A     -1.042573    14A     -1.003779    15A     -0.931940
      16A     -0.843698    17A     -0.802794    18A     -0.776902
      19A     -0.691362    20A     -0.686756    21A     -0.669871
      22A     -0.644734    23A     -0.608686    24A     -0.586789
      25A     -0.580095    26A     -0.572555    27A     -0.560321
      28A     -0.533111    29A     -0.530982    30A     -0.510047
      31A     -0.494997    32A     -0.474945    33A     -0.469015
      34A     -0.462203    35A     -0.449767    36A     -0.441235

  @DF-RHF Final Energy:  -423.13459314328156

   => Energetics <=

    Nuclear Repulsion Energy =            458.9395324620448946
    One-Electron Energy =               -1485.8089807006751926
    Two-Electron Energy =                 603.7348550953481663
    DFT Exchange-Correlation Energy =       0.0000000000000000
    Empirical Dispersion Energy =           0.0000000000000000
    PCM Polarization Energy =               0.0000000000000000
    EFP Energy =                            0.0000000000000000
    Total Energy =                       -423.1345931432822454
    Molecular point group: c1
  Basis Set: CC-PVTZ
  Basis Set:

  -Total Gradient:
     Atom            X                  Y                   Z
    ------   -----------------  -----------------  -----------------
       1        0.000009449063    -0.000007565682     0.000003140222
       2       -0.000006276566     0.000007989071    -0.000062077150
       3        0.000001146092    -0.000003491731    -0.000003105481
       4        0.000016094995    -0.000001132776    -0.000024777578
       5       -0.000002176664     0.000010570203     0.000012298818
       6       -0.000000858354     0.000000045637     0.000001888335
       7        0.000002513010    -0.000009860446     0.000012111777
       8       -0.000281417494    -0.000360993669    -0.000143656918
       9       -0.000220986523    -0.000293154651    -0.000254845892
      10        0.000239071367     0.000328243748     0.000227208955
      11        0.000023318935     0.000016749624    -0.000009279991
      12       -0.000012714172    -0.000011168028     0.000014499609
      13        0.000227160931     0.000342823729     0.000227353057
      14        0.000008656002    -0.000004432575     0.000004609573
      15       -0.000005937637    -0.000013146201    -0.000004126171
      16        0.000001912577    -0.000012612461     0.000006635759
      17       -0.000008357014    -0.000000954212     0.000000388615
      18        0.000008819178     0.000006434285    -0.000005714412
      19       -0.000003068775    -0.000001925967    -0.000006856890
      20        0.000000908189     0.000004209532     0.000006508542
      21        0.000000394091     0.000002735282     0.000003189825
      22        0.000001349005     0.000001682248    -0.000002095885
      23        0.000000999764    -0.000001044956    -0.000003296718

  **** Optimization is complete! (in 7 steps) ****
    Final optimized geometry and variables:
    Molecular point group: c1

    Geometry (in Angstrom), charge = 0, multiplicity = 1:

    O           -2.260923271508     2.092124981908     0.558389418944
    C           -2.135913800713     0.914708593120     0.577916785910
    C           -3.292913423476    -0.047138336882     0.610280513168
    O           -0.966610495119     0.304336801298     0.574283498525
    H           -3.908935004432     0.126590734080    -0.261824240217
    H           -2.963883651240    -1.073839840858     0.630396618521
    H           -3.892862875610     0.166025605145     1.484784651453
    C            0.202190788065     1.114286012749     0.548630210632
    C            1.416033439938     0.209181957947     0.532348946047
    H            0.170895286438     1.752589361999    -0.323923044301
    H            0.203667686240     1.750991926467     1.421989520197
    C            1.530725419848    -0.665145984841    -0.713028922510
    H            1.405063399328    -0.410447677007     1.423715765232
    H            2.291712293647     0.847785690892     0.610264974755
    C            2.780937452078    -1.540192985100    -0.712674748374
    H            0.651009999442    -1.294289838070    -0.794497569436
    H            1.537880407748    -0.029740970138    -1.595807305586
    C            2.900481470095    -2.411330087862    -1.958514154005
    H            2.774411192976    -2.173766459465     0.170035367019
    H            3.662245860550    -0.909994759370    -0.628267493057
    H            2.049989229396    -3.078274140103    -2.052224392445
    H            3.796430982418    -3.020474652091    -1.927128506035
    H            2.944108167664    -1.805171797383    -2.857248949323

  Mulliken Charges: (a.u.)
   Center  Symbol    Alpha    Beta     Spin     Total
       1     O     4.20266  4.20266  0.00000 -0.40531
       2     C     2.81223  2.81223  0.00000  0.37554
       3     C     3.13994  3.13994  0.00000 -0.27988
       4     O     4.14818  4.14818  0.00000 -0.29635
       5     H     0.44197  0.44197  0.00000  0.11606
       6     H     0.44229  0.44229  0.00000  0.11542
       7     H     0.44155  0.44155  0.00000  0.11689
       8     C     2.99275  2.99275  0.00000  0.01451
       9     C     3.08798  3.08798  0.00000 -0.17596
      10     H     0.45087  0.45087  0.00000  0.09827
      11     H     0.44455  0.44455  0.00000  0.11089
      12     C     3.08896  3.08896  0.00000 -0.17792
      13     H     0.45120  0.45120  0.00000  0.09760
      14     H     0.45126  0.45126  0.00000  0.09747
      15     C     3.08534  3.08534  0.00000 -0.17068
      16     H     0.44690  0.44690  0.00000  0.10621
      17     H     0.45548  0.45548  0.00000  0.08903
      18     C     3.14955  3.14955  0.00000 -0.29909
      19     H     0.45385  0.45385  0.00000  0.09230
      20     H     0.45478  0.45478  0.00000  0.09043
      21     H     0.45485  0.45485  0.00000  0.09031
      22     H     0.44806  0.44806  0.00000  0.10387
      23     H     0.45481  0.45481  0.00000  0.09039

   Total alpha = 36.00000, Total beta = 36.00000, Total charge = -0.00000
