  ==> Input File <==

--------------------------------------------------------------------------
set {
	reference rhf
	basis 6-31G*
}

set_num_threads( 4 )
memory 2 gb

molecule MOL {
0 1

H	 -2.640706	 0.991912	 -0.578836
N	 -1.654361	 1.049067	 -0.415032
C	 -0.912149	 0.653333	 -1.598932
H	 -1.440009	 0.424517	 0.338028
C	 0.575104	 0.709617	 -1.319562
H	 -1.157192	 -0.347761	 -1.956376
H	 -1.139708	 1.349923	 -2.400031
O	 0.874168	 -0.245412	 -0.342030
H	 1.137383	 0.502364	 -2.229796
H	 0.844224	 1.704025	 -0.970330
C	 2.202317	 -0.244239	 0.074611
H	 2.711377	 -1.041390	 -0.449894
H	 2.692099	 0.699270	 -0.159667
H	 2.283185	 -0.418429	 1.145558

	symmetry c1
}
set optking {
	frozen_dihedral = ("
		5 8 11 13
	")
}

ee = optimize('scf')
oeprop('DIPOLE', 'QUADRUPOLE', 'MULLIKEN_CHARGES')
f=open( 'psi4out.xyz', 'w' )
f.write( "14  " )
f.write( str(ee) + "\n" )
f.write( MOL.save_string_xyz() )
f.close()
--------------------------------------------------------------------------

    Molecular point group: c1
  Charge       = 0
  Multiplicity = 1
  Basis Set: 6-31G*
  Basis Set:
  @DF-RHF Final Energy:  -248.12161172311471
    Total Energy =                       -248.1216117231147109
    Molecular point group: c1
  Basis Set: 6-31G*
  Basis Set:
  Basis Set: 6-31G*
  Basis Set:
  @DF-RHF Final Energy:  -248.12220338394152
    Total Energy =                       -248.1222033839417804
  Basis Set: 6-31G*
  Basis Set:
  Basis Set: 6-31G*
  Basis Set:
  @DF-RHF Final Energy:  -248.12234923116856
    Total Energy =                       -248.1223492311685845
  Basis Set: 6-31G*
  Basis Set:
  Charge       = 0
  Multiplicity = 1
  Basis Set: 6-31G*
  Basis Set:

    Orbital Energies (a.u.)
    -----------------------

    Doubly Occupied:

       1A    -20.554640     2A    -15.528020     3A    -11.266101
       4A    -11.265914     5A    -11.240342     6A     -1.377600
       7A     -1.173179     8A     -0.999011     9A     -0.907425
      10A     -0.814935    11A     -0.682271    12A     -0.672093
      13A     -0.643786    14A     -0.610067    15A     -0.605032
      16A     -0.539461    17A     -0.533525    18A     -0.496911
      19A     -0.471834    20A     -0.413227    21A     -0.379725

  @DF-RHF Final Energy:  -248.12235007896626

   => Energetics <=

    Nuclear Repulsion Energy =            194.4688308986456775
    One-Electron Energy =                -722.8321614481718598
    Two-Electron Energy =                 280.2409804705598617
    DFT Exchange-Correlation Energy =       0.0000000000000000
    Empirical Dispersion Energy =           0.0000000000000000
    PCM Polarization Energy =               0.0000000000000000
    EFP Energy =                            0.0000000000000000
    Total Energy =                       -248.1223500789662921
    Molecular point group: c1
  Basis Set: 6-31G*
  Basis Set:

  -Total Gradient:
     Atom            X                  Y                   Z
    ------   -----------------  -----------------  -----------------
       1        0.000012265341     0.000002080498    -0.000027691594
       2        0.000018020729    -0.000004279432    -0.000007223721
       3       -0.000030148619    -0.000050313284     0.000000081129
       4        0.000017167099     0.000017247409    -0.000016617277
       5       -0.000476639241     0.001502560005     0.001543390440
       6       -0.000015049796     0.000000273136     0.000003383336
       7       -0.000016886211     0.000007827774    -0.000004853675
       8        0.000974787806    -0.002298757721    -0.002751117499
       9       -0.000015029379    -0.000038545299     0.000050205899
      10        0.000024921646     0.000010525359    -0.000011752818
      11       -0.001134908265     0.001746233442     0.003542356840
      12        0.000016404806    -0.000009707234    -0.000000740483
      13        0.000686701568    -0.000906158749    -0.002303838354
      14       -0.000061607483     0.000021014096    -0.000015582226

  **** Optimization is complete! (in 4 steps) ****
    Final optimized geometry and variables:
    Molecular point group: c1

    Geometry (in Angstrom), charge = 0, multiplicity = 1:

    H           -2.858151084616     0.607962081657     0.148011653344
    N           -1.870310389860     0.670223848946     0.300305464985
    C           -1.139992607080     0.279717267210    -0.892656698275
    H           -1.643593989191     0.045599329930     1.049587892192
    C            0.350209544486     0.341734445113    -0.630702551564
    H           -1.385442958193    -0.721414160125    -1.249540387252
    H           -1.379026363186     0.977128626993    -1.689764202928
    O            0.659596593647    -0.611639415261     0.346351623190
    H            0.899434322988     0.137019054369    -1.549282911112
    H            0.618833543123     1.336460618213    -0.284576626486
    C            1.985580787976    -0.627447603582     0.783665519120
    H            2.537842176208    -1.426480544535     0.295440533989
    H            2.492690056856     0.307776320022     0.565442369888
    H            1.997726708126    -0.797822815956     1.852687289212

  Mulliken Charges: (a.u.)
   Center  Symbol    Alpha    Beta     Spin     Total
       1     H     0.33293  0.33293  0.00000  0.33415
       2     N     3.92533  3.92533  0.00000 -0.85066
       3     C     3.06900  3.06900  0.00000 -0.13801
       4     H     0.32365  0.32365  0.00000  0.35270
       5     C     2.98987  2.98987  0.00000  0.02026
       6     H     0.42661  0.42661  0.00000  0.14679
       7     H     0.42063  0.42063  0.00000  0.15873
       8     O     4.31361  4.31361  0.00000 -0.62722
       9     H     0.43133  0.43133  0.00000  0.13734
      10     H     0.42181  0.42181  0.00000  0.15638
      11     C     3.07571  3.07571  0.00000 -0.15143
      12     H     0.42492  0.42492  0.00000  0.15016
      13     H     0.42856  0.42856  0.00000  0.14288
      14     H     0.41605  0.41605  0.00000  0.16791

   Total alpha = 21.00000, Total beta = 21.00000, Total charge = -0.00000
