                              Psi4 1.0.54 Driver

  ==> Input File <==

--------------------------------------------------------------------------
set {
	reference rhf
	basis cc-pvtz
}

set_num_threads( 4 )
memory 2 gb

molecule MOL {
0 1

H	 1.128311	 0.207724	 1.465118
C	 1.134565	 0.093781	 0.372499
C	 0.062554	 0.862911	 -0.350953
O	 1.948932	 -0.587720	 -0.146651
C	 0.542694	 1.422245	 -1.693795
H	 -0.297417	 1.648504	 0.300783
H	 -0.756723	 0.168926	 -0.524860
C	 1.604105	 2.509657	 -1.553814
H	 -0.314084	 1.819636	 -2.225382
H	 0.927812	 0.610554	 -2.304767
H	 1.227439	 3.347922	 -0.978495
H	 1.905604	 2.880733	 -2.525946
H	 2.491954	 2.141674	 -1.051471

	symmetry c1
}
set optking {
	frozen_dihedral = ("
		6 3 2 4
	")
}

ee,wfn = optimize('scf', return_wfn=True)
oeprop( wfn, 'DIPOLE', 'QUADRUPOLE', 'MULLIKEN_CHARGES')
f=open( 'psi4out.xyz', 'w' )
f.write( "13  " )
f.write( str(ee) + "\n" )
f.write( MOL.save_string_xyz() )
f.close()
--------------------------------------------------------------------------

    Molecular point group: c1
  Charge       = 0
  Multiplicity = 1
  Basis Set: CC-PVTZ
  Basis Set:
  @DF-RHF Final Energy:  -231.06962225441521
    Total Energy =                       -231.0696222544152079
    Molecular point group: c1
  Basis Set: CC-PVTZ
  Basis Set:
  Basis Set: CC-PVTZ
  Basis Set:
  @DF-RHF Final Energy:  -231.06864122700748
    Total Energy =                       -231.0686412270075039
  Basis Set: CC-PVTZ
  Basis Set:
  Basis Set: CC-PVTZ
  Basis Set:
  @DF-RHF Final Energy:  -231.07011545503070
    Total Energy =                       -231.0701154550307592
  Basis Set: CC-PVTZ
  Basis Set:
  Basis Set: CC-PVTZ
  Basis Set:
  @DF-RHF Final Energy:  -231.07025854513421
    Total Energy =                       -231.0702585451342657
  Basis Set: CC-PVTZ
  Basis Set:
  Basis Set: CC-PVTZ
  Basis Set:
  @DF-RHF Final Energy:  -231.07026253892147
    Total Energy =                       -231.0702625389213267
  Basis Set: CC-PVTZ
  Basis Set:
  Charge       = 0
  Multiplicity = 1
  Basis Set: CC-PVTZ
  Basis Set:

    Orbital Energies (a.u.)
    -----------------------

    Doubly Occupied:

       1A    -20.552815     2A    -11.323550     3A    -11.235994
       4A    -11.225691     5A    -11.212695     6A     -1.408674
       7A     -1.080045     8A     -0.973244     9A     -0.852970
      10A     -0.767016    11A     -0.689016    12A     -0.638080
      13A     -0.630743    14A     -0.589734    15A     -0.562203
      16A     -0.528851    17A     -0.499870    18A     -0.486029
      19A     -0.481769    20A     -0.413540

  @DF-RHF Final Energy:  -231.07026352261295

   => Energetics <=

    Nuclear Repulsion Energy =            176.0292592395455813
    One-Electron Energy =                -661.8939847177866795
    Two-Electron Energy =                 254.7944619556278951
    DFT Exchange-Correlation Energy =       0.0000000000000000
    Empirical Dispersion Energy =           0.0000000000000000
    PCM Polarization Energy =               0.0000000000000000
    EFP Energy =                            0.0000000000000000
    Total Energy =                       -231.0702635226132031
    Molecular point group: c1
  Basis Set: CC-PVTZ
  Basis Set:

  -Total Gradient:
     Atom            X                  Y                   Z
    ------   -----------------  -----------------  -----------------
       1        0.000017901838    -0.000018899384    -0.000082111886
       2        0.001890151934     0.002450035794     0.000023669260
       3        0.001354215065     0.000965214238    -0.000961469705
       4       -0.001573112623    -0.001910125576     0.000173383895
       5        0.000002047790     0.000006180233    -0.000009987759
       6       -0.001665224895    -0.001443710468     0.000855432692
       7       -0.000017164193    -0.000001259939    -0.000019114168
       8       -0.000017607994    -0.000038663558     0.000037573461
       9        0.000010904737    -0.000002793255    -0.000009323971
      10       -0.000000355209     0.000002905827     0.000003041335
      11        0.000004530333    -0.000011411549     0.000001428380
      12       -0.000007050247    -0.000001405437    -0.000005201132
      13        0.000000763465     0.000003933074    -0.000007320403

  **** Optimization is complete! (in 6 steps) ****
    Final optimized geometry and variables:
    Molecular point group: c1

    Geometry (in Angstrom), charge = 0, multiplicity = 1:

    H            0.099607580481    -0.782539922914     2.152592619618
    C            0.101182090534    -0.800620054294     1.056395940258
    C           -0.968450643628     0.028844429099     0.387522790662
    O            0.871986182290    -1.486840614270     0.479055178028
    C           -0.583325001485     0.585828108995    -0.980335288366
    H           -1.290865139010     0.809074299080     1.069770578922
    H           -1.821163068680    -0.641447194095     0.288525284709
    C            0.492456789057     1.665791884104    -0.913688689229
    H           -1.474154051766     0.992576718903    -1.446506858251
    H           -0.244265338388    -0.229535728458    -1.606281359471
    H            0.169123916439     2.504178012328    -0.304913801335
    H            0.717521724830     2.044816163702    -1.903346490830
    H            1.413511200996     1.279863806401    -0.493467228641

  Mulliken Charges: (a.u.)
   Center  Symbol    Alpha    Beta     Spin     Total
       1     H     0.45429  0.45429  0.00000  0.09142
       2     C     2.91559  2.91559  0.00000  0.16882
       3     C     3.09595  3.09595  0.00000 -0.19190
       4     O     4.16798  4.16798  0.00000 -0.33596
       5     C     3.08606  3.08606  0.00000 -0.17212
       6     H     0.44745  0.44745  0.00000  0.10510
       7     H     0.43959  0.43959  0.00000  0.12081
       8     C     3.15161  3.15161  0.00000 -0.30323
       9     H     0.44703  0.44703  0.00000  0.10594
      10     H     0.44339  0.44339  0.00000  0.11322
      11     H     0.45705  0.45705  0.00000  0.08590
      12     H     0.44636  0.44636  0.00000  0.10727
      13     H     0.44765  0.44765  0.00000  0.10471

   Total alpha = 20.00000, Total beta = 20.00000, Total charge = -0.00000

*** Psi4 exiting successfully. Buy a developer a beer!
