                              Psi4 1.0.54 Driver

  ==> Input File <==

--------------------------------------------------------------------------
set {
	reference rhf
	basis cc-pvtz
}

set_num_threads( 4 )
memory 2 gb

molecule MOL {
0 1

H	 2.053512	 -0.837855	 -2.281856
C	 1.328469	 -1.034721	 -1.502860
C	 1.322304	 0.099773	 -0.484271
H	 0.358267	 -1.147237	 -1.973410
H	 1.588166	 -1.979571	 -1.039009
C	 0.308557	 -0.162619	 0.622645
H	 1.077043	 1.035947	 -0.970232
H	 2.304764	 0.208938	 -0.041785
N	 -1.069352	 -0.004081	 0.085342
H	 0.371632	 -1.172932	 0.991288
H	 0.400391	 0.548875	 1.426218
O	 -1.584901	 -0.965470	 -0.377818
O	 -1.548033	 1.079343	 0.130056

	symmetry c1
}
set optking {
	frozen_dihedral = ("
		7 3 6 9
	")
}

ee,wfn = optimize('scf', return_wfn=True)
oeprop( wfn, 'DIPOLE', 'QUADRUPOLE', 'MULLIKEN_CHARGES')
f=open( 'psi4out.xyz', 'w' )
f.write( "13  " )
f.write( str(ee) + "\n" )
f.write( MOL.save_string_xyz() )
f.close()
--------------------------------------------------------------------------

    Molecular point group: c1
  Charge       = 0
  Multiplicity = 1
  Basis Set: CC-PVTZ
  Basis Set:
  @DF-RHF Final Energy:  -321.85926056249082
    Total Energy =                       -321.8592605624907037
    Molecular point group: c1
  Basis Set: CC-PVTZ
  Basis Set:
  Basis Set: CC-PVTZ
  Basis Set:
  @DF-RHF Final Energy:  -321.85996940992777
    Total Energy =                       -321.8599694099279418
  Basis Set: CC-PVTZ
  Basis Set:
  Basis Set: CC-PVTZ
  Basis Set:
  @DF-RHF Final Energy:  -321.86015625976557
    Total Energy =                       -321.8601562597654038
  Basis Set: CC-PVTZ
  Basis Set:
  Basis Set: CC-PVTZ
  Basis Set:
  @DF-RHF Final Energy:  -321.86030887737456
    Total Energy =                       -321.8603088773745071
  Basis Set: CC-PVTZ
  Basis Set:
  @DF-RHF Final Energy:  -321.86035390910354
    Total Energy =                       -321.8603539091035373
  @DF-RHF Final Energy:  -321.86038145564078
    Total Energy =                       -321.8603814556410043
  @DF-RHF Final Energy:  -321.86045227200009
    Total Energy =                       -321.8604522720000887
  @DF-RHF Final Energy:  -321.86051603440768
    Total Energy =                       -321.8605160344077376
  @DF-RHF Final Energy:  -321.86066466017235
    Total Energy =                       -321.8606646601724037
  @DF-RHF Final Energy:  -321.86076335781723
    Total Energy =                       -321.8607633578174045
  Basis Set: CC-PVTZ
  Basis Set:
  @DF-RHF Final Energy:  -321.86081094643589
    Total Energy =                       -321.8608109464356062
  Basis Set: CC-PVTZ
  Basis Set:
  Basis Set: CC-PVTZ
  Basis Set:
  @DF-RHF Final Energy:  -321.86082562455516
    Total Energy =                       -321.8608256245553889
  Basis Set: CC-PVTZ
  Basis Set:
  Basis Set: CC-PVTZ
  Basis Set:
  @DF-RHF Final Energy:  -321.86082806090997
    Total Energy =                       -321.8608280609099666
  Basis Set: CC-PVTZ
  Basis Set:
  Charge       = 0
  Multiplicity = 1
  Basis Set: CC-PVTZ
  Basis Set:

    Orbital Energies (a.u.)
    -----------------------

    Doubly Occupied:

       1A    -20.593042     2A    -20.589382     3A    -15.837525
       4A    -11.297757     5A    -11.251662     6A    -11.229813
       7A     -1.636787     8A     -1.420982     9A     -1.132438
      10A     -1.021979    11A     -0.892988    12A     -0.824631
      13A     -0.762261    14A     -0.741863    15A     -0.729296
      16A     -0.646636    17A     -0.624148    18A     -0.596259
      19A     -0.531243    20A     -0.517471    21A     -0.514053
      22A     -0.487843    23A     -0.475290    24A     -0.454117

  @DF-RHF Final Energy:  -321.86082833442026

   => Energetics <=

    Nuclear Repulsion Energy =            252.4748438415588225
    One-Electron Energy =                -939.0524096746048599
    Two-Electron Energy =                 364.7167374986258892
    DFT Exchange-Correlation Energy =       0.0000000000000000
    Empirical Dispersion Energy =           0.0000000000000000
    PCM Polarization Energy =               0.0000000000000000
    EFP Energy =                            0.0000000000000000
    Total Energy =                       -321.8608283344201482
    Molecular point group: c1
  Basis Set: CC-PVTZ
  Basis Set:

  -Total Gradient:
     Atom            X                  Y                   Z
    ------   -----------------  -----------------  -----------------
       1       -0.000000238433    -0.000002882855    -0.000004626615
       2        0.000001726865     0.000002240958    -0.000002200378
       3        0.001982766810     0.001871833890     0.002103860268
       4        0.000000220493     0.000001219846     0.000001566967
       5        0.000000617251     0.000002337097     0.000000108954
       6       -0.000523787540    -0.002515057417    -0.001110710998
       7       -0.001577096494    -0.001041958189    -0.001547715898
       8        0.000003076785    -0.000002428072    -0.000002173976
       9        0.000089991473     0.001591775670     0.000559042277
      10       -0.000006713953     0.000005007609    -0.000004706975
      11       -0.000001302857     0.000000365929     0.000008059188
      12        0.000025127178     0.000024611682     0.000004545730
      13        0.000005612419     0.000062933848    -0.000005048542

  **** Optimization is complete! (in 14 steps) ****
    Final optimized geometry and variables:
    Molecular point group: c1

    Geometry (in Angstrom), charge = 0, multiplicity = 1:

    H            2.188810844578    -0.542422130717    -2.259041652236
    C            1.501273614773    -0.805253455032    -1.465113576243
    C            1.552385243810     0.236728228753    -0.351516332905
    H            0.510064285202    -0.874852482308    -1.897689154797
    H            1.773912991402    -1.788261216607    -1.098079157994
    C            0.614737753689    -0.072531017372     0.807777247870
    H            1.302748290717     1.211156760424    -0.747825988662
    H            2.554065100185     0.295356297928     0.057545721678
    N           -0.810228158608     0.155010475719     0.427506208459
    H            0.675308478574    -1.095612855738     1.136031608758
    H            0.786265750226     0.598437738531     1.635765642294
    O           -1.546363216027    -0.771725900918     0.476226989058
    O           -1.113411312219     1.255344297901     0.106330353867

  Mulliken Charges: (a.u.)
   Center  Symbol    Alpha    Beta     Spin     Total
       1     H     0.44498  0.44498  0.00000  0.11004
       2     C     3.14392  3.14392  0.00000 -0.28784
       3     C     3.09913  3.09913  0.00000 -0.19825
       4     H     0.44640  0.44640  0.00000  0.10720
       5     H     0.45358  0.45358  0.00000  0.09284
       6     C     3.04846  3.04846  0.00000 -0.09691
       7     H     0.43561  0.43561  0.00000  0.12878
       8     H     0.44530  0.44530  0.00000  0.10941
       9     N     3.27859  3.27859  0.00000  0.44281
      10     H     0.43264  0.43264  0.00000  0.13473
      11     H     0.42841  0.42841  0.00000  0.14318
      12     O     4.16865  4.16865  0.00000 -0.33729
      13     O     4.17434  4.17434  0.00000 -0.34868

   Total alpha = 24.00000, Total beta = 24.00000, Total charge =  0.00000

*** Psi4 exiting successfully. Buy a developer a beer!
