  ==> Input File <==

--------------------------------------------------------------------------
set {
	reference rhf
	basis 6-31G*
}

set_num_threads( 4 )
memory 2 gb

molecule MOL {
0 1

H	 0.737823	 1.349811	 -0.820030
O	 0.055946	 1.300438	 -0.164479
C	 0.004957	 -0.004114	 0.366649
C	 1.201664	 -0.828089	 -0.095740
C	 -1.317755	 -0.601827	 -0.081511
H	 0.013527	 0.048298	 1.454924
H	 1.216388	 -0.895289	 -1.178704
H	 2.135132	 -0.372895	 0.226467
H	 1.166770	 -1.832878	 0.313827
H	 -1.355732	 -0.658248	 -1.164429
H	 -2.141614	 0.017037	 0.254547
H	 -1.447303	 -1.600817	 0.322594

	symmetry c1
}
set optking {
	frozen_dihedral = ("
		1 2 3 4
	")
}

ee = optimize('scf')
oeprop('DIPOLE', 'QUADRUPOLE', 'MULLIKEN_CHARGES')
f=open( 'psi4out.xyz', 'w' )
f.write( "12  " )
f.write( str(ee) + "\n" )
f.write( MOL.save_string_xyz() )
f.close()
--------------------------------------------------------------------------

    Molecular point group: c1
  Charge       = 0
  Multiplicity = 1
  Basis Set: 6-31G*
  Basis Set:
  @DF-RHF Final Energy:  -193.11199532692135
    Total Energy =                       -193.1119953269214307
    Molecular point group: c1
  Basis Set: 6-31G*
  Basis Set:
  Basis Set: 6-31G*
  Basis Set:
  @DF-RHF Final Energy:  -193.11256212012398
    Total Energy =                       -193.1125621201239539
  Basis Set: 6-31G*
  Basis Set:
  Basis Set: 6-31G*
  Basis Set:
  @DF-RHF Final Energy:  -193.11280728291663
    Total Energy =                       -193.1128072829164921
  Basis Set: 6-31G*
  Basis Set:
  Basis Set: 6-31G*
  Basis Set:
  @DF-RHF Final Energy:  -193.11280861380035
    Total Energy =                       -193.1128086138003823
  Basis Set: 6-31G*
  Basis Set:
  Charge       = 0
  Multiplicity = 1
  Basis Set: 6-31G*
  Basis Set:

    Orbital Energies (a.u.)
    -----------------------

    Doubly Occupied:

       1A    -20.548587     2A    -11.275497     3A    -11.220602
       4A    -11.206222     5A     -1.358048     6A     -1.042813
       7A     -0.942990     8A     -0.813574     9A     -0.665176
      10A     -0.649162    11A     -0.606476    12A     -0.557572
      13A     -0.546300    14A     -0.516679    15A     -0.513900
      16A     -0.466217    17A     -0.427417

  @DF-RHF Final Energy:  -193.11280878984036

   => Energetics <=

    Nuclear Repulsion Energy =            135.4081744273476602
    One-Electron Energy =                -530.3275047132634654
    Two-Electron Energy =                 201.8065214960754474
    DFT Exchange-Correlation Energy =       0.0000000000000000
    Empirical Dispersion Energy =           0.0000000000000000
    PCM Polarization Energy =               0.0000000000000000
    EFP Energy =                            0.0000000000000000
    Total Energy =                       -193.1128087898403578
    Molecular point group: c1
  Basis Set: 6-31G*
  Basis Set:

  -Total Gradient:
     Atom            X                  Y                   Z
    ------   -----------------  -----------------  -----------------
       1        0.000478351934     0.000154317053     0.000533523550
       2       -0.000686439016    -0.000264106640    -0.000797634804
       3        0.000419116350     0.000200122021     0.000614229379
       4       -0.000200988364    -0.000086473114    -0.000346934506
       5       -0.000013796688     0.000033391211    -0.000007847037
       6        0.000005785606    -0.000019615216    -0.000006956532
       7       -0.000018340212     0.000007061219     0.000023235415
       8        0.000013589991    -0.000005408405    -0.000025175556
       9        0.000000330745    -0.000014969648     0.000006918762
      10        0.000002216567     0.000000939577     0.000010295413
      11       -0.000004890177    -0.000001853423    -0.000005583392
      12        0.000005063263    -0.000003404638     0.000001929308

  **** Optimization is complete! (in 5 steps) ****
    Final optimized geometry and variables:
    Molecular point group: c1

    Geometry (in Angstrom), charge = 0, multiplicity = 1:

    H            0.768876169784     1.403339843092    -0.761443759259
    O            0.074764594754     1.325541913174    -0.123949374435
    C            0.000685443517     0.001649217582     0.363644782916
    C            1.197091395767    -0.825679637915    -0.090646330046
    C           -1.323736562635    -0.613256883882    -0.068301207499
    H            0.017496238985     0.068366255077     1.447131298218
    H            1.211925649369    -0.916077336388    -1.174578075477
    H            2.127748066877    -0.365308899948     0.228373077194
    H            1.159056859188    -1.826700171586     0.325260522662
    H           -1.365768060772    -0.706608624393    -1.149533673049
    H           -2.146863544626     0.017922526753     0.246493143699
    H           -1.459258905906    -1.598711976209     0.368168953496

  Mulliken Charges: (a.u.)
   Center  Symbol    Alpha    Beta     Spin     Total
       1     H     0.27986  0.27986  0.00000  0.44029
       2     O     4.37934  4.37934  0.00000 -0.75868
       3     C     2.90533  2.90533  0.00000  0.18935
       4     C     3.26659  3.26659  0.00000 -0.53318
       5     C     3.23872  3.23872  0.00000 -0.47744
       6     H     0.42175  0.42175  0.00000  0.15651
       7     H     0.42093  0.42093  0.00000  0.15815
       8     H     0.41460  0.41460  0.00000  0.17080
       9     H     0.41373  0.41373  0.00000  0.17254
      10     H     0.42267  0.42267  0.00000  0.15465
      11     H     0.41091  0.41091  0.00000  0.17819
      12     H     0.42558  0.42558  0.00000  0.14884

   Total alpha = 17.00000, Total beta = 17.00000, Total charge = -0.00000
