  ==> Input File <==

--------------------------------------------------------------------------
set {
	reference rhf
	basis 6-31G*
}

set_num_threads( 4 )
memory 2 gb

molecule MOL {
0 1

H	 -2.097415	 1.354475	 -2.856168
C	 -2.565721	 0.553596	 -2.270589
C	 -1.755909	 -0.713271	 -2.161669
O	 -3.634371	 0.720074	 -1.778630
C	 -0.323782	 -0.456179	 -1.672616
H	 -2.282307	 -1.400791	 -1.509803
H	 -1.720559	 -1.156756	 -3.156016
C	 -0.252658	 0.041456	 -0.226725
H	 0.241908	 -1.378546	 -1.764910
H	 0.159732	 0.262555	 -2.332459
C	 1.180775	 0.282413	 0.250794
H	 -0.734927	 -0.685176	 0.423866
H	 -0.823993	 0.962174	 -0.124769
C	 2.148627	 -0.814315	 -0.201312
H	 1.516199	 1.249228	 -0.115937
H	 1.192670	 0.346017	 1.338083
C	 3.580890	 -0.659131	 0.322722
H	 2.166869	 -0.852443	 -1.289387
H	 1.762857	 -1.776509	 0.128956
C	 4.324889	 0.564933	 -0.213704
H	 4.142010	 -1.551473	 0.056605
H	 3.564836	 -0.624694	 1.410140
H	 4.342616	 0.565491	 -1.300421
H	 3.866655	 1.493402	 0.110242
H	 5.353900	 0.572371	 0.132816

	symmetry c1
}
set optking {
	frozen_dihedral = ("
		12 8 11 14
	")
}

ee = optimize('scf')
oeprop('DIPOLE', 'QUADRUPOLE', 'MULLIKEN_CHARGES')
f=open( 'psi4out.xyz', 'w' )
f.write( "25  " )
f.write( str(ee) + "\n" )
f.write( MOL.save_string_xyz() )
f.close()
--------------------------------------------------------------------------

    Molecular point group: c1
  Charge       = 0
  Multiplicity = 1
  Basis Set: 6-31G*
  Basis Set:
  @DF-RHF Final Energy:  -387.11625206574433
    Total Energy =                       -387.1162520657449022
    Molecular point group: c1
  Basis Set: 6-31G*
  Basis Set:
  Basis Set: 6-31G*
  Basis Set:
  @DF-RHF Final Energy:  -387.11699836493801
    Total Energy =                       -387.1169983649377855
  Basis Set: 6-31G*
  Basis Set:
  Basis Set: 6-31G*
  Basis Set:
  @DF-RHF Final Energy:  -387.11834187047066
    Total Energy =                       -387.1183418704709993
  Basis Set: 6-31G*
  Basis Set:
  Basis Set: 6-31G*
  Basis Set:
  @DF-RHF Final Energy:  -387.11827200514040
    Total Energy =                       -387.1182720051397155
  Basis Set: 6-31G*
  Basis Set:
  @DF-RHF Final Energy:  -387.11842567355529
    Total Energy =                       -387.1184256735552935
  @DF-RHF Final Energy:  -387.11850661668370
    Total Energy =                       -387.1185066166831348
  Basis Set: 6-31G*
  Basis Set:
  @DF-RHF Final Energy:  -387.11850770986905
    Total Energy =                       -387.1185077098691636
  Basis Set: 6-31G*
  Basis Set:
  Basis Set: 6-31G*
  Basis Set:
  @DF-RHF Final Energy:  -387.11851264681161
    Total Energy =                       -387.1185126468114959
  Basis Set: 6-31G*
  Basis Set:
  Basis Set: 6-31G*
  Basis Set:
  @DF-RHF Final Energy:  -387.11851491413148
    Total Energy =                       -387.1185149141313104
  Basis Set: 6-31G*
  Basis Set:
  Charge       = 0
  Multiplicity = 1
  Basis Set: 6-31G*
  Basis Set:

    Orbital Energies (a.u.)
    -----------------------

    Doubly Occupied:

       1A    -20.562042     2A    -11.326167     3A    -11.235255
       4A    -11.234658     5A    -11.224377     6A    -11.220329
       7A    -11.219319     8A    -11.218560     9A    -11.211599
      10A     -1.401989    11A     -1.104167    12A     -1.069051
      13A     -1.012341    14A     -0.940229    15A     -0.884547
      16A     -0.824166    17A     -0.791974    18A     -0.769587
      19A     -0.664935    20A     -0.657222    21A     -0.632839
      22A     -0.625868    23A     -0.598780    24A     -0.596144
      25A     -0.586730    26A     -0.545701    27A     -0.540184
      28A     -0.524320    29A     -0.514059    30A     -0.501892
      31A     -0.486665    32A     -0.478112    33A     -0.459434
      34A     -0.451868    35A     -0.447598    36A     -0.409300

  @DF-RHF Final Energy:  -387.11851435094309

   => Energetics <=

    Nuclear Repulsion Energy =            443.6814476533028255
    One-Electron Energy =               -1403.6559038470045380
    Two-Electron Energy =                 572.8559418427591936
    DFT Exchange-Correlation Energy =       0.0000000000000000
    Empirical Dispersion Energy =           0.0000000000000000
    PCM Polarization Energy =               0.0000000000000000
    EFP Energy =                            0.0000000000000000
    Total Energy =                       -387.1185143509425188
    Molecular point group: c1
  Basis Set: 6-31G*
  Basis Set:

  -Total Gradient:
     Atom            X                  Y                   Z
    ------   -----------------  -----------------  -----------------
       1        0.000003336608     0.000006774163     0.000006273596
       2       -0.000009036418    -0.000011681627    -0.000050236152
       3       -0.000001568109    -0.000027091746     0.000003070435
       4        0.000001162874     0.000010967345     0.000011100987
       5       -0.000014342958     0.000026113969    -0.000022514573
       6       -0.000000811619     0.000013203065     0.000013948961
       7        0.000018014232    -0.000018692804     0.000010208608
       8        0.002150810002    -0.003865916873    -0.004621619149
       9       -0.000042860444    -0.000000309071    -0.000024097243
      10        0.000012813019     0.000006442404     0.000009560552
      11       -0.001215256386    -0.001524079489     0.005051378441
      12       -0.001509268720     0.003704887583     0.002689520657
      13        0.000002974792    -0.000012954588     0.000008760058
      14        0.000599792980     0.001689335896    -0.003074374661
      15       -0.000017739893    -0.000011973010    -0.000001204755
      16        0.000010849029    -0.000002053342     0.000017355266
      17       -0.000006451085     0.000002920673    -0.000023653967
      18        0.000013220836     0.000028700757     0.000007041053
      19        0.000009117782    -0.000015512365    -0.000023101397
      20        0.000016416725    -0.000003455657     0.000001815481
      21       -0.000019351095    -0.000022542923     0.000018722203
      22       -0.000011876427     0.000031093286     0.000000362768
      23        0.000001286821     0.000004727361    -0.000005728274
      24        0.000007418462    -0.000005491671    -0.000000677967
      25        0.000001348991    -0.000003411338    -0.000001910922

  **** Optimization is complete! (in 10 steps) ****
    Final optimized geometry and variables:
    Molecular point group: c1

    Geometry (in Angstrom), charge = 0, multiplicity = 1:

    H           -2.386649924493     1.405995273740    -1.987983500682
    C           -2.890384260326     0.663977441661    -1.355906278797
    C           -2.186938154718    -0.665276125957    -1.249940534527
    O           -3.917230590426     0.933285511563    -0.822135485223
    C           -0.712570947885    -0.524536659931    -0.844749342590
    H           -2.734143306057    -1.287156460218    -0.550815248214
    H           -2.244872195533    -1.135820622440    -2.230641853959
    C           -0.534998621454    -0.023610915271     0.590524306185
    H           -0.234283635682    -1.489654264447    -0.967273686342
    H           -0.212052282723     0.153024898913    -1.535274470978
    C            0.912684805693     0.263698799859     1.020783530414
    H           -0.994137484500    -0.720227276685     1.289035210318
    H           -1.101104172078     0.897908702052     0.715153171452
    C            1.935725162456    -0.809473583342     0.632260498826
    H            1.217793125383     1.213247919866     0.587861571079
    H            0.927468168101     0.404540877485     2.098827402255
    C            3.323032394265    -0.605705098850     1.252974897709
    H            2.037206715670    -0.848419135951    -0.449399998877
    H            1.563084595974    -1.785388815624     0.939672573935
    C            4.052694395292     0.652443817166     0.778425262993
    H            3.935012130857    -1.473182547786     1.018449998402
    H            3.231856325115    -0.583025737207     2.336890897941
    H            4.144699043315     0.665576352033    -0.304474051841
    H            3.537224520050     1.558835982704     1.077981925001
    H            5.054550999091     0.695925934106     1.194216593516

  Mulliken Charges: (a.u.)
   Center  Symbol    Alpha    Beta     Spin     Total
       1     H     0.43263  0.43263  0.00000  0.13473
       2     C     2.83088  2.83088  0.00000  0.33825
       3     C     3.20802  3.20802  0.00000 -0.41604
       4     O     4.23784  4.23784  0.00000 -0.47569
       5     C     3.16928  3.16928  0.00000 -0.33855
       6     H     0.39959  0.39959  0.00000  0.20082
       7     H     0.40648  0.40648  0.00000  0.18705
       8     C     3.15706  3.15706  0.00000 -0.31411
       9     H     0.40965  0.40965  0.00000  0.18069
      10     H     0.41996  0.41996  0.00000  0.16008
      11     C     3.15442  3.15442  0.00000 -0.30884
      12     H     0.41798  0.41798  0.00000  0.16404
      13     H     0.41693  0.41693  0.00000  0.16613
      14     C     3.15670  3.15670  0.00000 -0.31340
      15     H     0.42115  0.42115  0.00000  0.15771
      16     H     0.41892  0.41892  0.00000  0.16216
      17     C     3.15223  3.15223  0.00000 -0.30445
      18     H     0.42265  0.42265  0.00000  0.15469
      19     H     0.42244  0.42244  0.00000  0.15512
      20     C     3.24171  3.24171  0.00000 -0.48342
      21     H     0.42057  0.42057  0.00000  0.15886
      22     H     0.42245  0.42245  0.00000  0.15510
      23     H     0.42273  0.42273  0.00000  0.15455
      24     H     0.41937  0.41937  0.00000  0.16126
      25     H     0.41837  0.41837  0.00000  0.16326

   Total alpha = 36.00000, Total beta = 36.00000, Total charge =  0.00000
