  ==> Input File <==

--------------------------------------------------------------------------
set {
	reference rhf
	basis 6-31G*
}

set_num_threads( 4 )
memory 2 gb

molecule MOL {
0 1

H	 -0.944757	 -0.000069	 1.678017
O	 -0.042387	 -0.000390	 1.388199
C	 -0.001487	 0.000018	 -0.026623
C	 -0.236291	 1.420066	 -0.545248
C	 1.351047	 -0.535927	 -0.499971
C	 -1.131939	 -0.927359	 -0.458446
H	 -0.252654	 1.447874	 -1.630078
H	 0.552651	 2.089276	 -0.209639
H	 -1.181170	 1.803010	 -0.175688
H	 1.400194	 -0.585830	 -1.583107
H	 2.160842	 0.106632	 -0.161916
H	 1.521599	 -1.529488	 -0.100439
H	 -1.186761	 -0.996190	 -1.540112
H	 -2.081387	 -0.558946	 -0.086548
H	 -0.975078	 -1.921724	 -0.055922

	symmetry c1
}
set optking {
	frozen_dihedral = ("
		4 3 2 1
	")
}

ee = optimize('scf')
oeprop('DIPOLE', 'QUADRUPOLE', 'MULLIKEN_CHARGES')
f=open( 'psi4out.xyz', 'w' )
f.write( "15  " )
f.write( str(ee) + "\n" )
f.write( MOL.save_string_xyz() )
f.close()
--------------------------------------------------------------------------

    Molecular point group: c1
  Charge       = 0
  Multiplicity = 1
  Basis Set: 6-31G*
  Basis Set:
  @DF-RHF Final Energy:  -232.15032619037328
    Total Energy =                       -232.1503261903730504
    Molecular point group: c1
  Basis Set: 6-31G*
  Basis Set:
  Basis Set: 6-31G*
  Basis Set:
  @DF-RHF Final Energy:  -232.15231037511768
    Total Energy =                       -232.1523103751179065
  Basis Set: 6-31G*
  Basis Set:
  Basis Set: 6-31G*
  Basis Set:
  @DF-RHF Final Energy:  -232.15278604249289
    Total Energy =                       -232.1527860424931191
  Basis Set: 6-31G*
  Basis Set:
  Basis Set: 6-31G*
  Basis Set:
  @DF-RHF Final Energy:  -232.15276159624960
    Total Energy =                       -232.1527615962498317
  Basis Set: 6-31G*
  Basis Set:
  Basis Set: 6-31G*
  Basis Set:
  @DF-RHF Final Energy:  -232.15280266309375
    Total Energy =                       -232.1528026630936665
  Basis Set: 6-31G*
  Basis Set:
  Charge       = 0
  Multiplicity = 1
  Basis Set: 6-31G*
  Basis Set:

    Orbital Energies (a.u.)
    -----------------------

    Doubly Occupied:

       1A    -20.548645     2A    -11.281826     3A    -11.214757
       4A    -11.207733     5A    -11.204858     6A     -1.360096
       7A     -1.063398     8A     -0.943366     9A     -0.937388
      10A     -0.775590    11A     -0.670021    12A     -0.622412
      13A     -0.621120    14A     -0.574814    15A     -0.556702
      16A     -0.531743    17A     -0.516766    18A     -0.508920
      19A     -0.502640    20A     -0.456970    21A     -0.424739

  @DF-RHF Final Energy:  -232.15280324796490

   => Energetics <=

    Nuclear Repulsion Energy =            200.3360713880162223
    One-Electron Energy =                -711.9287365439266750
    Two-Electron Energy =                 279.4398619079457262
    DFT Exchange-Correlation Energy =       0.0000000000000000
    Empirical Dispersion Energy =           0.0000000000000000
    PCM Polarization Energy =               0.0000000000000000
    EFP Energy =                            0.0000000000000000
    Total Energy =                       -232.1528032479647550
    Molecular point group: c1
  Basis Set: 6-31G*
  Basis Set:

  -Total Gradient:
     Atom            X                  Y                   Z
    ------   -----------------  -----------------  -----------------
       1       -0.000053106456    -0.001848697572     0.000031827066
       2        0.000448657679     0.002290918461    -0.000018012834
       3       -0.001533687401    -0.000595554536     0.000142115816
       4        0.001109372247     0.000145638323    -0.000090229763
       5       -0.000016158679    -0.000017598284    -0.000052527027
       6        0.000032732750    -0.000012581738     0.000001563635
       7       -0.000007106060     0.000020127709    -0.000004220252
       8        0.000006678078    -0.000016521180    -0.000005932110
       9       -0.000000646937     0.000003981761     0.000005699380
      10        0.000008109251    -0.000002179600     0.000006393353
      11       -0.000002951048     0.000018418479    -0.000001243940
      12       -0.000006080724    -0.000002318245     0.000006409878
      13       -0.000000884806    -0.000012799426    -0.000028010021
      14        0.000038538962     0.000010242169    -0.000001472352
      15       -0.000023466857     0.000018923679     0.000007639169

  **** Optimization is complete! (in 6 steps) ****
    Final optimized geometry and variables:
    Molecular point group: c1

    Geometry (in Angstrom), charge = 0, multiplicity = 1:

    H           -0.818873631220     0.063757117733     1.746373438517
    O            0.057514771911     0.026869295338     1.388630575544
    C           -0.004648804621     0.001835272785    -0.026240262216
    C           -0.228525824626     1.423889986348    -0.543997879476
    C            1.353134676623    -0.525100635811    -0.479891094799
    C           -1.126603186638    -0.932021686766    -0.481404388444
    H           -0.243486020586     1.454512107590    -1.629247701776
    H            0.561399154788     2.076799643457    -0.190412439155
    H           -1.175411735520     1.819045112381    -0.185230951020
    H            1.419111968141    -0.552139189061    -1.562900466415
    H            2.145177792622     0.112006264884    -0.102439263321
    H            1.515164081505    -1.526383814230    -0.096818295614
    H           -1.165317460588    -1.003049970024    -1.563343198806
    H           -2.094598676750    -0.569547572261    -0.141649034201
    H           -0.976867918951    -1.927595460446    -0.077198531043

  Mulliken Charges: (a.u.)
   Center  Symbol    Alpha    Beta     Spin     Total
       1     H     0.28300  0.28300  0.00000  0.43400
       2     O     4.37758  4.37758  0.00000 -0.75517
       3     C     2.85142  2.85142  0.00000  0.29717
       4     C     3.23558  3.23558  0.00000 -0.47116
       5     C     3.23326  3.23326  0.00000 -0.46653
       6     C     3.24931  3.24931  0.00000 -0.49862
       7     H     0.42365  0.42365  0.00000  0.15269
       8     H     0.41259  0.41259  0.00000  0.17481
       9     H     0.42567  0.42567  0.00000  0.14867
      10     H     0.42446  0.42446  0.00000  0.15108
      11     H     0.41282  0.41282  0.00000  0.17437
      12     H     0.41485  0.41485  0.00000  0.17030
      13     H     0.41782  0.41782  0.00000  0.16436
      14     H     0.42558  0.42558  0.00000  0.14885
      15     H     0.41241  0.41241  0.00000  0.17518

   Total alpha = 21.00000, Total beta = 21.00000, Total charge = -0.00000
