  ==> Input File <==

--------------------------------------------------------------------------
set {
	reference rhf
	basis cc-pvtz
}

set_num_threads( 4 )
memory 2 gb

molecule MOL {
0 1

H	 -2.649014	 -0.989077	 -0.259802
O	 -2.313989	 -0.142475	 -0.025864
C	 -0.943808	 -0.065018	 -0.330000
H	 -0.812293	 -0.225641	 -1.398673
C	 -0.231030	 -1.182113	 0.407592
C	 -0.353797	 1.300461	 0.050970
H	 -0.312800	 -0.992012	 1.473041
H	 -0.738841	 -2.119564	 0.220514
C	 1.246176	 -1.268044	 -0.015480
H	 -0.539537	 2.008579	 -0.751815
H	 -0.889989	 1.662858	 0.920677
C	 1.153605	 1.231851	 0.356834
H	 1.823096	 -1.684665	 0.802361
H	 1.352335	 -1.958223	 -0.845114
C	 1.826409	 0.100723	 -0.416008
H	 1.622968	 2.181508	 0.128734
H	 1.301983	 1.066493	 1.419367
H	 2.897299	 0.112407	 -0.249665
H	 1.683458	 0.265621	 -1.480024

	symmetry c1
}
set optking {
	frozen_dihedral = ("
		1 2 3 4
	")
}

ee = optimize('scf')
oeprop('DIPOLE', 'QUADRUPOLE', 'MULLIKEN_CHARGES')
f=open( 'psi4out.xyz', 'w' )
f.write( "19  " )
f.write( str(ee) + "\n" )
f.write( MOL.save_string_xyz() )
f.close()
--------------------------------------------------------------------------

    Molecular point group: c1
  Charge       = 0
  Multiplicity = 1
  Basis Set: CC-PVTZ
  Basis Set:
  @DF-RHF Final Energy:  -309.16190613814189
    Total Energy =                       -309.1619061381415463
    Molecular point group: c1
  Basis Set: CC-PVTZ
  Basis Set:
  Basis Set: CC-PVTZ
  Basis Set:
  @DF-RHF Final Energy:  -309.16359498272948
    Total Energy =                       -309.1635949827301033
  Basis Set: CC-PVTZ
  Basis Set:
  Basis Set: CC-PVTZ
  Basis Set:
  @DF-RHF Final Energy:  -309.16386818409717
    Total Energy =                       -309.1638681840970548
  Basis Set: CC-PVTZ
  Basis Set:
  Basis Set: CC-PVTZ
  Basis Set:
  @DF-RHF Final Energy:  -309.16387461761502
    Total Energy =                       -309.1638746176151926
  Basis Set: CC-PVTZ
  Basis Set:
  Charge       = 0
  Multiplicity = 1
  Basis Set: CC-PVTZ
  Basis Set:

    Orbital Energies (a.u.)
    -----------------------

    Doubly Occupied:

       1A    -20.543593     2A    -11.267511     3A    -11.216118
       4A    -11.213673     5A    -11.212381     6A    -11.211992
       7A    -11.206994     8A     -1.363589     9A     -1.110242
      10A     -1.003317    11A     -0.989531    12A     -0.848990
      13A     -0.831487    14A     -0.734027    15A     -0.707692
      16A     -0.657634    17A     -0.618218    18A     -0.611500
      19A     -0.570270    20A     -0.546975    21A     -0.531103
      22A     -0.520401    23A     -0.499138    24A     -0.486758
      25A     -0.468460    26A     -0.449511    27A     -0.429023
      28A     -0.413242

  @DF-RHF Final Energy:  -309.16387556631463

   => Energetics <=

    Nuclear Repulsion Energy =            332.0290952013244237
    One-Electron Energy =               -1077.8592044259007707
    Two-Electron Energy =                 436.6662336582617172
    DFT Exchange-Correlation Energy =       0.0000000000000000
    Empirical Dispersion Energy =           0.0000000000000000
    PCM Polarization Energy =               0.0000000000000000
    EFP Energy =                            0.0000000000000000
    Total Energy =                       -309.1638755663145730
    Molecular point group: c1
  Basis Set: CC-PVTZ
  Basis Set:

  -Total Gradient:
     Atom            X                  Y                   Z
    ------   -----------------  -----------------  -----------------
       1        0.000075436540    -0.000128099798     0.000327187161
       2       -0.000069751218     0.000208258882    -0.000433629819
       3        0.000037516299    -0.000386688850     0.000218526350
       4       -0.000014592189     0.000306336466    -0.000021457284
       5       -0.000059424126     0.000026158125    -0.000056283786
       6        0.000020102145     0.000022579553    -0.000015296832
       7        0.000002042459     0.000003679900    -0.000011099157
       8        0.000000913851    -0.000001526437    -0.000003535755
       9        0.000043238013     0.000019657052    -0.000003936701
      10        0.000002970305     0.000010607665    -0.000004675451
      11       -0.000016409503    -0.000037321075    -0.000009738175
      12        0.000006825723     0.000016991993    -0.000012180751
      13        0.000023632457    -0.000008061487     0.000017840190
      14       -0.000000078509     0.000005371019     0.000015105850
      15       -0.000032639093    -0.000037039501    -0.000000258123
      16       -0.000010248002     0.000001626659     0.000001402342
      17       -0.000008529272    -0.000002141582     0.000002068290
      18        0.000001454453    -0.000031945633    -0.000006822035
      19       -0.000002460337     0.000011557048    -0.000003216316

  **** Optimization is complete! (in 5 steps) ****
    Final optimized geometry and variables:
    Molecular point group: c1

    Geometry (in Angstrom), charge = 0, multiplicity = 1:

    H           -2.717892747532    -0.864583191983    -0.264693368994
    O           -2.317929516085    -0.048918239887    -0.023276708254
    C           -0.945858764329    -0.078739884439    -0.327327823480
    H           -0.825735064498    -0.240414791789    -1.397321339027
    C           -0.212189886133    -1.188658107770     0.410165497225
    C           -0.368590535321     1.291270593477     0.037008946477
    H           -0.288607700353    -0.997917560690     1.475762895350
    H           -0.701061054149    -2.141841532709     0.232210444743
    C            1.262643219637    -1.262320857433    -0.023962786370
    H           -0.555825528170     1.980942588002    -0.778117332053
    H           -0.919357880960     1.663095595800     0.892200509736
    C            1.134796984135     1.234130525933     0.357914182480
    H            1.847951920677    -1.681514720531     0.786581722150
    H            1.368027014038    -1.945136300954    -0.859871535749
    C            1.827124689521     0.115707584749    -0.416203183229
    H            1.595502689695     2.190090380256     0.138960742444
    H            1.277205186568     1.064766695021     1.420915361135
    H            2.897009063513     0.139052422870    -0.244912596056
    H            1.686268400813     0.283528467972    -1.479932489342

  Mulliken Charges: (a.u.)
   Center  Symbol    Alpha    Beta     Spin     Total
       1     H     0.39616  0.39616  0.00000  0.20768
       2     O     4.20147  4.20147  0.00000 -0.40293
       3     C     2.92734  2.92734  0.00000  0.14532
       4     H     0.46324  0.46324  0.00000  0.07353
       5     C     3.10245  3.10245  0.00000 -0.20490
       6     C     3.11097  3.11097  0.00000 -0.22193
       7     H     0.45232  0.45232  0.00000  0.09537
       8     H     0.45070  0.45070  0.00000  0.09859
       9     C     3.11436  3.11436  0.00000 -0.22873
      10     H     0.44755  0.44755  0.00000  0.10491
      11     H     0.44366  0.44366  0.00000  0.11267
      12     C     3.10074  3.10074  0.00000 -0.20148
      13     H     0.44702  0.44702  0.00000  0.10595
      14     H     0.44792  0.44792  0.00000  0.10416
      15     C     3.10178  3.10178  0.00000 -0.20355
      16     H     0.44181  0.44181  0.00000  0.11637
      17     H     0.45377  0.45377  0.00000  0.09245
      18     H     0.44291  0.44291  0.00000  0.11418
      19     H     0.45383  0.45383  0.00000  0.09234

   Total alpha = 28.00000, Total beta = 28.00000, Total charge = -0.00000
