  ==> Input File <==

--------------------------------------------------------------------------
set {
	reference rhf
	basis cc-pvtz
}

set_num_threads( 4 )
memory 2 gb

molecule MOL {
0 1

H	 -2.791862	 -0.462799	 -0.769324
O	 -2.313989	 -0.142475	 -0.025864
C	 -0.943808	 -0.065018	 -0.330000
H	 -0.812293	 -0.225641	 -1.398673
C	 -0.231030	 -1.182113	 0.407592
C	 -0.353797	 1.300461	 0.050970
H	 -0.312800	 -0.992012	 1.473041
H	 -0.738841	 -2.119564	 0.220514
C	 1.246176	 -1.268044	 -0.015480
H	 -0.539537	 2.008579	 -0.751815
H	 -0.889989	 1.662858	 0.920677
C	 1.153605	 1.231851	 0.356834
H	 1.823096	 -1.684665	 0.802361
H	 1.352335	 -1.958223	 -0.845114
C	 1.826409	 0.100723	 -0.416008
H	 1.622968	 2.181508	 0.128734
H	 1.301983	 1.066493	 1.419367
H	 2.897299	 0.112407	 -0.249665
H	 1.683458	 0.265621	 -1.480024

	symmetry c1
}
set optking {
	frozen_dihedral = ("
		1 2 3 4
	")
}

ee = optimize('scf')
oeprop('DIPOLE', 'QUADRUPOLE', 'MULLIKEN_CHARGES')
f=open( 'psi4out.xyz', 'w' )
f.write( "19  " )
f.write( str(ee) + "\n" )
f.write( MOL.save_string_xyz() )
f.close()
--------------------------------------------------------------------------

    Molecular point group: c1
  Charge       = 0
  Multiplicity = 1
  Basis Set: CC-PVTZ
  Basis Set:
  @DF-RHF Final Energy:  -309.16132825442395
    Total Energy =                       -309.1613282544238928
    Molecular point group: c1
  Basis Set: CC-PVTZ
  Basis Set:
  Basis Set: CC-PVTZ
  Basis Set:
  @DF-RHF Final Energy:  -309.16203717094385
    Total Energy =                       -309.1620371709439041
  Basis Set: CC-PVTZ
  Basis Set:
  Basis Set: CC-PVTZ
  Basis Set:
  @DF-RHF Final Energy:  -309.16219040693846
    Total Energy =                       -309.1621904069385778
  Basis Set: CC-PVTZ
  Basis Set:
  Basis Set: CC-PVTZ
  Basis Set:
  @DF-RHF Final Energy:  -309.16219307827959
    Total Energy =                       -309.1621930782799836
  Basis Set: CC-PVTZ
  Basis Set:
  Charge       = 0
  Multiplicity = 1
  Basis Set: CC-PVTZ
  Basis Set:

    Orbital Energies (a.u.)
    -----------------------

    Doubly Occupied:

       1A    -20.542508     2A    -11.268457     3A    -11.213522
       4A    -11.212635     5A    -11.211507     6A    -11.206651
       7A    -11.206531     8A     -1.361854     9A     -1.108938
      10A     -1.000847    11A     -0.989408    12A     -0.843249
      13A     -0.832326    14A     -0.731341    15A     -0.715513
      16A     -0.654952    17A     -0.623948    18A     -0.597045
      19A     -0.562284    20A     -0.545449    21A     -0.540080
      22A     -0.517387    23A     -0.497781    24A     -0.487591
      25A     -0.464906    26A     -0.449827    27A     -0.430364
      28A     -0.407746

  @DF-RHF Final Energy:  -309.16219340581011

   => Energetics <=

    Nuclear Repulsion Energy =            331.6558558173489359
    One-Electron Energy =               -1077.1868048917124270
    Two-Electron Energy =                 436.3687556685534901
    DFT Exchange-Correlation Energy =       0.0000000000000000
    Empirical Dispersion Energy =           0.0000000000000000
    PCM Polarization Energy =               0.0000000000000000
    EFP Energy =                            0.0000000000000000
    Total Energy =                       -309.1621934058099441
    Molecular point group: c1
  Basis Set: CC-PVTZ
  Basis Set:

  -Total Gradient:
     Atom            X                  Y                   Z
    ------   -----------------  -----------------  -----------------
       1       -0.000100205318     0.001094318057    -0.000381510939
       2        0.000132949063    -0.001611669441     0.000495374911
       3       -0.000083039929     0.001512848997    -0.000246496059
       4        0.000040149880    -0.000972798696     0.000165946277
       5        0.000014510452     0.000000483862    -0.000018245897
       6        0.000014837818     0.000004383737    -0.000009517414
       7       -0.000000454567    -0.000000415270    -0.000003393384
       8       -0.000002940277    -0.000006040731    -0.000001187232
       9        0.000002265841    -0.000001509098     0.000012932701
      10        0.000006088751     0.000008749159    -0.000002669316
      11       -0.000003520559    -0.000018871368    -0.000004375429
      12        0.000002195831     0.000004651209    -0.000013713202
      13        0.000009137148    -0.000008443089     0.000006282608
      14       -0.000000872633     0.000004699618     0.000005758382
      15       -0.000016466971    -0.000007589652    -0.000002019794
      16       -0.000006215469     0.000002898770     0.000000663855
      17       -0.000007228505    -0.000000941047     0.000000713406
      18        0.000000096250    -0.000009213930    -0.000001404364
      19       -0.000001286807     0.000004458912    -0.000003139109

  **** Optimization is complete! (in 5 steps) ****
    Final optimized geometry and variables:
    Molecular point group: c1

    Geometry (in Angstrom), charge = 0, multiplicity = 1:

    H           -2.824700874926    -0.374775474660    -0.748703930632
    O           -2.320643127571    -0.079316107956    -0.015327877116
    C           -0.945316636187    -0.073056151714    -0.327729063285
    H           -0.824808934256    -0.242523585499    -1.394928828970
    C           -0.218540741911    -1.187953934120     0.408669314993
    C           -0.360309052136     1.293524762725     0.042327935996
    H           -0.303005072043    -0.999846362263     1.474241692658
    H           -0.716287311832    -2.132526416181     0.223508268072
    C            1.260251759572    -1.263870824611    -0.012449823480
    H           -0.548070671496     1.990873408282    -0.767185517084
    H           -0.909983620709     1.660242594951     0.900565816615
    C            1.143493051873     1.233041334742     0.361929377557
    H            1.839568740872    -1.677184739228     0.805455808769
    H            1.372782669897    -1.952991209954    -0.842547932927
    C            1.830041427838     0.110041033497    -0.410313529114
    H            1.607674637516     2.187050969493     0.141181129054
    H            1.285985152978     1.064716123080     1.425025292684
    H            2.900562775637     0.130039942745    -0.242165738658
    H            1.687594127849     0.275423973582    -1.474575000830

  Mulliken Charges: (a.u.)
   Center  Symbol    Alpha    Beta     Spin     Total
       1     H     0.39166  0.39166  0.00000  0.21668
       2     O     4.20707  4.20707  0.00000 -0.41414
       3     C     2.92657  2.92657  0.00000  0.14686
       4     H     0.46792  0.46792  0.00000  0.06417
       5     C     3.09445  3.09445  0.00000 -0.18891
       6     C     3.10866  3.10866  0.00000 -0.21732
       7     H     0.45326  0.45326  0.00000  0.09349
       8     H     0.44759  0.44759  0.00000  0.10482
       9     C     3.11471  3.11471  0.00000 -0.22943
      10     H     0.45101  0.45101  0.00000  0.09798
      11     H     0.44449  0.44449  0.00000  0.11101
      12     C     3.10087  3.10087  0.00000 -0.20173
      13     H     0.44729  0.44729  0.00000  0.10541
      14     H     0.44824  0.44824  0.00000  0.10353
      15     C     3.10238  3.10238  0.00000 -0.20476
      16     H     0.44240  0.44240  0.00000  0.11520
      17     H     0.45334  0.45334  0.00000  0.09332
      18     H     0.44313  0.44313  0.00000  0.11375
      19     H     0.45496  0.45496  0.00000  0.09007

   Total alpha = 28.00000, Total beta = 28.00000, Total charge =  0.00000
