  ==> Input File <==

--------------------------------------------------------------------------
set {
	reference rhf
	basis 6-31G*
}

set_num_threads( 1 )
memory 2 gb

molecule MOL {
0 1

H	 -3.420663	 1.227371	 -1.044276
O	 -3.452007	 0.283848	 -0.965577
C	 -3.181085	 -0.079926	 0.364119
C	 -1.765924	 0.277073	 0.805136
H	 -3.327791	 -1.152017	 0.410903
H	 -3.905698	 0.375695	 1.036898
C	 -1.289820	 -0.511191	 2.025989
H	 -1.082423	 0.112040	 -0.028262
H	 -1.732549	 1.344362	 1.017276
C	 0.139264	 -0.161649	 2.446370
H	 -1.360029	 -1.573650	 1.813947
H	 -1.967068	 -0.320591	 2.856892
C	 0.606652	 -0.950338	 3.672585
H	 0.808877	 -0.344852	 1.609427
H	 0.203183	 0.904439	 2.660786
C	 2.000442	 -0.571270	 4.186214
H	 0.586017	 -2.014921	 3.444698
H	 -0.110107	 -0.799410	 4.477130
C	 3.143950	 -0.902083	 3.225299
H	 2.174055	 -1.090568	 5.125616
H	 2.020924	 0.491414	 4.419639
H	 3.140880	 -1.956991	 2.963961
H	 4.104979	 -0.677715	 3.677980
H	 3.078335	 -0.332800	 2.304009

	symmetry c1
}
set optking {
	frozen_dihedral = ("
		20 16 13 17,
		17 13 10 7,
		13 10 7 11,
		11 7 4 3,
		1 2 3 5
	")
}

ee = energy('scf')
oeprop('DIPOLE', 'QUADRUPOLE', 'MULLIKEN_CHARGES')
f=open( 'psi4out.xyz', 'w' )
f.write( "24  " )
f.write( str(ee) + "\n" )
f.write( MOL.save_string_xyz() )
f.close()
--------------------------------------------------------------------------

    Molecular point group: c1

    Geometry (in Angstrom), charge = 0, multiplicity = 1:

       Center              X                  Y                   Z               Mass
    ------------   -----------------  -----------------  -----------------  -----------------
           H         -2.902509347439     1.538308745266    -2.958659133221     1.007825032070
           O         -2.933853347439     0.594785745266    -2.879960133221    15.994914619560
           C         -2.662931347439     0.231011745266    -1.550264133221    12.000000000000
           C         -1.247770347439     0.588010745266    -1.109247133221    12.000000000000
           H         -2.809637347439    -0.841079254734    -1.503480133221     1.007825032070
           H         -3.387544347439     0.686632745266    -0.877485133221     1.007825032070
           C         -0.771666347439    -0.200253254734     0.111605866779    12.000000000000
           H         -0.564269347439     0.422977745266    -1.942645133221     1.007825032070
           H         -1.214395347439     1.655299745266    -0.897107133221     1.007825032070
           C          0.657417652561     0.149288745266     0.531986866779    12.000000000000
           H         -0.841875347439    -1.262712254734    -0.100436133221     1.007825032070
           H         -1.448914347439    -0.009653254734     0.942508866779     1.007825032070
           C          1.124805652561    -0.639400254734     1.758201866779    12.000000000000
           H          1.327030652561    -0.033914254734    -0.304956133221     1.007825032070
           H          0.721336652561     1.215376745266     0.746402866779     1.007825032070
           C          2.518595652561    -0.260332254734     2.271830866779    12.000000000000
           H          1.104170652561    -1.703983254734     1.530314866779     1.007825032070
           H          0.408046652561    -0.488472254734     2.562746866779     1.007825032070
           C          3.662103652561    -0.591145254734     1.310915866779    12.000000000000
           H          2.692208652561    -0.779630254734     3.211232866779     1.007825032070
           H          2.539077652561     0.802351745266     2.505255866779     1.007825032070
           H          3.659033652561    -1.646053254734     1.049577866779     1.007825032070
           H          4.623132652561    -0.366777254734     1.763596866779     1.007825032070
           H          3.596488652561    -0.021862254734     0.389625866779     1.007825032070

  Charge       = 0
  Multiplicity = 1
  Basis Set: 6-31G*
  Basis Set:

    Orbital Energies (a.u.)
    -----------------------

    Doubly Occupied:

       1A    -20.552305     2A    -11.266484     3A    -11.219172
       4A    -11.216277     5A    -11.216106     6A    -11.215606
       7A    -11.214659     8A    -11.208755     9A     -1.358605
      10A     -1.092469    11A     -1.051132    12A     -0.986357
      13A     -0.914492    14A     -0.850546    15A     -0.805382
      16A     -0.778988    17A     -0.692428    18A     -0.649382
      19A     -0.625526    20A     -0.607369    21A     -0.603051
      22A     -0.588167    23A     -0.561910    24A     -0.532726
      25A     -0.524718    26A     -0.516510    27A     -0.486740
      28A     -0.482679    29A     -0.467473    30A     -0.461915
      31A     -0.459554    32A     -0.454486    33A     -0.419194

  @DF-RHF Final Energy:  -349.24603522820837

   => Energetics <=

    Nuclear Repulsion Energy =            379.8159079965356568
    One-Electron Energy =               -1225.9614170153645318
    Two-Electron Energy =                 496.8994737906200498
    DFT Exchange-Correlation Energy =       0.0000000000000000
    Empirical Dispersion Energy =           0.0000000000000000
    PCM Polarization Energy =               0.0000000000000000
    EFP Energy =                            0.0000000000000000
    Total Energy =                       -349.2460352282088252

  Mulliken Charges: (a.u.)
   Center  Symbol    Alpha    Beta     Spin     Total
       1     H     0.28349  0.28349  0.00000  0.43301
       2     O     4.37016  4.37016  0.00000 -0.74032
       3     C     2.98893  2.98893  0.00000  0.02213
       4     C     3.17133  3.17133  0.00000 -0.34266
       5     H     0.41702  0.41702  0.00000  0.16595
       6     H     0.43099  0.43099  0.00000  0.13802
       7     C     3.15854  3.15854  0.00000 -0.31708
       8     H     0.41358  0.41358  0.00000  0.17285
       9     H     0.42723  0.42723  0.00000  0.14554
      10     C     3.15340  3.15340  0.00000 -0.30680
      11     H     0.41990  0.41990  0.00000  0.16020
      12     H     0.42348  0.42348  0.00000  0.15303
      13     C     3.15265  3.15265  0.00000 -0.30529
      14     H     0.41997  0.41997  0.00000  0.16006
      15     H     0.42399  0.42399  0.00000  0.15203
      16     C     3.15244  3.15244  0.00000 -0.30488
      17     H     0.42372  0.42372  0.00000  0.15257
      18     H     0.42245  0.42245  0.00000  0.15510
      19     C     3.24127  3.24127  0.00000 -0.48255
      20     H     0.42080  0.42080  0.00000  0.15840
      21     H     0.42353  0.42353  0.00000  0.15295
      22     H     0.42198  0.42198  0.00000  0.15604
      23     H     0.41915  0.41915  0.00000  0.16171
      24     H     0.42000  0.42000  0.00000  0.15999

   Total alpha = 33.00000, Total beta = 33.00000, Total charge = -0.00000
