  ==> Input File <==

--------------------------------------------------------------------------
set {
	reference rhf
	basis cc-pvtz
}

set_num_threads( 4 )
memory 2 gb

molecule MOL {
0 1

H	 -0.000105	 1.988529	 0.748933
O	 -0.000098	 1.879786	 -0.188206
C	 -0.000014	 0.545691	 -0.532416
C	 -1.432687	 0.056804	 -0.751997
C	 0.794765	 -0.264340	 0.493230
H	 0.513924	 0.446732	 -1.477263
F	 -1.986973	 0.756644	 -1.711086
F	 -1.480626	 -1.205334	 -1.096121
F	 -2.163594	 0.214491	 0.330724
F	 2.027544	 0.177836	 0.533164
F	 0.834334	 -1.539099	 0.198043
F	 0.286412	 -0.138726	 1.700366

	symmetry c1
}
set optking {
	frozen_dihedral = ("
		6 3 2 1
	")
}

ee = optimize('scf')
oeprop('DIPOLE', 'QUADRUPOLE', 'MULLIKEN_CHARGES')
f=open( 'psi4out.xyz', 'w' )
f.write( "12  " )
f.write( str(ee) + "\n" )
f.write( MOL.save_string_xyz() )
f.close()
--------------------------------------------------------------------------

    Molecular point group: c1
  Charge       = 0
  Multiplicity = 1
  Basis Set: CC-PVTZ
  Basis Set:
  @DF-RHF Final Energy:  -786.58765737580461
    Total Energy =                       -786.5876573758048380
    Molecular point group: c1
  Basis Set: CC-PVTZ
  Basis Set:
  Basis Set: CC-PVTZ
  Basis Set:
  @DF-RHF Final Energy:  -786.58788071923141
    Total Energy =                       -786.5878807192312934
  Basis Set: CC-PVTZ
  Basis Set:
  Basis Set: CC-PVTZ
  Basis Set:
  @DF-RHF Final Energy:  -786.58792397034256
    Total Energy =                       -786.5879239703415351
  Basis Set: CC-PVTZ
  Basis Set:
  Basis Set: CC-PVTZ
  Basis Set:
  @DF-RHF Final Energy:  -786.58792880677618
    Total Energy =                       -786.5879288067759489
  Basis Set: CC-PVTZ
  Basis Set:
  Charge       = 0
  Multiplicity = 1
  Basis Set: CC-PVTZ
  Basis Set:

    Orbital Energies (a.u.)
    -----------------------

    Doubly Occupied:

       1A    -26.363775     2A    -26.362146     3A    -26.358910
       4A    -26.353202     5A    -26.353025     6A    -26.349677
       7A    -20.608744     8A    -11.525159     9A    -11.515458
      10A    -11.351705    11A     -1.775170    12A     -1.764061
      13A     -1.671346    14A     -1.667097    15A     -1.660093
      16A     -1.657928    17A     -1.438471    18A     -1.103927
      19A     -1.002561    20A     -0.945156    21A     -0.873570
      22A     -0.869327    23A     -0.861483    24A     -0.850831
      25A     -0.839522    26A     -0.818332    27A     -0.750684
      28A     -0.737689    29A     -0.728805    30A     -0.725451
      31A     -0.698509    32A     -0.695937    33A     -0.691164
      34A     -0.679838    35A     -0.675378    36A     -0.672284
      37A     -0.661270    38A     -0.658053    39A     -0.623961
      40A     -0.552664    41A     -0.509261

  @DF-RHF Final Energy:  -786.58792948747976

   => Energetics <=

    Nuclear Repulsion Energy =            670.9489575959547665
    One-Electron Energy =               -2429.0705332535999332
    Two-Electron Energy =                 971.5336461701658664
    DFT Exchange-Correlation Energy =       0.0000000000000000
    Empirical Dispersion Energy =           0.0000000000000000
    PCM Polarization Energy =               0.0000000000000000
    EFP Energy =                            0.0000000000000000
    Total Energy =                       -786.5879294874794141
    Molecular point group: c1
  Basis Set: CC-PVTZ
  Basis Set:

  -Total Gradient:
     Atom            X                  Y                   Z
    ------   -----------------  -----------------  -----------------
       1        0.003208243782     0.000018810681     0.000092332468
       2       -0.003412943563    -0.000070132928     0.000246499446
       3       -0.002146542419     0.000440461988    -0.001725362684
       4       -0.000065926310    -0.000079236749    -0.000027023378
       5       -0.000056823451     0.000000632175     0.000108175238
       6        0.002328737122    -0.000322577334     0.001390842241
       7        0.000017631393     0.000037551015     0.000002601173
       8        0.000035569595    -0.000028598098     0.000006551742
       9        0.000082155050     0.000031019369     0.000007624271
      10        0.000020290665    -0.000003371200    -0.000043961366
      11        0.000025169304    -0.000050139998    -0.000045912756
      12       -0.000035561179     0.000025581080    -0.000012366391

  **** Optimization is complete! (in 5 steps) ****
    Final optimized geometry and variables:
    Molecular point group: c1

    Geometry (in Angstrom), charge = 0, multiplicity = 1:

    H            0.290700073529     1.987554982322     0.818244199953
    O            0.312774952947     1.861868233922    -0.115361377510
    C            0.326378522216     0.523459386698    -0.449779559924
    C           -1.103868699709     0.031509094844    -0.674441981029
    C            1.111239614266    -0.282235966203     0.586261034994
    H            0.860919373171     0.407474841311    -1.382090013740
    F           -1.686527326770     0.788567753545    -1.569977362110
    F           -1.128952673567    -1.202974983869    -1.116806190815
    F           -1.816639688665     0.086128302974     0.426934038331
    F            2.365599897747     0.103223820007     0.573307071348
    F            1.080800005405    -1.566988824301     0.350819214282
    F            0.650494130584    -0.074796360623     1.802550850001

  Mulliken Charges: (a.u.)
   Center  Symbol    Alpha    Beta     Spin     Total
       1     H     0.38155  0.38155  0.00000  0.23691
       2     O     4.19017  4.19017  0.00000 -0.38033
       3     C     3.00240  3.00240  0.00000 -0.00481
       4     C     2.68231  2.68231  0.00000  0.63539
       5     C     2.68655  2.68655  0.00000  0.62691
       6     H     0.42879  0.42879  0.00000  0.14241
       7     F     4.60158  4.60158  0.00000 -0.20316
       8     F     4.60509  4.60509  0.00000 -0.21019
       9     F     4.60797  4.60797  0.00000 -0.21595
      10     F     4.60356  4.60356  0.00000 -0.20711
      11     F     4.59912  4.59912  0.00000 -0.19824
      12     F     4.61092  4.61092  0.00000 -0.22183

   Total alpha = 41.00000, Total beta = 41.00000, Total charge = -0.00000
