  ==> Input File <==

--------------------------------------------------------------------------
set {
	reference rhf
	basis 6-31G*
}

set_num_threads( 1 )
memory 2 gb

molecule MOL {
0 1

O	 2.911378	 1.393874	 1.359004
C	 2.523205	 0.304664	 1.083317
C	 1.245376	 -0.013843	 0.345420
O	 3.183566	 -0.802580	 1.398857
C	 0.455112	 1.231400	 -0.050772
H	 1.516762	 -0.614679	 -0.516287
H	 0.655504	 -0.663900	 0.986648
C	 -0.998893	 1.219485	 0.433193
H	 0.482531	 1.345121	 -1.130325
H	 0.957290	 2.103070	 0.354729
C	 -1.883438	 0.145884	 -0.207175
H	 -1.431207	 2.195402	 0.224832
H	 -1.019646	 1.105716	 1.516076
C	 -3.347647	 0.245583	 0.225435
H	 -1.822183	 0.231698	 -1.291012
H	 -1.510341	 -0.844814	 0.042401
C	 -4.239992	 -0.825570	 -0.404234
H	 -3.732888	 1.230466	 -0.033079
H	 -3.408585	 0.170602	 1.310038
C	 -5.701275	 -0.716658	 0.029921
H	 -4.179496	 -0.752714	 -1.488058
H	 -3.859041	 -1.810759	 -0.143352
H	 -6.308102	 -1.488908	 -0.432678
H	 -6.122175	 0.245478	 -0.248167
H	 -5.799072	 -0.820114	 1.106957
C	 4.404556	 -0.645235	 2.098365
H	 5.106531	 -0.069128	 1.512843
H	 4.782635	 -1.642662	 2.260239
H	 4.239698	 -0.149225	 3.044056

	symmetry c1
}
set optking {
	frozen_dihedral = ("
		21 17 14 11,
		17 14 11 15,
		15 11 8 5,
		11 8 5 9,
		2 4 26 27,
		1 2 4 26,
		6 3 2 1
	")
}

ee = energy('scf')
oeprop('DIPOLE', 'QUADRUPOLE', 'MULLIKEN_CHARGES')
f=open( 'psi4out.xyz', 'w' )
f.write( "29  " )
f.write( str(ee) + "\n" )
f.write( MOL.save_string_xyz() )
f.close()
--------------------------------------------------------------------------

    Molecular point group: c1

    Geometry (in Angstrom), charge = 0, multiplicity = 1:

       Center              X                  Y                   Z               Mass
    ------------   -----------------  -----------------  -----------------  -----------------
           O          3.004007014380     1.263759638904     0.765288592112    15.994914619560
           C          2.615834014380     0.174549638904     0.489601592112    12.000000000000
           C          1.338005014380    -0.143957361096    -0.248295407888    12.000000000000
           O          3.276195014380    -0.932694361096     0.805141592112    15.994914619560
           C          0.547741014380     1.101285638904    -0.644487407888    12.000000000000
           H          1.609391014380    -0.744793361096    -1.110002407888     1.007825032070
           H          0.748133014380    -0.794014361096     0.392932592112     1.007825032070
           C         -0.906263985620     1.089370638904    -0.160522407888    12.000000000000
           H          0.575160014380     1.215006638904    -1.724040407888     1.007825032070
           H          1.049919014380     1.972955638904    -0.238986407888     1.007825032070
           C         -1.790808985620     0.015769638904    -0.800890407888    12.000000000000
           H         -1.338577985620     2.065287638904    -0.368883407888     1.007825032070
           H         -0.927016985620     0.975601638904     0.922360592112     1.007825032070
           C         -3.255017985620     0.115468638904    -0.368280407888    12.000000000000
           H         -1.729553985620     0.101583638904    -1.884727407888     1.007825032070
           H         -1.417711985620    -0.974928361096    -0.551314407888     1.007825032070
           C         -4.147362985620    -0.955684361096    -0.997949407888    12.000000000000
           H         -3.640258985620     1.100351638904    -0.626794407888     1.007825032070
           H         -3.315955985620     0.040487638904     0.716322592112     1.007825032070
           C         -5.608645985620    -0.846772361096    -0.563794407888    12.000000000000
           H         -4.086866985620    -0.882828361096    -2.081773407888     1.007825032070
           H         -3.766411985620    -1.940873361096    -0.737067407888     1.007825032070
           H         -6.215472985620    -1.619022361096    -1.026393407888     1.007825032070
           H         -6.029545985620     0.115363638904    -0.841882407888     1.007825032070
           H         -5.706442985620    -0.950228361096     0.513241592112     1.007825032070
           C          4.497185014380    -0.775349361096     1.504649592112    12.000000000000
           H          5.199160014380    -0.199242361096     0.919127592112     1.007825032070
           H          4.875264014380    -1.772776361096     1.666523592112     1.007825032070
           H          4.332327014380    -0.279339361096     2.450340592112     1.007825032070

  Charge       = 0
  Multiplicity = 1
  Basis Set: 6-31G*
  Basis Set:

    Orbital Energies (a.u.)
    -----------------------

    Doubly Occupied:

       1A    -20.604187     2A    -20.546298     3A    -11.372732
       4A    -11.281095     5A    -11.233564     6A    -11.215996
       7A    -11.215438     8A    -11.214977     9A    -11.214550
      10A    -11.213726    11A    -11.208678    12A     -1.469928
      13A     -1.363775    14A     -1.097087    15A     -1.066195
      16A     -1.018816    17A     -0.977047    18A     -0.927700
      19A     -0.860902    20A     -0.799778    21A     -0.790225
      22A     -0.762829    23A     -0.702440    24A     -0.682307
      25A     -0.673121    26A     -0.652918    27A     -0.624390
      28A     -0.607532    29A     -0.591853    30A     -0.580858
      31A     -0.565681    32A     -0.550249    33A     -0.534318
      34A     -0.526866    35A     -0.515294    36A     -0.506933
      37A     -0.499105    38A     -0.474387    39A     -0.469322
      40A     -0.460829    41A     -0.458266    42A     -0.456442
      43A     -0.440479    44A     -0.436598

  @DF-RHF Final Energy:  -501.03967509200629

   => Energetics <=

    Nuclear Repulsion Energy =            612.1483091440186399
    One-Electron Energy =               -1895.4446145734930269
    Two-Electron Energy =                 782.2566303374692325
    DFT Exchange-Correlation Energy =       0.0000000000000000
    Empirical Dispersion Energy =           0.0000000000000000
    PCM Polarization Energy =               0.0000000000000000
    EFP Energy =                            0.0000000000000000
    Total Energy =                       -501.0396750920051545

  Mulliken Charges: (a.u.)
   Center  Symbol    Alpha    Beta     Spin     Total
       1     O     4.28460  4.28460  0.00000 -0.56920
       2     C     2.61154  2.61154  0.00000  0.77692
       3     C     3.20981  3.20981  0.00000 -0.41961
       4     O     4.30578  4.30578  0.00000 -0.61156
       5     C     3.16544  3.16544  0.00000 -0.33089
       6     H     0.39711  0.39711  0.00000  0.20578
       7     H     0.39822  0.39822  0.00000  0.20356
       8     C     3.15774  3.15774  0.00000 -0.31548
       9     H     0.41927  0.41927  0.00000  0.16147
      10     H     0.39048  0.39048  0.00000  0.21904
      11     C     3.15400  3.15400  0.00000 -0.30801
      12     H     0.41943  0.41943  0.00000  0.16114
      13     H     0.42243  0.42243  0.00000  0.15514
      14     C     3.15041  3.15041  0.00000 -0.30082
      15     H     0.42361  0.42361  0.00000  0.15277
      16     H     0.42414  0.42414  0.00000  0.15172
      17     C     3.15137  3.15137  0.00000 -0.30274
      18     H     0.42324  0.42324  0.00000  0.15352
      19     H     0.42396  0.42396  0.00000  0.15207
      20     C     3.23931  3.23931  0.00000 -0.47862
      21     H     0.42306  0.42306  0.00000  0.15387
      22     H     0.42352  0.42352  0.00000  0.15297
      23     H     0.41938  0.41938  0.00000  0.16123
      24     H     0.42158  0.42158  0.00000  0.15684
      25     H     0.42177  0.42177  0.00000  0.15646
      26     C     3.09228  3.09228  0.00000 -0.18455
      27     H     0.40898  0.40898  0.00000  0.18204
      28     H     0.40844  0.40844  0.00000  0.18313
      29     H     0.40909  0.40909  0.00000  0.18181

   Total alpha = 44.00000, Total beta = 44.00000, Total charge =  0.00000
