                              Psi4 1.0.54 Driver

  ==> Input File <==

--------------------------------------------------------------------------
set {
	reference rhf
	basis cc-pvtz
}

set_num_threads( 4 )
memory 2 gb

molecule MOL {
0 1

O	 -2.081319	 -0.951530	 -0.502732
N	 -1.613558	 0.006676	 0.014756
C	 -0.329345	 -0.171618	 0.743966
O	 -2.068523	 1.100482	 -0.024385
C	 -0.516179	 0.207562	 2.207661
H	 0.384414	 0.468146	 0.252366
H	 -0.062311	 -1.208825	 0.629401
C	 0.779879	 0.037616	 2.996026
H	 -0.852503	 1.236255	 2.264537
H	 -1.294358	 -0.413835	 2.635493
C	 0.618385	 0.403942	 4.467150
H	 1.555613	 0.655033	 2.552775
H	 1.119566	 -0.990694	 2.914805
H	 0.311419	 1.437627	 4.581010
H	 -0.129529	 -0.218860	 4.945123
H	 1.550546	 0.273608	 5.003108

	symmetry c1
}
set optking {
	frozen_dihedral = ("
		5 3 2 1
	")
}

ee,wfn = optimize('scf', return_wfn=True)
oeprop( wfn, 'DIPOLE', 'QUADRUPOLE', 'MULLIKEN_CHARGES')
f=open( 'psi4out.xyz', 'w' )
f.write( "16  " )
f.write( str(ee) + "\n" )
f.write( MOL.save_string_xyz() )
f.close()
--------------------------------------------------------------------------

    Molecular point group: c1
  Charge       = 0
  Multiplicity = 1
  Basis Set: CC-PVTZ
  Basis Set:
  @DF-RHF Final Energy:  -360.90901815719002
    Total Energy =                       -360.9090181571901326
    Molecular point group: c1
  Basis Set: CC-PVTZ
  Basis Set:
  Basis Set: CC-PVTZ
  Basis Set:
  @DF-RHF Final Energy:  -360.90218327086995
    Total Energy =                       -360.9021832708700686
  Basis Set: CC-PVTZ
  Basis Set:
  Basis Set: CC-PVTZ
  Basis Set:
  @DF-RHF Final Energy:  -360.90870729809052
    Total Energy =                       -360.9087072980903486
  Basis Set: CC-PVTZ
  Basis Set:
  Basis Set: CC-PVTZ
  Basis Set:
  @DF-RHF Final Energy:  -360.90922516991128
    Total Energy =                       -360.9092251699111102
  Basis Set: CC-PVTZ
  Basis Set:
  Basis Set: CC-PVTZ
  Basis Set:
  @DF-RHF Final Energy:  -360.90923021700360
    Total Energy =                       -360.9092302170037101
  Basis Set: CC-PVTZ
  Basis Set:
  Basis Set: CC-PVTZ
  Basis Set:
  @DF-RHF Final Energy:  -360.90923042441608
    Total Energy =                       -360.9092304244160232
  Basis Set: CC-PVTZ
  Basis Set:
  Basis Set: CC-PVTZ
  Basis Set:
  @DF-RHF Final Energy:  -360.90923221049422
    Total Energy =                       -360.9092322104942241
  Basis Set: CC-PVTZ
  Basis Set:
  Charge       = 0
  Multiplicity = 1
  Basis Set: CC-PVTZ
  Basis Set:

    Orbital Energies (a.u.)
    -----------------------

    Doubly Occupied:

       1A    -20.591833     2A    -20.588283     3A    -15.836710
       4A    -11.296764     5A    -11.248412     6A    -11.241144
       7A    -11.225342     8A     -1.635722     9A     -1.419881
      10A     -1.135638    11A     -1.059681    12A     -0.948836
      13A     -0.843493    14A     -0.827021    15A     -0.758860
      16A     -0.740722    17A     -0.728953    18A     -0.676437
      19A     -0.615443    20A     -0.606771    21A     -0.567088
      22A     -0.540272    23A     -0.517927    24A     -0.503506
      25A     -0.495854    26A     -0.486346    27A     -0.469643
      28A     -0.453056

  @DF-RHF Final Energy:  -360.90923230023452

   => Energetics <=

    Nuclear Repulsion Energy =            312.7573996285423163
    One-Electron Energy =               -1111.2139915693978764
    Two-Electron Energy =                 437.5473596406208685
    DFT Exchange-Correlation Energy =       0.0000000000000000
    Empirical Dispersion Energy =           0.0000000000000000
    PCM Polarization Energy =               0.0000000000000000
    EFP Energy =                            0.0000000000000000
    Total Energy =                       -360.9092323002346916
    Molecular point group: c1
  Basis Set: CC-PVTZ
  Basis Set:

  -Total Gradient:
     Atom            X                  Y                   Z
    ------   -----------------  -----------------  -----------------
       1        0.000254709684     0.000135591791    -0.000395901021
       2       -0.000302067402     0.000012346280     0.000504384209
       3       -0.000043750997    -0.000430722473    -0.000069463758
       4        0.000000460612    -0.000062488095    -0.000000813296
       5        0.000106924468     0.000373706001    -0.000066051551
       6       -0.000010504926    -0.000005450023     0.000004153107
       7       -0.000008804141    -0.000007026907    -0.000006374570
       8       -0.000016253979    -0.000017104964     0.000017922443
       9       -0.000008819561     0.000003512542     0.000009757391
      10        0.000014708683    -0.000000854931    -0.000009139428
      11        0.000015077464     0.000006565098     0.000004225120
      12       -0.000010125949    -0.000003945348    -0.000000435278
      13        0.000007156469    -0.000007805142     0.000008108513
      14       -0.000002806341     0.000000487139     0.000000065331
      15        0.000003546117    -0.000001989024    -0.000004202511
      16        0.000000549802     0.000005178057     0.000003765298

  **** Optimization is complete! (in 8 steps) ****
    Final optimized geometry and variables:
    Molecular point group: c1

    Geometry (in Angstrom), charge = 0, multiplicity = 1:

    O           -1.295044387886    -1.046613345533    -1.905282582920
    N           -0.837105565758    -0.086931592931    -1.383485350386
    C            0.434584646198    -0.254735245167    -0.625644474008
    O           -1.304184608509     1.002378420630    -1.419825934894
    C            0.253550778125     0.125525905554     0.835988518231
    H            1.144905087991     0.394144849547    -1.116390252875
    H            0.720110395285    -1.284151241718    -0.754260880167
    C            1.550671300957    -0.060066833049     1.619700161396
    H           -0.076468235594     1.153755000805     0.896210891705
    H           -0.528208905757    -0.490529353425     1.268457085146
    C            1.399958463744     0.311934702608     3.090567756345
    H            2.331746385894     0.547681953532     1.171956392929
    H            1.879660796325    -1.092003852004     1.540162975016
    H            1.102876803620     1.348639708497     3.202801400265
    H            0.648579543907    -0.302492175753     3.574040880728
    H            2.333332731439     0.174379368136     3.622653056078

  Mulliken Charges: (a.u.)
   Center  Symbol    Alpha    Beta     Spin     Total
       1     O     4.16936  4.16936  0.00000 -0.33871
       2     N     3.27657  3.27657  0.00000  0.44686
       3     C     3.04183  3.04183  0.00000 -0.08365
       4     O     4.17461  4.17461  0.00000 -0.34921
       5     C     3.10106  3.10106  0.00000 -0.20212
       6     H     0.43635  0.43635  0.00000  0.12731
       7     H     0.43201  0.43201  0.00000  0.13597
       8     C     3.09371  3.09371  0.00000 -0.18743
       9     H     0.43311  0.43311  0.00000  0.13379
      10     H     0.44292  0.44292  0.00000  0.11416
      11     C     3.14810  3.14810  0.00000 -0.29621
      12     H     0.45095  0.45095  0.00000  0.09809
      13     H     0.45049  0.45049  0.00000  0.09903
      14     H     0.45153  0.45153  0.00000  0.09694
      15     H     0.45206  0.45206  0.00000  0.09587
      16     H     0.44534  0.44534  0.00000  0.10931

   Total alpha = 28.00000, Total beta = 28.00000, Total charge = -0.00000

*** Psi4 exiting successfully. Buy a developer a beer!
