  ==> Input File <==

--------------------------------------------------------------------------
set {
	reference rhf
	basis 6-31G*
}

set_num_threads( 4 )
memory 2 gb

molecule MOL {
0 1

H	 -4.031818	 -0.453427	 -0.000094
C	 -2.967712	 -0.297022	 -0.000064
C	 -2.458620	 0.992929	 0.000032
C	 -2.109895	 -1.385637	 -0.000122
H	 -3.124998	 1.836319	 0.000077
C	 -1.090278	 1.193236	 0.000070
H	 -2.506361	 -2.384847	 -0.000198
C	 -0.739812	 -1.187531	 -0.000085
H	 -0.678594	 2.184290	 0.000146
C	 -0.226438	 0.104061	 0.000012
H	 -0.072310	 -2.027032	 -0.000131
C	 1.239129	 0.373821	 0.000060
O	 1.607893	 1.238253	 -0.933414
O	 2.008621	 -0.130256	 0.756795
C	 2.987155	 1.553235	 -1.004789
H	 3.323145	 1.993485	 -0.077381
H	 3.085411	 2.260745	 -1.813262
H	 3.567849	 0.665656	 -1.209527

	symmetry c1
}
set optking {
	frozen_dihedral = ("
		13 12 10 6
	")
}

ee = optimize('scf')
oeprop('DIPOLE', 'QUADRUPOLE', 'MULLIKEN_CHARGES')
f=open( 'psi4out.xyz', 'w' )
f.write( "18  " )
f.write( str(ee) + "\n" )
f.write( MOL.save_string_xyz() )
f.close()
--------------------------------------------------------------------------

    Molecular point group: c1
  Charge       = 0
  Multiplicity = 1
  Basis Set: 6-31G*
  Basis Set:
  @DF-RHF Final Energy:  -457.34328582139017
    Total Energy =                       -457.3432858213898271
    Molecular point group: c1
  Basis Set: 6-31G*
  Basis Set:
  Basis Set: 6-31G*
  Basis Set:
  @DF-RHF Final Energy:  -457.34380170605914
    Total Energy =                       -457.3438017060589118
  Basis Set: 6-31G*
  Basis Set:
  Basis Set: 6-31G*
  Basis Set:
  @DF-RHF Final Energy:  -457.34458099543104
    Total Energy =                       -457.3445809954305332
  Basis Set: 6-31G*
  Basis Set:
  Basis Set: 6-31G*
  Basis Set:
  @DF-RHF Final Energy:  -457.34470501409550
    Total Energy =                       -457.3447050140953252
  Basis Set: 6-31G*
  Basis Set:
  Basis Set: 6-31G*
  Basis Set:
  @DF-RHF Final Energy:  -457.34470677889863
    Total Energy =                       -457.3447067788988534
  Basis Set: 6-31G*
  Basis Set:
  Charge       = 0
  Multiplicity = 1
  Basis Set: 6-31G*
  Basis Set:

    Orbital Energies (a.u.)
    -----------------------

    Doubly Occupied:

       1A    -20.609060     2A    -20.547888     3A    -11.378981
       4A    -11.283290     5A    -11.248386     6A    -11.244888
       7A    -11.242894     8A    -11.242679     9A    -11.238815
      10A    -11.238141    11A     -1.473923    12A     -1.366240
      13A     -1.166142    14A     -1.048577    15A     -1.025497
      16A     -0.979209    17A     -0.859979    18A     -0.836800
      19A     -0.779228    20A     -0.738007    21A     -0.684243
      22A     -0.678421    23A     -0.675068    24A     -0.630152
      25A     -0.628047    26A     -0.597290    27A     -0.589295
      28A     -0.553573    29A     -0.533712    30A     -0.516513
      31A     -0.505557    32A     -0.501541    33A     -0.458781
      34A     -0.445297    35A     -0.343439    36A     -0.341759

  @DF-RHF Final Energy:  -457.34470723313291

   => Energetics <=

    Nuclear Repulsion Energy =            492.2506971019174671
    One-Electron Energy =               -1598.7281890398239739
    Two-Electron Energy =                 649.1327847047729165
    DFT Exchange-Correlation Energy =       0.0000000000000000
    Empirical Dispersion Energy =           0.0000000000000000
    PCM Polarization Energy =               0.0000000000000000
    EFP Energy =                            0.0000000000000000
    Total Energy =                       -457.3447072331335903
    Molecular point group: c1
  Basis Set: 6-31G*
  Basis Set:

  -Total Gradient:
     Atom            X                  Y                   Z
    ------   -----------------  -----------------  -----------------
       1        0.000005446785     0.000014757458    -0.000003603429
       2       -0.000003696922    -0.000118005621    -0.000013013900
       3        0.000151805350     0.000068529964     0.000029599689
       4       -0.000120880435     0.000027631900     0.000055789416
       5       -0.000017833628     0.000004735150    -0.000018809504
       6       -0.000324821120    -0.000220415315     0.005609381205
       7        0.000001304550     0.000017631358    -0.000019849178
       8        0.000127132993    -0.000100651337    -0.000072057071
       9        0.000006300088     0.000017598922     0.000032887540
      10        0.000539870596    -0.000902572914    -0.009542098551
      11       -0.000030649625     0.000014994846     0.000027151225
      12       -0.000906162307     0.005200897451     0.007665141772
      13        0.000637997123    -0.004037703011    -0.003777014647
      14       -0.000070006153    -0.000013339360    -0.000023405451
      15        0.000017284001     0.000042944250     0.000056299046
      16        0.000009241307     0.000002262332    -0.000003912143
      17       -0.000014650253    -0.000014546417    -0.000012251550
      18       -0.000007682352    -0.000004749655     0.000009765528

  **** Optimization is complete! (in 6 steps) ****
    Final optimized geometry and variables:
    Molecular point group: c1

    Geometry (in Angstrom), charge = 0, multiplicity = 1:

    H           -3.978704730540    -0.763771251682     0.223077120562
    C           -2.918851181863    -0.586276073646     0.183840723772
    C           -2.436002784400     0.712399999906     0.154035631172
    C           -2.037839099039    -1.656577473121     0.172418317147
    H           -3.118491390725     1.542642014578     0.177745984022
    C           -1.072137377381     0.942308988660     0.093222430147
    H           -2.411985451956    -2.663802624811     0.204473363757
    C           -0.673323348522    -1.428478774882     0.136439302501
    H           -0.694378665707     1.947526727804     0.058158862471
    C           -0.189642730783    -0.128954644302     0.067297947559
    H            0.018492507560    -2.249682994625     0.162101497443
    C            1.286710147252     0.088957436204     0.107258957854
    O            1.690533688103     0.979292349747    -0.786100399528
    O            2.028996761172    -0.505477914558     0.821691959139
    C            3.077473540043     1.268821196712    -0.819880504774
    H            3.408974981540     1.654908349880     0.133321700165
    H            3.203261484902     2.012820167759    -1.590695730756
    H            3.642071513052     0.379772517709    -1.059823278322

  Mulliken Charges: (a.u.)
   Center  Symbol    Alpha    Beta     Spin     Total
       1     H     0.39593  0.39593  0.00000  0.20813
       2     C     3.09352  3.09352  0.00000 -0.18704
       3     C     3.10336  3.10336  0.00000 -0.20672
       4     C     3.10407  3.10407  0.00000 -0.20814
       5     H     0.39610  0.39610  0.00000  0.20781
       6     C     3.09265  3.09265  0.00000 -0.18530
       7     H     0.39548  0.39548  0.00000  0.20904
       8     C     3.09251  3.09251  0.00000 -0.18502
       9     H     0.38764  0.38764  0.00000  0.22472
      10     C     3.03218  3.03218  0.00000 -0.06435
      11     H     0.38364  0.38364  0.00000  0.23272
      12     C     2.62183  2.62183  0.00000  0.75634
      13     O     4.30138  4.30138  0.00000 -0.60276
      14     O     4.28309  4.28309  0.00000 -0.56618
      15     C     3.09395  3.09395  0.00000 -0.18789
      16     H     0.40861  0.40861  0.00000  0.18278
      17     H     0.40697  0.40697  0.00000  0.18606
      18     H     0.40711  0.40711  0.00000  0.18579

   Total alpha = 36.00000, Total beta = 36.00000, Total charge =  0.00000
