  ==> Input File <==

--------------------------------------------------------------------------
set {
	reference rhf
	basis 6-31G*
}

set_num_threads( 4 )
memory 2 gb

molecule MOL {
0 1

O	 -0.267241	 -2.316531	 -2.040639
C	 -0.539395	 -1.154785	 -2.013972
C	 -0.889235	 -0.467034	 -0.705952
C	 -0.518874	 -0.305648	 -3.265339
C	 0.379448	 -0.143569	 0.099626
H	 -1.516899	 -1.143635	 -0.136256
H	 -1.453394	 0.442579	 -0.891302
C	 1.631333	 -0.777471	 -0.511575
H	 0.482768	 0.934507	 0.149241
H	 0.263088	 -0.495696	 1.123449
C	 2.915987	 -0.544314	 0.291766
H	 1.766672	 -0.399098	 -1.523130
H	 1.471257	 -1.849544	 -0.605828
C	 3.373361	 0.914346	 0.347591
H	 3.708709	 -1.142521	 -0.150311
H	 2.780642	 -0.921148	 1.303579
H	 3.506512	 1.320010	 -0.651625
H	 4.322697	 0.999599	 0.867103
H	 2.660624	 1.545032	 0.868198
H	 -1.527230	 0.026637	 -3.497866
H	 -0.129437	 -0.878653	 -4.095272
H	 0.085016	 0.584737	 -3.115890

	symmetry c1
}
set optking {
	frozen_dihedral = ("
		6 3 5 8
	")
}

ee = optimize('scf')
oeprop('DIPOLE', 'QUADRUPOLE', 'MULLIKEN_CHARGES')
f=open( 'psi4out.xyz', 'w' )
f.write( "22  " )
f.write( str(ee) + "\n" )
f.write( MOL.save_string_xyz() )
f.close()
--------------------------------------------------------------------------

    Molecular point group: c1
  Charge       = 0
  Multiplicity = 1
  Basis Set: 6-31G*
  Basis Set:
  @DF-RHF Final Energy:  -348.08495419326437
    Total Energy =                       -348.0849541932642524
    Molecular point group: c1
  Basis Set: 6-31G*
  Basis Set:
  Basis Set: 6-31G*
  Basis Set:
  @DF-RHF Final Energy:  -348.08832689984439
    Total Energy =                       -348.0883268998441054
  Basis Set: 6-31G*
  Basis Set:
  Basis Set: 6-31G*
  Basis Set:
  @DF-RHF Final Energy:  -348.08882129560686
    Total Energy =                       -348.0888212956070902
  Basis Set: 6-31G*
  Basis Set:
  Basis Set: 6-31G*
  Basis Set:
  @DF-RHF Final Energy:  -348.08972287575210
    Total Energy =                       -348.0897228757519315
  Basis Set: 6-31G*
  Basis Set:
  @DF-RHF Final Energy:  -348.08989491661788
    Total Energy =                       -348.0898949166176521
  @DF-RHF Final Energy:  -348.08991591472972
    Total Energy =                       -348.0899159147297723
  @DF-RHF Final Energy:  -348.08993149988686
    Total Energy =                       -348.0899314998867453
  @DF-RHF Final Energy:  -348.08996825884640
    Total Energy =                       -348.0899682588463975
  @DF-RHF Final Energy:  -348.08999513497008
    Total Energy =                       -348.0899951349699677
  Basis Set: 6-31G*
  Basis Set:
  @DF-RHF Final Energy:  -348.09001620220755
    Total Energy =                       -348.0900162022076074
  Basis Set: 6-31G*
  Basis Set:
  Basis Set: 6-31G*
  Basis Set:
  @DF-RHF Final Energy:  -348.08999992493557
    Total Energy =                       -348.0899999249353414
  Basis Set: 6-31G*
  Basis Set:
  Basis Set: 6-31G*
  Basis Set:
  @DF-RHF Final Energy:  -348.09002245938967
    Total Energy =                       -348.0900224593898429
  Basis Set: 6-31G*
  Basis Set:
  Charge       = 0
  Multiplicity = 1
  Basis Set: 6-31G*
  Basis Set:

    Orbital Energies (a.u.)
    -----------------------

    Doubly Occupied:

       1A    -20.547437     2A    -11.324772     3A    -11.231184
       4A    -11.229417     5A    -11.227729     6A    -11.219916
       7A    -11.219274     8A    -11.212662     9A     -1.393147
      10A     -1.092453    11A     -1.042053    12A     -0.996931
      13A     -0.939501    14A     -0.861013    15A     -0.791350
      16A     -0.723895    17A     -0.657093    18A     -0.640711
      19A     -0.626792    20A     -0.622742    21A     -0.598295
      22A     -0.581381    23A     -0.565197    24A     -0.543637
      25A     -0.534886    26A     -0.524390    27A     -0.496176
      28A     -0.483110    29A     -0.469223    30A     -0.462150
      31A     -0.453942    32A     -0.397083

  @DF-RHF Final Energy:  -348.09002306936139

   => Energetics <=

    Nuclear Repulsion Energy =            382.0468819915664085
    One-Electron Energy =               -1228.8547275160844947
    Two-Electron Energy =                 498.7178224551569201
    DFT Exchange-Correlation Energy =       0.0000000000000000
    Empirical Dispersion Energy =           0.0000000000000000
    PCM Polarization Energy =               0.0000000000000000
    EFP Energy =                            0.0000000000000000
    Total Energy =                       -348.0900230693612230
    Molecular point group: c1
  Basis Set: 6-31G*
  Basis Set:

  -Total Gradient:
     Atom            X                  Y                   Z
    ------   -----------------  -----------------  -----------------
       1       -0.000023890782    -0.000043126790    -0.000029703527
       2        0.000096667280     0.000029229278     0.000013523885
       3        0.002291970947    -0.002892437772    -0.002670923852
       4       -0.000091551273    -0.000035903136    -0.000000393471
       5       -0.000933080133    -0.002564466469     0.002839836109
       6       -0.001737600350     0.003163708457     0.001561550652
       7        0.000009530624     0.000006473921     0.000008932284
       8        0.000341359905     0.002341622557    -0.001767081149
       9        0.000000088831     0.000013549757     0.000004383578
      10        0.000006056646     0.000003492876    -0.000004286971
      11        0.000003300655    -0.000003400071     0.000014527935
      12        0.000034956498    -0.000025223283     0.000034535836
      13       -0.000030739761    -0.000014685574    -0.000016245127
      14       -0.000013292449    -0.000002416275     0.000003526972
      15       -0.000005810412     0.000010821147    -0.000009742383
      16        0.000021110896    -0.000012360955     0.000004358448
      17        0.000009917019    -0.000002827328     0.000002850305
      18       -0.000004889007     0.000005238045     0.000008718319
      19       -0.000013081617     0.000008141469    -0.000007742766
      20        0.000023041470     0.000012021345     0.000006945184
      21        0.000013834752     0.000003367883     0.000000790575
      22        0.000002100264    -0.000000819079     0.000001639168

  **** Optimization is complete! (in 13 steps) ****
    Final optimized geometry and variables:
    Molecular point group: c1

    Geometry (in Angstrom), charge = 0, multiplicity = 1:

    O           -1.387658977210    -1.776617169699    -1.157221645580
    C           -1.418681306235    -0.587406619334    -1.063692849244
    C           -1.603587693996     0.097472632751     0.279218697319
    C           -1.303139360257     0.301964884273    -2.283322308724
    C           -0.286005537860     0.446760445793     1.037325878338
    H           -2.220677423935    -0.545992315877     0.893658022717
    H           -2.170349383886     1.011369291437     0.126652471199
    C            0.999554164218    -0.182235345415     0.485111447710
    H           -0.173769914545     1.525284280215     1.046792852932
    H           -0.404407968081     0.147679387907     2.073647741156
    C            2.236836555283     0.089760539381     1.348995408414
    H            1.189278598156     0.181661993095    -0.522839200328
    H            0.864369465122    -1.255803667389     0.400509595932
    C            2.663927961106     1.557490996792     1.413657166256
    H            3.062223425168    -0.495790318572     0.952653272935
    H            2.059560930840    -0.280662401241     2.356504822541
    H            2.833038483636     1.959196758437     0.417989339479
    H            3.588613780342     1.664056095716     1.972183403395
    H            1.919164586869     2.179066251621     1.899720675740
    H           -2.277486251208     0.730232431078    -2.505132881620
    H           -0.970745401018    -0.277820310852    -3.133319489867
    H           -0.622426391776     1.128645272990    -2.107177784482

  Mulliken Charges: (a.u.)
   Center  Symbol    Alpha    Beta     Spin     Total
       1     O     4.26200  4.26200  0.00000 -0.52401
       2     C     2.73648  2.73648  0.00000  0.52704
       3     C     3.20470  3.20470  0.00000 -0.40941
       4     C     3.28891  3.28891  0.00000 -0.57782
       5     C     3.15821  3.15821  0.00000 -0.31643
       6     H     0.39918  0.39918  0.00000  0.20165
       7     H     0.41502  0.41502  0.00000  0.16995
       8     C     3.16721  3.16721  0.00000 -0.33441
       9     H     0.41646  0.41646  0.00000  0.16709
      10     H     0.41296  0.41296  0.00000  0.17409
      11     C     3.15325  3.15325  0.00000 -0.30650
      12     H     0.42436  0.42436  0.00000  0.15127
      13     H     0.40442  0.40442  0.00000  0.19116
      14     C     3.24207  3.24207  0.00000 -0.48414
      15     H     0.41793  0.41793  0.00000  0.16414
      16     H     0.42166  0.42166  0.00000  0.15668
      17     H     0.42255  0.42255  0.00000  0.15490
      18     H     0.41760  0.41760  0.00000  0.16480
      19     H     0.42079  0.42079  0.00000  0.15841
      20     H     0.40583  0.40583  0.00000  0.18833
      21     H     0.39734  0.39734  0.00000  0.20532
      22     H     0.41105  0.41105  0.00000  0.17789

   Total alpha = 32.00000, Total beta = 32.00000, Total charge =  0.00000
