                              Psi4 1.0.54 Driver

  ==> Input File <==

--------------------------------------------------------------------------
set {
	reference rhf
	basis cc-pvtz
}

set_num_threads( 4 )
memory 2 gb

molecule MOL {
0 1

H	 -3.774716	 0.093441	 -0.451135
O	 -2.937540	 0.424859	 -0.718222
C	 -2.021813	 0.336996	 0.342658
C	 -0.669613	 0.837286	 -0.127252
H	 -2.359892	 0.938413	 1.182732
H	 -1.937018	 -0.691896	 0.687005
C	 0.490865	 -0.082543	 0.241244
H	 -0.708709	 0.967192	 -1.204587
H	 -0.507562	 1.822272	 0.303070
C	 1.839800	 0.429565	 -0.255472
H	 0.305636	 -1.070211	 -0.165276
H	 0.527397	 -0.195943	 1.322876
C	 3.001144	 -0.485193	 0.119072
H	 1.804373	 0.541073	 -1.335756
H	 2.020437	 1.423114	 0.146921
H	 2.866892	 -1.477297	 -0.298806
H	 3.943543	 -0.095749	 -0.249061
H	 3.085064	 -0.590459	 1.195790

	symmetry c1
}
set optking {
	frozen_dihedral = ("
		2 3 4 8
	")
}

ee,wfn = optimize('scf', return_wfn=True)
oeprop( wfn, 'DIPOLE', 'QUADRUPOLE', 'MULLIKEN_CHARGES')
f=open( 'psi4out.xyz', 'w' )
f.write( "18  " )
f.write( str(ee) + "\n" )
f.write( MOL.save_string_xyz() )
f.close()
--------------------------------------------------------------------------

    Molecular point group: c1
  Charge       = 0
  Multiplicity = 1
  Basis Set: CC-PVTZ
  Basis Set:
  @DF-RHF Final Energy:  -271.28141766480769
    Total Energy =                       -271.2814176648078046
    Molecular point group: c1
  Basis Set: CC-PVTZ
  Basis Set:
  Basis Set: CC-PVTZ
  Basis Set:
  @DF-RHF Final Energy:  -271.28178708840619
    Total Energy =                       -271.2817870884060767
  Basis Set: CC-PVTZ
  Basis Set:
  Basis Set: CC-PVTZ
  Basis Set:
  @DF-RHF Final Energy:  -271.28185240429684
    Total Energy =                       -271.2818524042967852
  Basis Set: CC-PVTZ
  Basis Set:
  Basis Set: CC-PVTZ
  Basis Set:
  @DF-RHF Final Energy:  -271.28185569185632
    Total Energy =                       -271.2818556918562081
  Basis Set: CC-PVTZ
  Basis Set:
  Charge       = 0
  Multiplicity = 1
  Basis Set: CC-PVTZ
  Basis Set:

    Orbital Energies (a.u.)
    -----------------------

    Doubly Occupied:

       1A    -20.545320     2A    -11.265457     3A    -11.212940
       4A    -11.212296     5A    -11.208972     6A    -11.206117
       7A     -1.362478     8A     -1.079947     9A     -1.010017
      10A     -0.913894    11A     -0.821290    12A     -0.792137
      13A     -0.702616    14A     -0.649003    15A     -0.626753
      16A     -0.584277    17A     -0.572684    18A     -0.560510
      19A     -0.529958    20A     -0.498117    21A     -0.489971
      22A     -0.469821    23A     -0.463382    24A     -0.452605
      25A     -0.431073

  @DF-RHF Final Energy:  -271.28185591919555

   => Energetics <=

    Nuclear Repulsion Energy =            245.7607055857839384
    One-Electron Energy =                -854.7618531461829434
    Two-Electron Energy =                 337.7192916412034265
    DFT Exchange-Correlation Energy =       0.0000000000000000
    Empirical Dispersion Energy =           0.0000000000000000
    PCM Polarization Energy =               0.0000000000000000
    EFP Energy =                            0.0000000000000000
    Total Energy =                       -271.2818559191955501
    Molecular point group: c1
  Basis Set: CC-PVTZ
  Basis Set:

  -Total Gradient:
     Atom            X                  Y                   Z
    ------   -----------------  -----------------  -----------------
       1        0.000028926396     0.000012921660    -0.000021172684
       2        0.000490266040    -0.002058146142    -0.000545208774
       3       -0.000806723699     0.003242899023     0.000865982410
       4        0.001214339327    -0.003879885196    -0.000557425103
       5       -0.000016468029     0.000010727560    -0.000022938205
       6       -0.000008590827     0.000010071375    -0.000013525652
       7       -0.000016263179    -0.000015409825    -0.000043884712
       8       -0.000851463122     0.002657973902     0.000300783173
       9       -0.000028940071    -0.000017363234     0.000023226063
      10        0.000005993087     0.000014119959     0.000021045463
      11        0.000001424230     0.000009031999    -0.000000080352
      12       -0.000017140240     0.000009859323    -0.000012252236
      13        0.000001015616    -0.000002504626    -0.000005939941
      14       -0.000002480318    -0.000006453189     0.000010567005
      15        0.000004980285     0.000011388688     0.000000351226
      16       -0.000000317606    -0.000000512146     0.000003920837
      17        0.000000117579    -0.000001768071    -0.000002273552
      18        0.000001324532     0.000003048941    -0.000001174965

  **** Optimization is complete! (in 5 steps) ****
    Final optimized geometry and variables:
    Molecular point group: c1

    Geometry (in Angstrom), charge = 0, multiplicity = 1:

    H           -3.691585346394    -0.085095343255    -0.325830619572
    O           -2.840879783524     0.172355286579    -0.630156457971
    C           -1.912377072044     0.100411335329     0.422442486655
    C           -0.553168838880     0.593153943701    -0.078864454351
    H           -2.248506397431     0.697226927538     1.265477054643
    H           -1.828978751713    -0.927621589769     0.766289715600
    C            0.609260567078    -0.318160287297     0.300701410386
    H           -0.620283393101     0.698835913403    -1.154978006105
    H           -0.365232764670     1.591496301971     0.304322563192
    C            1.962690123044     0.203436990775    -0.171741162330
    H            0.438585771680    -1.307103781889    -0.117518299451
    H            0.633505087157    -0.445004385201     1.381205798259
    C            3.121926300762    -0.715420845435     0.199027880026
    H            1.937573835827     0.335514648489    -1.249813500730
    H            2.135034768330     1.189335900474     0.251269279222
    H            2.996280574338    -1.700130085808    -0.238753489912
    H            4.066941643735    -0.316509049677    -0.151327809948
    H            3.194303609091    -0.840127806763     1.274474374600

  Mulliken Charges: (a.u.)
   Center  Symbol    Alpha    Beta     Spin     Total
       1     H     0.39572  0.39572  0.00000  0.20856
       2     O     4.19672  4.19672  0.00000 -0.39343
       3     C     2.96463  2.96463  0.00000  0.07074
       4     C     3.08993  3.08993  0.00000 -0.17985
       5     H     0.47266  0.47266  0.00000  0.05468
       6     H     0.47576  0.47576  0.00000  0.04847
       7     C     3.09508  3.09508  0.00000 -0.19016
       8     H     0.44426  0.44426  0.00000  0.11148
       9     H     0.45495  0.45495  0.00000  0.09010
      10     C     3.08500  3.08500  0.00000 -0.17001
      11     H     0.45273  0.45273  0.00000  0.09455
      12     H     0.45599  0.45599  0.00000  0.08802
      13     C     3.14964  3.14964  0.00000 -0.29929
      14     H     0.45306  0.45306  0.00000  0.09388
      15     H     0.45469  0.45469  0.00000  0.09062
      16     H     0.45495  0.45495  0.00000  0.09010
      17     H     0.44842  0.44842  0.00000  0.10315
      18     H     0.45581  0.45581  0.00000  0.08838

   Total alpha = 25.00000, Total beta = 25.00000, Total charge = -0.00000

*** Psi4 exiting successfully. Buy a developer a beer!
