                              Psi4 1.0.54 Driver

  ==> Input File <==

--------------------------------------------------------------------------
set {
	reference rhf
	basis cc-pvtz
}

set_num_threads( 4 )
memory 2 gb

molecule MOL {
0 1

H	 -3.162190	 0.493205	 -0.000107
C	 -2.363908	 -0.234727	 0.000005
O	 -1.158738	 0.454634	 -0.000087
H	 -2.464314	 -0.863616	 -0.882153
H	 -2.464327	 -0.863359	 0.882345
C	 -0.247989	 0.023960	 0.961876
C	 1.017321	 0.851255	 0.857156
H	 -0.019807	 -1.031906	 0.814504
H	 -0.680740	 0.123626	 1.957585
C	 2.068765	 0.439410	 1.881459
H	 1.414147	 0.749945	 -0.146932
H	 0.758470	 1.896272	 0.987114
H	 2.360377	 -0.597750	 1.753594
H	 2.960979	 1.045653	 1.784277
H	 1.700434	 0.556518	 2.895208

	symmetry c1
}
set optking {
	frozen_dihedral = ("
		6 3 2 4
	")
}

ee,wfn = optimize('scf', return_wfn=True)
oeprop( wfn, 'DIPOLE', 'QUADRUPOLE', 'MULLIKEN_CHARGES')
f=open( 'psi4out.xyz', 'w' )
f.write( "15  " )
f.write( str(ee) + "\n" )
f.write( MOL.save_string_xyz() )
f.close()
--------------------------------------------------------------------------

    Molecular point group: c1
  Charge       = 0
  Multiplicity = 1
  Basis Set: CC-PVTZ
  Basis Set:
  @DF-RHF Final Energy:  -232.22452228167060
    Total Energy =                       -232.2245222816704882
    Molecular point group: c1
  Basis Set: CC-PVTZ
  Basis Set:
  Basis Set: CC-PVTZ
  Basis Set:
  @DF-RHF Final Energy:  -232.22478436294492
    Total Energy =                       -232.2247843629451154
  Basis Set: CC-PVTZ
  Basis Set:
  Basis Set: CC-PVTZ
  Basis Set:
  @DF-RHF Final Energy:  -232.22484558742903
    Total Energy =                       -232.2248455874290016
  Basis Set: CC-PVTZ
  Basis Set:
  Charge       = 0
  Multiplicity = 1
  Basis Set: CC-PVTZ
  Basis Set:

    Orbital Energies (a.u.)
    -----------------------

    Doubly Occupied:

       1A    -20.544169     2A    -11.264864     3A    -11.261273
       4A    -11.212243     5A    -11.210467     6A     -1.377102
       7A     -1.058040     8A     -0.956146     9A     -0.877355
      10A     -0.809183    11A     -0.673262    12A     -0.653927
      13A     -0.631804    14A     -0.608183    15A     -0.563781
      16A     -0.545276    17A     -0.502943    18A     -0.489748
      19A     -0.479164    20A     -0.462050    21A     -0.411179

  @DF-RHF Final Energy:  -232.22484606084177

   => Energetics <=

    Nuclear Repulsion Energy =            189.6759599958333808
    One-Electron Energy =                -690.6172950923732969
    Two-Electron Energy =                 268.7164890356980322
    DFT Exchange-Correlation Energy =       0.0000000000000000
    Empirical Dispersion Energy =           0.0000000000000000
    PCM Polarization Energy =               0.0000000000000000
    EFP Energy =                            0.0000000000000000
    Total Energy =                       -232.2248460608418554
    Molecular point group: c1
  Basis Set: CC-PVTZ
  Basis Set:

  -Total Gradient:
     Atom            X                  Y                   Z
    ------   -----------------  -----------------  -----------------
       1       -0.000008779830    -0.000003483153     0.000002233499
       2        0.000658276883    -0.001113311682     0.001288879590
       3        0.000358970550    -0.000892796089    -0.001402983273
       4       -0.000645663769     0.001194202283    -0.000738443098
       5       -0.000003343367    -0.000008124826     0.000004048298
       6       -0.000388218681     0.000811318954     0.000802188324
       7       -0.000009975423    -0.000015104620     0.000021850901
       8       -0.000006913657     0.000009371301     0.000013145865
       9       -0.000008221738     0.000009736999    -0.000031498771
      10        0.000046441402     0.000022008549     0.000014856051
      11       -0.000017455181    -0.000006447929     0.000010753016
      12        0.000003813095    -0.000005193627    -0.000000964038
      13       -0.000003400177     0.000005255301    -0.000001251817
      14        0.000021371760    -0.000005630244     0.000018613628
      15        0.000003098133    -0.000001801219    -0.000001428174

  **** Optimization is complete! (in 4 steps) ****
    Final optimized geometry and variables:
    Molecular point group: c1

    Geometry (in Angstrom), charge = 0, multiplicity = 1:

    H           -3.022128479361     0.226685050666    -0.731946229365
    C           -2.220799268539    -0.502417294830    -0.733262980667
    O           -0.996936324518     0.164408612111    -0.713238950813
    H           -2.310744841449    -1.102099107665    -1.633289468977
    H           -2.347592324587    -1.148346960616     0.129351773371
    C           -0.072793831332    -0.279045734244     0.231757435705
    C            1.190514066237     0.549540967975     0.114560614272
    H            0.156462758507    -1.332671957791     0.072586223424
    H           -0.488658925671    -0.186716659683     1.234569289547
    C            2.256417577499     0.131828211927     1.121704369870
    H            1.573481633683     0.455018936490    -0.895592200545
    H            0.932747037027     1.593602224663     0.254508559583
    H            2.546857819412    -0.904342197219     0.983215748837
    H            3.147056746693     0.739192114435     1.016333653858
    H            1.902017048595     0.242194888515     2.141227618391

  Mulliken Charges: (a.u.)
   Center  Symbol    Alpha    Beta     Spin     Total
       1     H     0.45549  0.45549  0.00000  0.08902
       2     C     3.02928  3.02928  0.00000 -0.05855
       3     O     4.17632  4.17632  0.00000 -0.35263
       4     H     0.46046  0.46046  0.00000  0.07908
       5     H     0.47317  0.47317  0.00000  0.05367
       6     C     2.95540  2.95540  0.00000  0.08920
       7     C     3.08206  3.08206  0.00000 -0.16411
       8     H     0.47607  0.47607  0.00000  0.04787
       9     H     0.47545  0.47545  0.00000  0.04909
      10     C     3.15591  3.15591  0.00000 -0.31181
      11     H     0.45112  0.45112  0.00000  0.09775
      12     H     0.45124  0.45124  0.00000  0.09752
      13     H     0.45585  0.45585  0.00000  0.08831
      14     H     0.44629  0.44629  0.00000  0.10742
      15     H     0.45590  0.45590  0.00000  0.08819

   Total alpha = 21.00000, Total beta = 21.00000, Total charge =  0.00000

*** Psi4 exiting successfully. Buy a developer a beer!
