  ==> Input File <==

--------------------------------------------------------------------------
set {
	reference rhf
	basis 6-31G*
}

set_num_threads( 4 )
memory 2 gb

molecule MOL {
0 1

H	 5.163236	 -0.592095	 1.006542
C	 4.554514	 -0.759372	 0.123367
C	 3.065408	 -0.661338	 0.452196
H	 4.838738	 -0.019655	 -0.619181
H	 4.807132	 -1.739600	 -0.271774
C	 2.177425	 -0.899195	 -0.771211
H	 2.853958	 0.318606	 0.867647
H	 2.818713	 -1.389992	 1.222843
C	 0.680572	 -0.825251	 -0.469171
H	 2.417590	 -0.174694	 -1.541316
H	 2.394952	 -1.882415	 -1.182310
C	 0.169600	 0.576866	 -0.172154
H	 0.114473	 -1.186185	 -1.326510
H	 0.417401	 -1.484282	 0.355205
C	 -1.181045	 0.701995	 0.511084
O	 0.793410	 1.548135	 -0.478591
C	 -2.285934	 -0.139295	 -0.145128
H	 -1.449051	 1.751551	 0.493206
H	 -1.071135	 0.403303	 1.551943
C	 -3.651768	 0.085446	 0.506485
H	 -2.346596	 0.110469	 -1.202272
H	 -2.034737	 -1.195320	 -0.088721
C	 -4.759797	 -0.746382	 -0.137905
H	 -3.908762	 1.140117	 0.445781
H	 -3.588286	 -0.154158	 1.565709
H	 -4.868882	 -0.505166	 -1.191300
H	 -4.548009	 -1.809175	 -0.062213
H	 -5.715422	 -0.564821	 0.343442

	symmetry c1
}
set optking {
	frozen_dihedral = ("
		16 12 15 17
	")
}

ee = optimize('scf')
oeprop('DIPOLE', 'QUADRUPOLE', 'MULLIKEN_CHARGES')
f=open( 'psi4out.xyz', 'w' )
f.write( "28  " )
f.write( str(ee) + "\n" )
f.write( MOL.save_string_xyz() )
f.close()
--------------------------------------------------------------------------

    Molecular point group: c1
  Charge       = 0
  Multiplicity = 1
  Basis Set: 6-31G*
  Basis Set:
  @DF-RHF Final Energy:  -426.16884847462995
    Total Energy =                       -426.1688484746306358
    Molecular point group: c1
  Basis Set: 6-31G*
  Basis Set:
  Basis Set: 6-31G*
  Basis Set:
  @DF-RHF Final Energy:  -426.16692867337883
    Total Energy =                       -426.1669286733789477
  Basis Set: 6-31G*
  Basis Set:
  Basis Set: 6-31G*
  Basis Set:
  @DF-RHF Final Energy:  -426.16895646321711
    Total Energy =                       -426.1689564632174552
  Basis Set: 6-31G*
  Basis Set:
  Basis Set: 6-31G*
  Basis Set:
  @DF-RHF Final Energy:  -426.16892713764139
    Total Energy =                       -426.1689271376419583
  Basis Set: 6-31G*
  Basis Set:
  Basis Set: 6-31G*
  Basis Set:
  @DF-RHF Final Energy:  -426.16876057490754
    Total Energy =                       -426.1687605749073100
  Basis Set: 6-31G*
  Basis Set:
  Basis Set: 6-31G*
  Basis Set:
  @DF-RHF Final Energy:  -426.16904063376739
    Total Energy =                       -426.1690406337672812
  Basis Set: 6-31G*
  Basis Set:
  Charge       = 0
  Multiplicity = 1
  Basis Set: 6-31G*
  Basis Set:

    Orbital Energies (a.u.)
    -----------------------

    Doubly Occupied:

       1A    -20.547827     2A    -11.322462     3A    -11.232096
       4A    -11.230108     5A    -11.229332     6A    -11.226300
       7A    -11.216618     8A    -11.216266     9A    -11.212026
      10A    -11.205546    11A     -1.393190    12A     -1.095678
      13A     -1.077183    14A     -1.022692    15A     -0.990625
      16A     -0.907186    17A     -0.874189    18A     -0.809553
      19A     -0.799944    20A     -0.722335    21A     -0.667945
      22A     -0.654883    23A     -0.628101    24A     -0.619444
      25A     -0.609314    26A     -0.587544    27A     -0.578789
      28A     -0.574563    29A     -0.542437    30A     -0.532080
      31A     -0.519561    32A     -0.509418    33A     -0.496516
      34A     -0.485758    35A     -0.479873    36A     -0.475735
      37A     -0.470867    38A     -0.465058    39A     -0.455567
      40A     -0.392405

  @DF-RHF Final Energy:  -426.16904140013673

   => Energetics <=

    Nuclear Repulsion Energy =            531.5007676576677795
    One-Electron Energy =               -1631.1855915467456271
    Two-Electron Energy =                 673.5157824889411131
    DFT Exchange-Correlation Energy =       0.0000000000000000
    Empirical Dispersion Energy =           0.0000000000000000
    PCM Polarization Energy =               0.0000000000000000
    EFP Energy =                            0.0000000000000000
    Total Energy =                       -426.1690414001368481
    Molecular point group: c1
  Basis Set: 6-31G*
  Basis Set:

  -Total Gradient:
     Atom            X                  Y                   Z
    ------   -----------------  -----------------  -----------------
       1       -0.000006350408    -0.000002635732     0.000000458750
       2       -0.000005813525    -0.000013562669    -0.000010647516
       3       -0.000012807534     0.000035188227     0.000015001305
       4       -0.000005058714    -0.000001894215     0.000003075471
       5        0.000007447870    -0.000004183039    -0.000001564478
       6       -0.000016227429     0.000021527845     0.000023010040
       7        0.000021341835    -0.000008278042    -0.000000387456
       8       -0.000015200779    -0.000000808746    -0.000006890115
       9        0.000014324135    -0.000004502699     0.000081400962
      10        0.000000626472     0.000030240631    -0.000001640723
      11       -0.000024049881     0.000000314598    -0.000023890849
      12       -0.000437051189    -0.000136262519    -0.000860237477
      13        0.000004327889     0.000008491597    -0.000027647939
      14        0.000018980230     0.000012898888    -0.000000456538
      15       -0.000052092901     0.000629517395    -0.000240761437
      16        0.000393512717    -0.000077429552     0.000660885437
      17        0.000128101416    -0.000481780959     0.000375875913
      18        0.000002650191     0.000007186319    -0.000001366831
      19       -0.000033784590    -0.000017954627    -0.000004828915
      20        0.000002242931    -0.000009433228     0.000016220174
      21        0.000010122033     0.000003953303     0.000023973353
      22        0.000015963332    -0.000010482644    -0.000005524887
      23       -0.000007738020     0.000023081965    -0.000015501502
      24        0.000001678599     0.000001059192     0.000011920280
      25       -0.000002427111    -0.000009440870    -0.000004245809
      26       -0.000003153945    -0.000006510340    -0.000007823139
      27        0.000003640768     0.000006840136     0.000007475717
      28       -0.000003204388     0.000004859784    -0.000005881790

  **** Optimization is complete! (in 7 steps) ****
    Final optimized geometry and variables:
    Molecular point group: c1

    Geometry (in Angstrom), charge = 0, multiplicity = 1:

    H            5.226177494771    -0.433714221162     1.062568814206
    C            4.616534261686    -0.614392482199     0.182678459277
    C            3.127532175538    -0.530161208927     0.515688314791
    H            4.890213802623     0.122806649889    -0.566310472203
    H            4.878786332468    -1.594758316076    -0.205879935677
    C            2.238495032269    -0.787690204832    -0.702968952756
    H            2.906350845374     0.450378115464     0.924172589217
    H            2.891448621633    -1.255844700167     1.292484898983
    C            0.741890777396    -0.731454973305    -0.396821309474
    H            2.467290262317    -0.065829223528    -1.479045603236
    H            2.467155842891    -1.771017916946    -1.107748139673
    C            0.210724388362     0.666675568166    -0.120756293653
    H            0.176855066443    -1.118535381566    -1.243307261103
    H            0.492883954746    -1.378380603529     0.441748420902
    C           -1.148550204107     0.788254901701     0.547462066838
    O            0.838357696327     1.641990226146    -0.405733314390
    C           -2.272616090794    -0.026919925350    -0.105135152123
    H           -1.399689743009     1.842046266505     0.561371623157
    H           -1.030043997403     0.468879342664     1.582464495079
    C           -3.625419808160     0.208310263222     0.569839343587
    H           -2.347722233710     0.237964702064    -1.157965262990
    H           -2.037272971564    -1.087082410138    -0.068463190467
    C           -4.756278761707    -0.593227044756    -0.073215163803
    H           -3.865961183500     1.267957708636     0.532302087087
    H           -3.550984200834    -0.051617029709     1.623569850989
    H           -4.876061527956    -0.331553735252    -1.120586801799
    H           -4.561417298263    -1.660569980031    -0.019286399113
    H           -5.701938989215    -0.404438354599     0.424767799015

  Mulliken Charges: (a.u.)
   Center  Symbol    Alpha    Beta     Spin     Total
       1     H     0.41939  0.41939  0.00000  0.16123
       2     C     3.24014  3.24014  0.00000 -0.48028
       3     C     3.15639  3.15639  0.00000 -0.31278
       4     H     0.41832  0.41832  0.00000  0.16335
       5     H     0.42370  0.42370  0.00000  0.15260
       6     C     3.14884  3.14884  0.00000 -0.29768
       7     H     0.40991  0.40991  0.00000  0.18019
       8     H     0.42792  0.42792  0.00000  0.14415
       9     C     3.21350  3.21350  0.00000 -0.42700
      10     H     0.40682  0.40682  0.00000  0.18636
      11     H     0.42203  0.42203  0.00000  0.15593
      12     C     2.72854  2.72854  0.00000  0.54292
      13     H     0.40294  0.40294  0.00000  0.19411
      14     H     0.41258  0.41258  0.00000  0.17485
      15     C     3.20379  3.20379  0.00000 -0.40759
      16     O     4.26775  4.26775  0.00000 -0.53550
      17     C     3.16328  3.16328  0.00000 -0.32656
      18     H     0.39939  0.39939  0.00000  0.20123
      19     H     0.41049  0.41049  0.00000  0.17901
      20     C     3.15198  3.15198  0.00000 -0.30396
      21     H     0.41601  0.41601  0.00000  0.16797
      22     H     0.41834  0.41834  0.00000  0.16333
      23     C     3.24021  3.24021  0.00000 -0.48043
      24     H     0.41856  0.41856  0.00000  0.16288
      25     H     0.42129  0.42129  0.00000  0.15741
      26     H     0.41990  0.41990  0.00000  0.16020
      27     H     0.42117  0.42117  0.00000  0.15766
      28     H     0.41680  0.41680  0.00000  0.16640

   Total alpha = 40.00000, Total beta = 40.00000, Total charge =  0.00000
