  ==> Input File <==

--------------------------------------------------------------------------
set {
	reference rhf
	basis 6-31G*
}

set_num_threads( 1 )
memory 2 gb

molecule MOL {
0 1

H	 -3.338529	 0.334146	 -2.008041
C	 -2.656569	 -0.344562	 -1.533755
C	 -2.076860	 -0.007332	 -0.404944
H	 -2.465900	 -1.291723	 -2.002201
O	 -1.180634	 -0.819263	 0.215062
H	 -2.259772	 0.933252	 0.083973
C	 0.051604	 -1.018856	 -0.387932
C	 1.043764	 0.054862	 -0.001873
H	 -0.017620	 -1.041351	 -1.469781
H	 0.437898	 -1.966374	 -0.042284
F	 2.212596	 -0.199467	 -0.571921
F	 0.652529	 1.252447	 -0.405055
F	 1.230877	 0.110694	 1.300533

	symmetry c1
}
set optking {
	frozen_dihedral = ("
		11 8 7 9,
		3 5 7 9,
		6 3 2 1
	")
}

ee = energy('scf')
oeprop('DIPOLE', 'QUADRUPOLE', 'MULLIKEN_CHARGES')
f=open( 'psi4out.xyz', 'w' )
f.write( "13  " )
f.write( str(ee) + "\n" )
f.write( MOL.save_string_xyz() )
f.close()
--------------------------------------------------------------------------

    Molecular point group: c1

    Geometry (in Angstrom), charge = 0, multiplicity = 1:

       Center              X                  Y                   Z               Mass
    ------------   -----------------  -----------------  -----------------  -----------------
           H         -3.398617341918     0.412243154383    -1.818910519879     1.007825032070
           C         -2.716657341918    -0.266464845617    -1.344624519879    12.000000000000
           C         -2.136948341918     0.070765154383    -0.215813519879    12.000000000000
           H         -2.525988341918    -1.213625845617    -1.813070519879     1.007825032070
           O         -1.240722341918    -0.741165845617     0.404192480121    15.994914619560
           H         -2.319860341918     1.011349154383     0.273103480121     1.007825032070
           C         -0.008484341918    -0.940758845617    -0.198801519879    12.000000000000
           C          0.983675658082     0.132959154383     0.187257480121    12.000000000000
           H         -0.077708341918    -0.963253845617    -1.280650519879     1.007825032070
           H          0.377809658082    -1.888276845617     0.146846480121     1.007825032070
           F          2.152507658082    -0.121369845617    -0.382790519879    18.998403224000
           F          0.592440658082     1.330544154383    -0.215924519879    18.998403224000
           F          1.170788658082     0.188791154383     1.489663480121    18.998403224000

  Charge       = 0
  Multiplicity = 1
  Basis Set: 6-31G*
  Basis Set:

    Orbital Energies (a.u.)
    -----------------------

    Doubly Occupied:

       1A    -26.341891     2A    -26.341179     3A    -26.338758
       4A    -20.599195     5A    -11.499838     6A    -11.313615
       7A    -11.297263     8A    -11.227184     9A     -1.739384
      10A     -1.637273    11A     -1.636257    12A     -1.432792
      13A     -1.078928    14A     -1.020532    15A     -0.927364
      16A     -0.835485    17A     -0.828817    18A     -0.827213
      19A     -0.762595    20A     -0.722342    21A     -0.712373
      22A     -0.701735    23A     -0.672654    24A     -0.657814
      25A     -0.652533    26A     -0.646022    27A     -0.640997
      28A     -0.591522    29A     -0.562312    30A     -0.530825
      31A     -0.471875    32A     -0.372258

  @DF-RHF Final Energy:  -527.53181751808233

   => Energetics <=

    Nuclear Repulsion Energy =            415.9321781073377338
    One-Electron Energy =               -1555.6864092494652141
    Two-Electron Energy =                 612.2224136240458847
    DFT Exchange-Correlation Energy =       0.0000000000000000
    Empirical Dispersion Energy =           0.0000000000000000
    PCM Polarization Energy =               0.0000000000000000
    EFP Energy =                            0.0000000000000000
    Total Energy =                       -527.5318175180816525

  Mulliken Charges: (a.u.)
   Center  Symbol    Alpha    Beta     Spin     Total
       1     H     0.40458  0.40458  0.00000  0.19084
       2     C     3.22240  3.22240  0.00000 -0.44479
       3     C     2.90997  2.90997  0.00000  0.18007
       4     H     0.40593  0.40593  0.00000  0.18814
       5     O     4.30786  4.30786  0.00000 -0.61573
       6     H     0.39942  0.39942  0.00000  0.20116
       7     C     3.05370  3.05370  0.00000 -0.10741
       8     C     2.45830  2.45830  0.00000  1.08340
       9     H     0.40449  0.40449  0.00000  0.19101
      10     H     0.39454  0.39454  0.00000  0.21092
      11     F     4.68322  4.68322  0.00000 -0.36644
      12     F     4.67991  4.67991  0.00000 -0.35982
      13     F     4.67567  4.67567  0.00000 -0.35134

   Total alpha = 32.00000, Total beta = 32.00000, Total charge =  0.00000
