                              Psi4 1.0.54 Driver

  ==> Input File <==

--------------------------------------------------------------------------
set {
	reference rhf
	basis cc-pvtz
}

set_num_threads( 4 )
memory 2 gb

molecule MOL {
0 1

O	 -0.694481	 1.313155	 -0.204815
C	 -0.862519	 0.151932	 -0.046791
C	 -2.171428	 -0.477048	 0.339095
O	 0.085519	 -0.757083	 -0.192238
H	 -2.467997	 -1.191667	 -0.417688
H	 -2.923379	 0.287970	 0.444097
H	 -2.053854	 -1.015120	 1.270901
C	 1.392036	 -0.330828	 -0.560749
C	 1.379905	 0.457568	 -1.853878
H	 2.038589	 -1.191142	 -0.635881
H	 1.721038	 0.285558	 0.262402
H	 2.378798	 0.821326	 -2.066817
H	 1.060299	 -0.161422	 -2.680973
H	 0.716449	 1.310405	 -1.775851

	symmetry c1
}
set optking {
	frozen_dihedral = ("
		10 8 4 2
	")
}

ee,wfn = optimize('scf', return_wfn=True)
oeprop( wfn, 'DIPOLE', 'QUADRUPOLE', 'MULLIKEN_CHARGES')
f=open( 'psi4out.xyz', 'w' )
f.write( "14  " )
f.write( str(ee) + "\n" )
f.write( MOL.save_string_xyz() )
f.close()
--------------------------------------------------------------------------

    Molecular point group: c1
  Charge       = 0
  Multiplicity = 1
  Basis Set: CC-PVTZ
  Basis Set:
  @DF-RHF Final Energy:  -305.98347001776187
    Total Energy =                       -305.9834700177618743
    Molecular point group: c1
  Basis Set: CC-PVTZ
  Basis Set:
  Basis Set: CC-PVTZ
  Basis Set:
  @DF-RHF Final Energy:  -305.98686298070413
    Total Energy =                       -305.9868629807043590
  Basis Set: CC-PVTZ
  Basis Set:
  Basis Set: CC-PVTZ
  Basis Set:
  @DF-RHF Final Energy:  -305.98857212072420
    Total Energy =                       -305.9885721207242000
  Basis Set: CC-PVTZ
  Basis Set:
  Basis Set: CC-PVTZ
  Basis Set:
  @DF-RHF Final Energy:  -305.98552620114100
    Total Energy =                       -305.9855262011407717
  Basis Set: CC-PVTZ
  Basis Set:
  @DF-RHF Final Energy:  -305.98892773357011
    Total Energy =                       -305.9889277335703355
  Basis Set: CC-PVTZ
  Basis Set:
  @DF-RHF Final Energy:  -305.98897621253900
    Total Energy =                       -305.9889762125391712
  Basis Set: CC-PVTZ
  Basis Set:
  Basis Set: CC-PVTZ
  Basis Set:
  @DF-RHF Final Energy:  -305.98898011144104
    Total Energy =                       -305.9889801114408101
  Basis Set: CC-PVTZ
  Basis Set:
  Basis Set: CC-PVTZ
  Basis Set:
  @DF-RHF Final Energy:  -305.98898134730706
    Total Energy =                       -305.9889813473068898
  Basis Set: CC-PVTZ
  Basis Set:
  Charge       = 0
  Multiplicity = 1
  Basis Set: CC-PVTZ
  Basis Set:

    Orbital Energies (a.u.)
    -----------------------

    Doubly Occupied:

       1A    -20.594045     2A    -20.532835     3A    -11.367829
       4A    -11.285733     5A    -11.231315     6A    -11.214512
       7A     -1.469832     8A     -1.365802     9A     -1.055413
      10A     -0.998875    11A     -0.887405    12A     -0.759532
      13A     -0.701075    14A     -0.684929    15A     -0.663925
      16A     -0.614546    17A     -0.588227    18A     -0.571229
      19A     -0.555116    20A     -0.531227    21A     -0.515261
      22A     -0.496738    23A     -0.455294    24A     -0.439084

  @DF-RHF Final Energy:  -305.98898234673277

   => Energetics <=

    Nuclear Repulsion Energy =            250.1148884322794004
    One-Electron Energy =                -913.0481735273810955
    Two-Electron Energy =                 356.9443027483688411
    DFT Exchange-Correlation Energy =       0.0000000000000000
    Empirical Dispersion Energy =           0.0000000000000000
    PCM Polarization Energy =               0.0000000000000000
    EFP Energy =                            0.0000000000000000
    Total Energy =                       -305.9889823467328824
    Molecular point group: c1
  Basis Set: CC-PVTZ
  Basis Set:

  -Total Gradient:
     Atom            X                  Y                   Z
    ------   -----------------  -----------------  -----------------
       1        0.000054775173    -0.000016316193     0.000005951960
       2       -0.001581849435    -0.000825019601    -0.004249913349
       3        0.000000640213    -0.000008467336    -0.000064831113
       4        0.002001773309     0.001172912573     0.005326716566
       5       -0.000007787055    -0.000050723414    -0.000017809449
       6       -0.000018630695     0.000022133755     0.000012391940
       7        0.000021687447    -0.000002492577     0.000065427533
       8        0.001050151551     0.000762885873     0.003555305310
       9       -0.000010158115     0.000023786361     0.000014200367
      10       -0.001524152430    -0.001096519002    -0.004636443341
      11        0.000024659849     0.000017307846     0.000001261128
      12        0.000015354721     0.000000478983    -0.000002618932
      13       -0.000011506188    -0.000014752942    -0.000012875049
      14       -0.000014958346     0.000014785672     0.000003236429

  **** Optimization is complete! (in 9 steps) ****
    Final optimized geometry and variables:
    Molecular point group: c1

    Geometry (in Angstrom), charge = 0, multiplicity = 1:

    O           -0.631423951043     1.271227684190     0.273461404234
    C           -0.712259827961     0.103089261039     0.447402740885
    C           -1.962872512580    -0.610935732352     0.877122436589
    O            0.297399362389    -0.737107988891     0.307755940031
    H           -2.244745286347    -1.333836709051     0.122205425356
    H           -2.756405223308     0.104261776191     1.020683677045
    H           -1.775387214394    -1.151541678499     1.795763874412
    C            1.537412544269    -0.276166401466    -0.218106174909
    C            1.444479348191     0.239783251763    -1.643083537146
    H            2.157711296704    -1.159388690981    -0.216789623792
    H            1.952863561146     0.467958613698     0.446114000473
    H            2.448091847225     0.423544280527    -2.010528012549
    H            0.985442966250    -0.504424388560    -2.284070448157
    H            0.881107238541     1.156608493198    -1.707747251431

  Mulliken Charges: (a.u.)
   Center  Symbol    Alpha    Beta     Spin     Total
       1     O     4.19960  4.19960  0.00000 -0.39919
       2     C     2.80070  2.80070  0.00000  0.39859
       3     C     3.13790  3.13790  0.00000 -0.27581
       4     O     4.15666  4.15666  0.00000 -0.31331
       5     H     0.44664  0.44664  0.00000  0.10672
       6     H     0.43840  0.43840  0.00000  0.12320
       7     H     0.44489  0.44489  0.00000  0.11021
       8     C     2.98223  2.98223  0.00000  0.03555
       9     C     3.15610  3.15610  0.00000 -0.31220
      10     H     0.44543  0.44543  0.00000  0.10914
      11     H     0.45238  0.45238  0.00000  0.09525
      12     H     0.45040  0.45040  0.00000  0.09920
      13     H     0.45373  0.45373  0.00000  0.09253
      14     H     0.43494  0.43494  0.00000  0.13011

   Total alpha = 24.00000, Total beta = 24.00000, Total charge = -0.00000

*** Psi4 exiting successfully. Buy a developer a beer!
