  ==> Input File <==

--------------------------------------------------------------------------
set {
	reference rhf
	basis 6-31G*
}

set_num_threads( 1 )
memory 2 gb

molecule MOL {
0 1

O	 -0.910023	 1.776904	 2.190022
C	 -0.676925	 1.942170	 1.031236
C	 0.570319	 1.352662	 0.396279
C	 -1.619244	 2.713055	 0.133936
C	 0.379448	 -0.143569	 0.099626
H	 1.388171	 1.481168	 1.096928
H	 0.821288	 1.883370	 -0.517717
C	 1.631333	 -0.777471	 -0.511575
H	 0.113078	 -0.640564	 1.025600
H	 -0.459195	 -0.277919	 -0.581824
C	 2.915987	 -0.544314	 0.291766
H	 1.766672	 -0.399098	 -1.523130
H	 1.471257	 -1.849544	 -0.605828
C	 3.373361	 0.914346	 0.347591
H	 3.708709	 -1.142521	 -0.150311
H	 2.780642	 -0.921148	 1.303579
H	 3.506512	 1.320010	 -0.651625
H	 4.322697	 0.999599	 0.867103
H	 2.660624	 1.545032	 0.868198
H	 -1.136880	 3.626751	 -0.203328
H	 -2.522867	 2.962012	 0.672704
H	 -1.865220	 2.135128	 -0.752236

	symmetry c1
}
set optking {
	frozen_dihedral = ("
		6 3 2 1,
		6 3 5 8,
		12 8 11 15
	")
}

ee = energy('scf')
oeprop('DIPOLE', 'QUADRUPOLE', 'MULLIKEN_CHARGES')
f=open( 'psi4out.xyz', 'w' )
f.write( "22  " )
f.write( str(ee) + "\n" )
f.write( MOL.save_string_xyz() )
f.close()
--------------------------------------------------------------------------

    Molecular point group: c1

    Geometry (in Angstrom), charge = 0, multiplicity = 1:

       Center              X                  Y                   Z               Mass
    ------------   -----------------  -----------------  -----------------  -----------------
           O         -1.620079727307     0.859234793472     1.687410008594    15.994914619560
           C         -1.386981727307     1.024500793472     0.528624008594    12.000000000000
           C         -0.139737727307     0.434992793472    -0.106332991406    12.000000000000
           C         -2.329300727307     1.795385793472    -0.368675991406    12.000000000000
           C         -0.330608727307    -1.061238206528    -0.402985991406    12.000000000000
           H          0.678114272693     0.563498793472     0.594316008594     1.007825032070
           H          0.111231272693     0.965700793472    -1.020328991406     1.007825032070
           C          0.921276272693    -1.695140206528    -1.014186991406    12.000000000000
           H         -0.596978727307    -1.558233206528     0.522988008594     1.007825032070
           H         -1.169251727307    -1.195588206528    -1.084435991406     1.007825032070
           C          2.205930272693    -1.461983206528    -0.210845991406    12.000000000000
           H          1.056615272693    -1.316767206528    -2.025741991406     1.007825032070
           H          0.761200272693    -2.767213206528    -1.108439991406     1.007825032070
           C          2.663304272693    -0.003323206528    -0.155020991406    12.000000000000
           H          2.998652272693    -2.060190206528    -0.652922991406     1.007825032070
           H          2.070585272693    -1.838817206528     0.800967008594     1.007825032070
           H          2.796455272693     0.402340793472    -1.154236991406     1.007825032070
           H          3.612640272693     0.081929793472     0.364491008594     1.007825032070
           H          1.950567272693     0.627362793472     0.365586008594     1.007825032070
           H         -1.846936727307     2.709081793472    -0.705939991406     1.007825032070
           H         -3.232923727307     2.044342793472     0.170092008594     1.007825032070
           H         -2.575276727307     1.217458793472    -1.254847991406     1.007825032070

  Charge       = 0
  Multiplicity = 1
  Basis Set: 6-31G*
  Basis Set:

    Orbital Energies (a.u.)
    -----------------------

    Doubly Occupied:

       1A    -20.545812     2A    -11.322215     3A    -11.230072
       4A    -11.226897     5A    -11.223652     6A    -11.222889
       7A    -11.221218     8A    -11.207755     9A     -1.391663
      10A     -1.102466    11A     -1.037706    12A     -0.996569
      13A     -0.954598    14A     -0.852483    15A     -0.787510
      16A     -0.738986    17A     -0.672346    18A     -0.654228
      19A     -0.625070    20A     -0.602459    21A     -0.595590
      22A     -0.590150    23A     -0.560581    24A     -0.557421
      25A     -0.537390    26A     -0.524107    27A     -0.495804
      28A     -0.482452    29A     -0.469638    30A     -0.466446
      31A     -0.441841    32A     -0.391943

  @DF-RHF Final Energy:  -348.06618509331696

   => Energetics <=

    Nuclear Repulsion Energy =            386.6454133698671853
    One-Electron Energy =               -1237.9630920249719566
    Two-Electron Energy =                 503.2514935617876972
    DFT Exchange-Correlation Energy =       0.0000000000000000
    Empirical Dispersion Energy =           0.0000000000000000
    PCM Polarization Energy =               0.0000000000000000
    EFP Energy =                            0.0000000000000000
    Total Energy =                       -348.0661850933171308

  Mulliken Charges: (a.u.)
   Center  Symbol    Alpha    Beta     Spin     Total
       1     O     4.26365  4.26365  0.00000 -0.52730
       2     C     2.73261  2.73261  0.00000  0.53477
       3     C     3.21084  3.21084  0.00000 -0.42167
       4     C     3.28961  3.28961  0.00000 -0.57923
       5     C     3.15910  3.15910  0.00000 -0.31821
       6     H     0.39708  0.39708  0.00000  0.20583
       7     H     0.41585  0.41585  0.00000  0.16829
       8     C     3.15457  3.15457  0.00000 -0.30915
       9     H     0.40597  0.40597  0.00000  0.18806
      10     H     0.41884  0.41884  0.00000  0.16232
      11     C     3.15799  3.15799  0.00000 -0.31599
      12     H     0.42336  0.42336  0.00000  0.15327
      13     H     0.41672  0.41672  0.00000  0.16655
      14     C     3.24102  3.24102  0.00000 -0.48204
      15     H     0.41721  0.41721  0.00000  0.16559
      16     H     0.41909  0.41909  0.00000  0.16182
      17     H     0.42231  0.42231  0.00000  0.15538
      18     H     0.41756  0.41756  0.00000  0.16488
      19     H     0.42142  0.42142  0.00000  0.15717
      20     H     0.40752  0.40752  0.00000  0.18496
      21     H     0.39753  0.39753  0.00000  0.20493
      22     H     0.41012  0.41012  0.00000  0.17975

   Total alpha = 32.00000, Total beta = 32.00000, Total charge = -0.00000
