  ==> Input File <==

--------------------------------------------------------------------------
set {
	reference rhf
	basis 6-31G*
}

set_num_threads( 4 )
memory 2 gb

molecule MOL {
0 1

H	 -2.646374	 -0.642757	 1.268656
C	 -2.083525	 -0.384536	 0.393091
O	 -0.807605	 -0.127164	 0.768327
F	 -2.118945	 -1.383102	 -0.486752
F	 -2.621877	 0.670592	 -0.209486
C	 0.084052	 0.273579	 -0.209957
C	 1.353033	 -0.546803	 -0.018071
Cl	 0.433844	 2.004619	 -0.074457
H	 -0.288836	 0.092657	 -1.202930
F	 2.373884	 0.240788	 0.245945
F	 1.613571	 -1.193314	 -1.136812
F	 1.234234	 -1.422804	 0.949649

	symmetry c1
}
set optking {
	frozen_dihedral = ("
		10 7 6 9
	")
}

ee = optimize('scf')
oeprop('DIPOLE', 'QUADRUPOLE', 'MULLIKEN_CHARGES')
f=open( 'psi4out.xyz', 'w' )
f.write( "12  " )
f.write( str(ee) + "\n" )
f.write( MOL.save_string_xyz() )
f.close()
--------------------------------------------------------------------------

    Molecular point group: c1
  Charge       = 0
  Multiplicity = 1
  Basis Set: 6-31G*
  Basis Set:
  @DF-RHF Final Energy: -1146.30253514051924
    Total Energy =                      -1146.3025351405194669
    Molecular point group: c1
  Basis Set: 6-31G*
  Basis Set:
  Basis Set: 6-31G*
  Basis Set:
  @DF-RHF Final Energy: -1146.30240701307594
    Total Energy =                      -1146.3024070130757082
  Basis Set: 6-31G*
  Basis Set:
  Basis Set: 6-31G*
  Basis Set:
  @DF-RHF Final Energy: -1146.30484971529540
    Total Energy =                      -1146.3048497152958589
  Basis Set: 6-31G*
  Basis Set:
  Basis Set: 6-31G*
  Basis Set:
  @DF-RHF Final Energy: -1146.30494950818274
    Total Energy =                      -1146.3049495081813802
  Basis Set: 6-31G*
  Basis Set:
  @DF-RHF Final Energy: -1146.30496396768103
    Total Energy =                      -1146.3049639676810330
  @DF-RHF Final Energy: -1146.30496739191312
    Total Energy =                      -1146.3049673919126690
  @DF-RHF Final Energy: -1146.30497249410837
    Total Energy =                      -1146.3049724941081422
  Basis Set: 6-31G*
  Basis Set:
  @DF-RHF Final Energy: -1146.30497838037309
    Total Energy =                      -1146.3049783803721766
  Basis Set: 6-31G*
  Basis Set:
  Basis Set: 6-31G*
  Basis Set:
  @DF-RHF Final Energy: -1146.30498175279990
    Total Energy =                      -1146.3049817528008134
  Basis Set: 6-31G*
  Basis Set:
  Basis Set: 6-31G*
  Basis Set:
  @DF-RHF Final Energy: -1146.30498297934446
    Total Energy =                      -1146.3049829793446861
  Basis Set: 6-31G*
  Basis Set:
  Charge       = 0
  Multiplicity = 1
  Basis Set: 6-31G*
  Basis Set:

    Orbital Energies (a.u.)
    -----------------------

    Doubly Occupied:

       1A   -104.843440     2A    -26.357972     3A    -26.357862
       4A    -26.356837     5A    -26.346368     6A    -26.346267
       7A    -20.647516     8A    -11.529572     9A    -11.489328
      10A    -11.401850    11A    -10.578010    12A     -8.047357
      13A     -8.043825    14A     -8.043728    15A     -1.761353
      16A     -1.717618    17A     -1.656832    18A     -1.654481
      19A     -1.638392    20A     -1.485170    21A     -1.176831
      22A     -1.046666    23A     -0.986872    24A     -0.919135
      25A     -0.856994    26A     -0.851843    27A     -0.844632
      28A     -0.825769    29A     -0.812841    30A     -0.791078
      31A     -0.725937    32A     -0.725354    33A     -0.703549
      34A     -0.702110    35A     -0.677507    36A     -0.673252
      37A     -0.657824    38A     -0.655946    39A     -0.646606
      40A     -0.629780    41A     -0.596741    42A     -0.577858
      43A     -0.522639    44A     -0.475345    45A     -0.467893

  @DF-RHF Final Energy: -1146.30498328510930

   => Energetics <=

    Nuclear Repulsion Energy =            735.5838095877965088
    One-Electron Energy =               -3054.0680281210843532
    Two-Electron Energy =                1172.1792352481782018
    DFT Exchange-Correlation Energy =       0.0000000000000000
    Empirical Dispersion Energy =           0.0000000000000000
    PCM Polarization Energy =               0.0000000000000000
    EFP Energy =                            0.0000000000000000
    Total Energy =                      -1146.3049832851095289
    Molecular point group: c1
  Basis Set: 6-31G*
  Basis Set:

  -Total Gradient:
     Atom            X                  Y                   Z
    ------   -----------------  -----------------  -----------------
       1        0.000001062464    -0.000002568518    -0.000000875907
       2       -0.000018512523    -0.000007783591    -0.000023526171
       3        0.000040249885     0.000001103977    -0.000008848042
       4       -0.000003873866     0.000013194398     0.000013674435
       5        0.000006088865    -0.000004308258     0.000003529357
       6       -0.000763424670    -0.001046015806     0.000170011816
       7       -0.000126394094     0.000042176548     0.001210856724
       8        0.000001869276     0.000018679335    -0.000001989639
       9        0.000662375704     0.000880455274    -0.000394612307
      10        0.000185630836     0.000087944759    -0.000970623437
      11        0.000008354720     0.000001365084     0.000009219060
      12        0.000006573406     0.000015756853    -0.000006815897

  **** Optimization is complete! (in 11 steps) ****
    Final optimized geometry and variables:
    Molecular point group: c1

    Geometry (in Angstrom), charge = 0, multiplicity = 1:

    H           -2.672582548564    -0.612464569138     1.260336464357
    C           -2.081473271469    -0.389652980584     0.393847832113
    O           -0.845153523401    -0.023013366335     0.803949967349
    F           -2.010888425379    -1.456267566875    -0.401398255277
    F           -2.651996563441     0.576742920278    -0.319186272032
    C            0.070643127696     0.333701115592    -0.168558521345
    C            1.340973021215    -0.547515372614    -0.022792721402
    CL           0.433842433328     2.062950157573    -0.040037967271
    H           -0.313936807308     0.176392366234    -1.159423005908
    F            2.428223139452     0.137027193209     0.237233508741
    F            1.535388448185    -1.179820852365    -1.168565275090
    F            1.193807633061    -1.451113199624     0.915502221177

  Mulliken Charges: (a.u.)
   Center  Symbol    Alpha    Beta     Spin     Total
       1     H     0.40086  0.40086  0.00000  0.19828
       2     C     2.56686  2.56686  0.00000  0.86628
       3     O     4.29193  4.29193  0.00000 -0.58385
       4     F     4.68750  4.68750  0.00000 -0.37500
       5     F     4.68515  4.68515  0.00000 -0.37029
       6     C     3.07390  3.07390  0.00000 -0.14779
       7     C     2.42365  2.42365  0.00000  1.15270
       8    CL     8.49430  8.49430  0.00000  0.01139
       9     H     0.36122  0.36122  0.00000  0.27756
      10     F     4.66657  4.66657  0.00000 -0.33314
      11     F     4.68031  4.68031  0.00000 -0.36062
      12     F     4.66776  4.66776  0.00000 -0.33551

   Total alpha = 45.00000, Total beta = 45.00000, Total charge =  0.00000
