  ==> Input File <==

--------------------------------------------------------------------------
set {
	reference rhf
	basis cc-pvtz
}

set_num_threads( 4 )
memory 2 gb

molecule MOL {
0 1

H	 3.083659	 -1.378387	 0.000000
O	 2.179005	 -1.633391	 0.000000
C	 1.366950	 -0.558201	 0.000000
C	 1.799664	 0.696663	 0.400944
C	 0.064024	 -0.737019	 -0.417648
H	 2.814977	 0.834173	 0.725997
C	 0.929992	 1.768259	 0.383422
H	 -0.273201	 -1.704933	 -0.727913
C	 -0.800907	 0.342357	 -0.432087
H	 1.275931	 2.734459	 0.695842
C	 -0.374985	 1.597798	 -0.032989
C	 -2.206901	 0.163080	 -0.879770
H	 -1.053542	 2.429203	 -0.047692
O	 -2.674096	 -0.862163	 -1.240360
H	 -2.813813	 1.073414	 -0.856351

	symmetry c1
}
set optking {
	frozen_dihedral = ("
		4 3 2 1
	")
}

ee = optimize('scf')
oeprop('DIPOLE', 'QUADRUPOLE', 'MULLIKEN_CHARGES')
f=open( 'psi4out.xyz', 'w' )
f.write( "15  " )
f.write( str(ee) + "\n" )
f.write( MOL.save_string_xyz() )
f.close()
--------------------------------------------------------------------------

    Molecular point group: c1
  Charge       = 0
  Multiplicity = 1
  Basis Set: CC-PVTZ
  Basis Set:
  @DF-RHF Final Energy:  -418.43837703932070
    Total Energy =                       -418.4383770393208124
    Molecular point group: c1
  Basis Set: CC-PVTZ
  Basis Set:
  Basis Set: CC-PVTZ
  Basis Set:
  @DF-RHF Final Energy:  -418.43840128732614
    Total Energy =                       -418.4384012873260872
  Basis Set: CC-PVTZ
  Basis Set:
  Basis Set: CC-PVTZ
  Basis Set:
  @DF-RHF Final Energy:  -418.43844326710160
    Total Energy =                       -418.4384432671017748
  Basis Set: CC-PVTZ
  Basis Set:
  Basis Set: CC-PVTZ
  Basis Set:
  @DF-RHF Final Energy:  -418.43842695863208
    Total Energy =                       -418.4384269586320215
  Basis Set: CC-PVTZ
  Basis Set:
  Charge       = 0
  Multiplicity = 1
  Basis Set: CC-PVTZ
  Basis Set:

    Orbital Energies (a.u.)
    -----------------------

    Doubly Occupied:

       1A    -20.594214     2A    -20.554386     3A    -11.327532
       4A    -11.310865     5A    -11.250946     6A    -11.250628
       7A    -11.247798     8A    -11.243948     9A    -11.237650
      10A     -1.425548    11A     -1.410158    12A     -1.174407
      13A     -1.052146    14A     -1.030933    15A     -0.902387
      16A     -0.850060    17A     -0.816037    18A     -0.740592
      19A     -0.705855    20A     -0.689949    21A     -0.644688
      22A     -0.640939    23A     -0.616500    24A     -0.610401
      25A     -0.573732    26A     -0.556542    27A     -0.545607
      28A     -0.515581    29A     -0.492709    30A     -0.426823
      31A     -0.358198    32A     -0.332408

  @DF-RHF Final Energy:  -418.43844804670630

   => Energetics <=

    Nuclear Repulsion Energy =            404.0384232796849346
    One-Electron Energy =               -1370.6934102200020789
    Two-Electron Energy =                 548.2165388936109593
    DFT Exchange-Correlation Energy =       0.0000000000000000
    Empirical Dispersion Energy =           0.0000000000000000
    PCM Polarization Energy =               0.0000000000000000
    EFP Energy =                            0.0000000000000000
    Total Energy =                       -418.4384480467061849
    Molecular point group: c1
  Basis Set: CC-PVTZ
  Basis Set:

  -Total Gradient:
     Atom            X                  Y                   Z
    ------   -----------------  -----------------  -----------------
       1        0.000033149910    -0.000000450463    -0.001520775831
       2       -0.000277241635    -0.000096004382     0.002462265675
       3        0.000722654929     0.000414427584    -0.001925289330
       4       -0.000312540954    -0.000396827660     0.001018685658
       5       -0.000174498668     0.000087776883    -0.000046059108
       6        0.000001497338     0.000017063737    -0.000007076081
       7       -0.000180742335     0.000051925506     0.000001731504
       8        0.000008074828    -0.000010368492     0.000008610193
       9        0.000041251254    -0.000178094664    -0.000032846322
      10        0.000013198693    -0.000004343189     0.000003877390
      11        0.000140139509     0.000122932996     0.000027983353
      12       -0.000005201684    -0.000001315509     0.000044372308
      13       -0.000004850575    -0.000005866941    -0.000003488891
      14       -0.000005109977    -0.000000433361    -0.000015706802
      15        0.000000219364    -0.000000422043    -0.000016283714

  **** Optimization is complete! (in 5 steps) ****
    Final optimized geometry and variables:
    Molecular point group: c1

    Geometry (in Angstrom), charge = 0, multiplicity = 1:

    H            3.048172873298    -1.408912657085     0.287836058700
    O            2.143120452703    -1.662489157418     0.267154724488
    C            1.333017256709    -0.583791250339     0.246929322239
    C            1.763825169868     0.669279497538     0.657321785971
    C            0.029314668608    -0.763454360046    -0.164675751029
    H            2.776889834903     0.802654321202     0.990566009290
    C            0.894754516946     1.740703584191     0.641243841882
    H           -0.307593942264    -1.730817740582    -0.477283087564
    C           -0.838719654476     0.314643168758    -0.170092426120
    H            1.239518202075     2.706205356820     0.957119359232
    C           -0.412057295816     1.569241004059     0.228563720654
    C           -2.246271163108     0.134813954232    -0.612481940510
    H           -1.091555901005     2.400059863771     0.218371817567
    O           -2.713284489756    -0.889627218885    -0.975275184333
    H           -2.854066974169     1.044624003111    -0.582892384940

  Mulliken Charges: (a.u.)
   Center  Symbol    Alpha    Beta     Spin     Total
       1     H     0.38661  0.38661  0.00000  0.22678
       2     O     4.17208  4.17208  0.00000 -0.34416
       3     C     2.84574  2.84574  0.00000  0.30851
       4     C     3.12360  3.12360  0.00000 -0.24720
       5     C     3.11862  3.11862  0.00000 -0.23724
       6     H     0.42908  0.42908  0.00000  0.14185
       7     C     3.06341  3.06341  0.00000 -0.12681
       8     H     0.40444  0.40444  0.00000  0.19112
       9     C     2.97117  2.97117  0.00000  0.05767
      10     H     0.41936  0.41936  0.00000  0.16128
      11     C     3.10829  3.10829  0.00000 -0.21658
      12     C     2.90901  2.90901  0.00000  0.18198
      13     H     0.42315  0.42315  0.00000  0.15369
      14     O     4.16894  4.16894  0.00000 -0.33788
      15     H     0.45651  0.45651  0.00000  0.08699

   Total alpha = 32.00000, Total beta = 32.00000, Total charge =  0.00000
