  ==> Input File <==

--------------------------------------------------------------------------
set {
	reference rhf
	basis 6-31G*
}

set_num_threads( 4 )
memory 2 gb

molecule MOL {
0 1

O	 3.454395	 -3.053254	 1.232796
C	 2.822948	 -2.092518	 0.930601
C	 1.350563	 -1.888374	 1.193654
O	 3.347903	 -1.046386	 0.304773
C	 0.703312	 -3.062650	 1.924583
H	 1.251805	 -0.960398	 1.747096
H	 0.872033	 -1.713634	 0.233356
C	 -0.811424	 -2.917341	 2.106114
H	 1.179309	 -3.189000	 2.892354
H	 0.908921	 -3.971294	 1.369143
C	 -1.244022	 -1.776050	 3.031006
H	 -1.193899	 -3.853182	 2.506910
H	 -1.282836	 -2.791500	 1.132490
C	 -2.755421	 -1.741515	 3.266547
H	 -0.733382	 -1.877640	 3.987429
H	 -0.931214	 -0.819839	 2.617745
C	 -3.199816	 -0.601867	 4.185158
H	 -3.074857	 -2.690948	 3.692896
H	 -3.267015	 -1.650736	 2.309609
C	 -4.710016	 -0.576752	 4.418321
H	 -2.688773	 -0.690483	 5.141518
H	 -2.885227	 0.348273	 3.758486
H	 -4.993843	 0.241564	 5.072850
H	 -5.051285	 -1.500566	 4.876905
H	 -5.249168	 -0.454424	 3.483107
C	 4.728119	 -1.109107	 -0.004993
H	 4.882018	 -1.033965	 -1.071845
H	 5.068212	 -2.067527	 0.355250
H	 5.265056	 -0.311663	 0.488280

	symmetry c1
}
set optking {
	frozen_dihedral = ("
		2 4 26 27
	")
}

ee = optimize('scf')
oeprop('DIPOLE', 'QUADRUPOLE', 'MULLIKEN_CHARGES')
f=open( 'psi4out.xyz', 'w' )
f.write( "29  " )
f.write( str(ee) + "\n" )
f.write( MOL.save_string_xyz() )
f.close()
--------------------------------------------------------------------------

    Molecular point group: c1
  Charge       = 0
  Multiplicity = 1
  Basis Set: 6-31G*
  Basis Set:
  @DF-RHF Final Energy:  -501.03981709025072
    Total Energy =                       -501.0398170902508355
    Molecular point group: c1
  Basis Set: 6-31G*
  Basis Set:
  Basis Set: 6-31G*
  Basis Set:
  @DF-RHF Final Energy:  -501.04078867503983
    Total Energy =                       -501.0407886750399484
  Basis Set: 6-31G*
  Basis Set:
  Basis Set: 6-31G*
  Basis Set:
  @DF-RHF Final Energy:  -501.04194208200215
    Total Energy =                       -501.0419420820027199
  Basis Set: 6-31G*
  Basis Set:
  Basis Set: 6-31G*
  Basis Set:
  @DF-RHF Final Energy:  -501.04195781547105
    Total Energy =                       -501.0419578154701412
  Basis Set: 6-31G*
  Basis Set:
  Basis Set: 6-31G*
  Basis Set:
  @DF-RHF Final Energy:  -501.04175681373829
    Total Energy =                       -501.0417568137382887
  Basis Set: 6-31G*
  Basis Set:
  Basis Set: 6-31G*
  Basis Set:
  @DF-RHF Final Energy:  -501.04197169366262
    Total Energy =                       -501.0419716936631858
  Basis Set: 6-31G*
  Basis Set:
  Basis Set: 6-31G*
  Basis Set:
  @DF-RHF Final Energy:  -501.04197052139330
    Total Energy =                       -501.0419705213939778
  Basis Set: 6-31G*
  Basis Set:
  Charge       = 0
  Multiplicity = 1
  Basis Set: 6-31G*
  Basis Set:

    Orbital Energies (a.u.)
    -----------------------

    Doubly Occupied:

       1A    -20.602226     2A    -20.544440     3A    -11.373536
       4A    -11.279094     5A    -11.234057     6A    -11.218526
       7A    -11.217275     8A    -11.215762     9A    -11.215645
      10A    -11.214248    11A    -11.208939    12A     -1.466075
      13A     -1.363018    14A     -1.097683    15A     -1.066489
      16A     -1.019561    17A     -0.977831    18A     -0.928415
      19A     -0.861244    20A     -0.798891    21A     -0.790152
      22A     -0.762782    23A     -0.701712    24A     -0.679940
      25A     -0.672046    26A     -0.650651    27A     -0.628766
      28A     -0.604971    29A     -0.594962    30A     -0.580430
      31A     -0.568396    32A     -0.550160    33A     -0.533839
      34A     -0.527020    35A     -0.514789    36A     -0.511576
      37A     -0.496155    38A     -0.477550    39A     -0.469847
      40A     -0.462101    41A     -0.458330    42A     -0.451862
      43A     -0.441082    44A     -0.435330

  @DF-RHF Final Energy:  -501.04197191024889

   => Energetics <=

    Nuclear Repulsion Energy =            609.6835697585069056
    One-Electron Energy =               -1890.5162749844896553
    Two-Electron Energy =                 779.7907333157339735
    DFT Exchange-Correlation Energy =       0.0000000000000000
    Empirical Dispersion Energy =           0.0000000000000000
    PCM Polarization Energy =               0.0000000000000000
    EFP Energy =                            0.0000000000000000
    Total Energy =                       -501.0419719102488898
    Molecular point group: c1
  Basis Set: 6-31G*
  Basis Set:

  -Total Gradient:
     Atom            X                  Y                   Z
    ------   -----------------  -----------------  -----------------
       1       -0.000009296368    -0.000014813720    -0.000005383135
       2       -0.000016131475     0.000025398279     0.000105457510
       3       -0.000005104390    -0.000013381964    -0.000000518487
       4       -0.000000511379    -0.000021248409    -0.000072489019
       5       -0.000010264349    -0.000003883990    -0.000011763732
       6       -0.000007354919     0.000001281355    -0.000002117094
       7       -0.000011590639     0.000001397562    -0.000001109325
       8        0.000001361351     0.000001435190     0.000002888449
       9        0.000001370013     0.000000799997     0.000000171551
      10       -0.000000478635     0.000005599631     0.000000883539
      11        0.000000344700    -0.000001371392     0.000000182397
      12        0.000002479001     0.000000252009     0.000000994540
      13       -0.000000087934    -0.000001437935    -0.000000129189
      14       -0.000000241310     0.000001161965     0.000000227967
      15       -0.000000964677    -0.000000891507     0.000000864520
      16        0.000005110946     0.000001425699    -0.000001754646
      17       -0.000000495440     0.000000453346    -0.000000889109
      18        0.000000826909     0.000000432283     0.000000988652
      19       -0.000000619231    -0.000001027122    -0.000000030955
      20       -0.000000186150     0.000000881589    -0.000000662144
      21       -0.000000410039    -0.000000654568    -0.000000063598
      22        0.000000471110     0.000000234783     0.000000506273
      23       -0.000000199773     0.000000229278    -0.000000163209
      24        0.000000239186     0.000000069018     0.000000102336
      25       -0.000000172485    -0.000000194976     0.000000019584
      26        0.000031433867    -0.000083193198    -0.000003171230
      27        0.000011640579     0.000073268019     0.000001460307
      28        0.000016769815     0.000020921137    -0.000014620868
      29       -0.000007938297     0.000006857638     0.000000118115

  **** Optimization is complete! (in 8 steps) ****
    Final optimized geometry and variables:
    Molecular point group: c1

    Geometry (in Angstrom), charge = 0, multiplicity = 1:

    O            3.068441776554    -1.294023329260    -0.788303584713
    C            2.452604909125    -0.324733783668    -1.094028894416
    C            0.980362782491    -0.108841769660    -0.836969168937
    O            2.977513750230     0.725418303793    -1.716029324803
    C            0.318501707049    -1.279553621669    -0.113641754184
    H            0.887483003658     0.817994357210    -0.280696413452
    H            0.508247832438     0.074022276716    -1.798878387481
    C           -1.195417157341    -1.119493486926     0.062397204405
    H            0.789186925305    -1.414838077630     0.855496595503
    H            0.516998708703    -2.187918239308    -0.672076598699
    C           -1.620119910719     0.022080065756     0.990618165215
    H           -1.589144055344    -2.053097584481     0.457502021614
    H           -1.661587387411    -0.984503237558    -0.912535742538
    C           -3.132067558361     0.071250930771     1.219994521117
    H           -1.114615962541    -0.089079838304     1.948703326406
    H           -1.295669884280     0.976820728755     0.582998309481
    C           -3.568605428658     1.211688528339     2.141381545663
    H           -3.463071178044    -0.876552429886     1.641110971299
    H           -3.638652882404     0.171168757401     0.261305425942
    C           -5.079516338963     1.251862989636     2.367771631318
    H           -3.062936280619     1.113670512905     3.099678599846
    H           -3.242015452878     2.160213645051     1.720168524838
    H           -5.357688562748     2.070511485915     3.024320555861
    H           -5.432634583318     0.329879892571     2.821035951082
    H           -5.613041625441     1.383635619527     1.430614978113
    C            4.355113365910     0.722539441230    -2.050971940587
    H            4.437617027850     0.819460383054    -3.124530119125
    H            4.829630920295    -0.185921260275    -1.720827505152
    H            4.813313284843     1.578744741591    -1.576116063183

  Mulliken Charges: (a.u.)
   Center  Symbol    Alpha    Beta     Spin     Total
       1     O     4.28536  4.28536  0.00000 -0.57071
       2     C     2.60445  2.60445  0.00000  0.79110
       3     C     3.21026  3.21026  0.00000 -0.42052
       4     O     4.30974  4.30974  0.00000 -0.61947
       5     C     3.15374  3.15374  0.00000 -0.30748
       6     H     0.39892  0.39892  0.00000  0.20217
       7     H     0.40137  0.40137  0.00000  0.19726
       8     C     3.15658  3.15658  0.00000 -0.31316
       9     H     0.41315  0.41315  0.00000  0.17370
      10     H     0.40887  0.40887  0.00000  0.18225
      11     C     3.15503  3.15503  0.00000 -0.31006
      12     H     0.41833  0.41833  0.00000  0.16334
      13     H     0.42394  0.42394  0.00000  0.15213
      14     C     3.15028  3.15028  0.00000 -0.30056
      15     H     0.42264  0.42264  0.00000  0.15471
      16     H     0.42361  0.42361  0.00000  0.15278
      17     C     3.15144  3.15144  0.00000 -0.30289
      18     H     0.42335  0.42335  0.00000  0.15331
      19     H     0.42400  0.42400  0.00000  0.15200
      20     C     3.23934  3.23934  0.00000 -0.47868
      21     H     0.42282  0.42282  0.00000  0.15437
      22     H     0.42345  0.42345  0.00000  0.15310
      23     H     0.41926  0.41926  0.00000  0.16148
      24     H     0.42156  0.42156  0.00000  0.15689
      25     H     0.42184  0.42184  0.00000  0.15632
      26     C     3.09878  3.09878  0.00000 -0.19756
      27     H     0.41244  0.41244  0.00000  0.17512
      28     H     0.39317  0.39317  0.00000  0.21366
      29     H     0.41229  0.41229  0.00000  0.17542

   Total alpha = 44.00000, Total beta = 44.00000, Total charge =  0.00000
