  ==> Input File <==

--------------------------------------------------------------------------
set {
	reference rhf
	basis 6-31G*
}

set_num_threads( 4 )
memory 2 gb

molecule MOL {
0 1

H	 -2.098997	 -0.674324	 -0.616650
O	 -2.035884	 -0.060112	 0.102722
C	 -0.955155	 0.788182	 -0.092531
C	 0.353668	 0.040312	 -0.004810
H	 -0.985057	 1.290372	 -1.054184
H	 -0.974469	 1.533190	 0.688632
F	 0.147935	 -1.270642	 -0.065200
F	 1.143525	 0.369822	 -1.014141
F	 1.002194	 0.287823	 1.114878

	symmetry c1
}
set optking {
	frozen_dihedral = ("
		7 4 3 5
	")
}

ee = optimize('scf')
oeprop('DIPOLE', 'QUADRUPOLE', 'MULLIKEN_CHARGES')
f=open( 'psi4out.xyz', 'w' )
f.write( "9  " )
f.write( str(ee) + "\n" )
f.write( MOL.save_string_xyz() )
f.close()
--------------------------------------------------------------------------

    Molecular point group: c1
  Charge       = 0
  Multiplicity = 1
  Basis Set: 6-31G*
  Basis Set:
  @DF-RHF Final Energy:  -450.65558663546727
    Total Energy =                       -450.6555866354674436
    Molecular point group: c1
  Basis Set: 6-31G*
  Basis Set:
  Basis Set: 6-31G*
  Basis Set:
  @DF-RHF Final Energy:  -450.65607975831313
    Total Energy =                       -450.6560797583131261
  Basis Set: 6-31G*
  Basis Set:
  Basis Set: 6-31G*
  Basis Set:
  @DF-RHF Final Energy:  -450.65665192906829
    Total Energy =                       -450.6566519290685164
  Basis Set: 6-31G*
  Basis Set:
  Basis Set: 6-31G*
  Basis Set:
  @DF-RHF Final Energy:  -450.65667784465069
    Total Energy =                       -450.6566778446511421
  Basis Set: 6-31G*
  Basis Set:
  Basis Set: 6-31G*
  Basis Set:
  @DF-RHF Final Energy:  -450.65668039405699
    Total Energy =                       -450.6566803940570480
  Basis Set: 6-31G*
  Basis Set:
  Charge       = 0
  Multiplicity = 1
  Basis Set: 6-31G*
  Basis Set:

    Orbital Energies (a.u.)
    -----------------------

    Doubly Occupied:

       1A    -26.344640     2A    -26.342555     3A    -26.338423
       4A    -20.589793     5A    -11.502300     6A    -11.309545
       7A     -1.740882     8A     -1.639844     9A     -1.635482
      10A     -1.401970    11A     -1.043651    12A     -0.924357
      13A     -0.829431    14A     -0.828455    15A     -0.809377
      16A     -0.722986    17A     -0.711653    18A     -0.699750
      19A     -0.663892    20A     -0.659642    21A     -0.641950
      22A     -0.627180    23A     -0.613313    24A     -0.526573
      25A     -0.479635

  @DF-RHF Final Energy:  -450.65668062409503

   => Energetics <=

    Nuclear Repulsion Energy =            276.1290845618629533
    One-Electron Energy =               -1174.3169735307010342
    Two-Electron Energy =                 447.5312083447432769
    DFT Exchange-Correlation Energy =       0.0000000000000000
    Empirical Dispersion Energy =           0.0000000000000000
    PCM Polarization Energy =               0.0000000000000000
    EFP Energy =                            0.0000000000000000
    Total Energy =                       -450.6566806240947471
    Molecular point group: c1
  Basis Set: 6-31G*
  Basis Set:

  -Total Gradient:
     Atom            X                  Y                   Z
    ------   -----------------  -----------------  -----------------
       1       -0.000016483256    -0.000002701749     0.000002104573
       2        0.000020300830    -0.000018342995    -0.000017573324
       3       -0.002457466902    -0.004463188076    -0.001111633552
       4        0.000861552482     0.000956668525    -0.004567299343
       5        0.001931711624     0.003603264121     0.001918875983
       6        0.000009030721     0.000005443348    -0.000002122743
       7       -0.000380144290    -0.000101570489     0.003786737813
       8        0.000023558160     0.000019850751    -0.000048676698
       9        0.000007940638     0.000000576561     0.000039587287

  **** Optimization is complete! (in 6 steps) ****
    Final optimized geometry and variables:
    Molecular point group: c1

    Geometry (in Angstrom), charge = 0, multiplicity = 1:

    H           -2.112560907016    -0.702959133022    -0.551322033395
    O           -2.072288289238    -0.018950309838     0.103144345880
    C           -0.968210389555     0.789362873081    -0.109883329103
    C            0.358178880036     0.031767750118    -0.015264208751
    H           -0.989666235412     1.311101111116    -1.060892970659
    H           -0.970534533486     1.537025885134     0.668878696832
    F            0.182735798715    -1.276224141160    -0.100152296213
    F            1.183404462467     0.392796544251    -0.985983627520
    F            0.979903404111     0.266933009286     1.128387021524

  Mulliken Charges: (a.u.)
   Center  Symbol    Alpha    Beta     Spin     Total
       1     H     0.27297  0.27297  0.00000  0.45407
       2     O     4.35879  4.35879  0.00000 -0.71758
       3     C     3.07042  3.07042  0.00000 -0.14083
       4     C     2.45407  2.45407  0.00000  1.09185
       5     H     0.40631  0.40631  0.00000  0.18739
       6     H     0.39163  0.39163  0.00000  0.21674
       7     F     4.68166  4.68166  0.00000 -0.36332
       8     F     4.68339  4.68339  0.00000 -0.36679
       9     F     4.68076  4.68076  0.00000 -0.36152

   Total alpha = 25.00000, Total beta = 25.00000, Total charge = -0.00000
