  ==> Input File <==

--------------------------------------------------------------------------
set {
	reference rhf
	basis cc-pvtz
}

set_num_threads( 4 )
memory 2 gb

molecule MOL {
0 1

H	 -2.942907	 0.783303	 -1.189687
C	 -2.171164	 0.067630	 -1.463751
O	 -1.401606	 -0.295183	 -0.366624
H	 -2.644752	 -0.825151	 -1.845254
H	 -1.561841	 0.504426	 -2.252940
C	 -0.718530	 0.758693	 0.228682
C	 0.718529	 0.758687	 -0.228709
H	 -1.176498	 1.708665	 -0.046615
H	 -0.748705	 0.673525	 1.312779
O	 1.401606	 -0.295166	 0.366636
H	 0.748705	 0.673477	 -1.312803
H	 1.176496	 1.708671	 0.046552
C	 2.714315	 -0.441627	 -0.061017
H	 2.765292	 -0.641548	 -1.128869
H	 3.305661	 0.447341	 0.150952
H	 3.143725	 -1.278506	 0.470147

	symmetry c1
}
set optking {
	frozen_dihedral = ("
		2 3 6 7
	")
}

ee = optimize('scf')
oeprop('DIPOLE', 'QUADRUPOLE', 'MULLIKEN_CHARGES')
f=open( 'psi4out.xyz', 'w' )
f.write( "16  " )
f.write( str(ee) + "\n" )
f.write( MOL.save_string_xyz() )
f.close()
--------------------------------------------------------------------------

    Molecular point group: c1
  Charge       = 0
  Multiplicity = 1
  Basis Set: CC-PVTZ
  Basis Set:
  @DF-RHF Final Energy:  -307.09330424555236
    Total Energy =                       -307.0933042455524173
    Molecular point group: c1
  Basis Set: CC-PVTZ
  Basis Set:
  Basis Set: CC-PVTZ
  Basis Set:
  @DF-RHF Final Energy:  -307.09416089668264
    Total Energy =                       -307.0941608966826379
  Basis Set: CC-PVTZ
  Basis Set:
  Basis Set: CC-PVTZ
  Basis Set:
  @DF-RHF Final Energy:  -307.09430672009626
    Total Energy =                       -307.0943067200964265
  Basis Set: CC-PVTZ
  Basis Set:
  Basis Set: CC-PVTZ
  Basis Set:
  @DF-RHF Final Energy:  -307.09430902723568
    Total Energy =                       -307.0943090272353402
  Basis Set: CC-PVTZ
  Basis Set:
  Charge       = 0
  Multiplicity = 1
  Basis Set: CC-PVTZ
  Basis Set:

    Orbital Energies (a.u.)
    -----------------------

    Doubly Occupied:

       1A    -20.548824     2A    -20.545999     3A    -11.268178
       4A    -11.267063     5A    -11.263525     6A    -11.262668
       7A     -1.390828     8A     -1.373316     9A     -1.029729
      10A     -0.941860    11A     -0.897122    12A     -0.820643
      13A     -0.688591    14A     -0.679857    15A     -0.660720
      16A     -0.640113    17A     -0.625512    18A     -0.605459
      19A     -0.556730    20A     -0.526097    21A     -0.515170
      22A     -0.485437    23A     -0.468998    24A     -0.419250
      25A     -0.410975

  @DF-RHF Final Energy:  -307.09430926584849

   => Energetics <=

    Nuclear Repulsion Energy =            259.9899442051769825
    One-Electron Energy =                -934.3831769319492651
    Two-Electron Energy =                 367.2989234609239020
    DFT Exchange-Correlation Energy =       0.0000000000000000
    Empirical Dispersion Energy =           0.0000000000000000
    PCM Polarization Energy =               0.0000000000000000
    EFP Energy =                            0.0000000000000000
    Total Energy =                       -307.0943092658484375
    Molecular point group: c1
  Basis Set: CC-PVTZ
  Basis Set:

  -Total Gradient:
     Atom            X                  Y                   Z
    ------   -----------------  -----------------  -----------------
       1       -0.000001727110     0.000000368211    -0.000003328203
       2       -0.000895830554     0.000258571760     0.000711943497
       3        0.001385571174    -0.000636077038    -0.000672124919
       4        0.000004849389     0.000002148116     0.000004520458
       5        0.000000555211     0.000000618917    -0.000001966583
       6       -0.000739542452     0.000980854195    -0.000850298004
       7        0.000205806229    -0.000568999452     0.000786963391
       8        0.000000787409    -0.000005156509    -0.000005186480
       9        0.000005081939    -0.000004905677     0.000001688426
      10        0.000006979736    -0.000004806019     0.000008742656
      11        0.000006216731    -0.000004798798     0.000010098041
      12        0.000015695370    -0.000013377645     0.000004198992
      13        0.000004355893    -0.000003434599     0.000002457209
      14       -0.000005247423     0.000001502178     0.000002504751
      15        0.000000772143    -0.000001040459    -0.000000935113
      16        0.000005676320    -0.000001467183     0.000000721880

  **** Optimization is complete! (in 5 steps) ****
    Final optimized geometry and variables:
    Molecular point group: c1

    Geometry (in Angstrom), charge = 0, multiplicity = 1:

    H           -3.067126639888     0.687202080135    -0.932158506341
    C           -2.302903844316    -0.043298378489    -1.187714096941
    O           -1.521826299657    -0.368685818958    -0.085405093795
    H           -2.787351504016    -0.948436010549    -1.524136015695
    H           -1.709116182538     0.353725125060    -2.008270951434
    C           -0.797336035585     0.682468404904     0.476531463417
    C            0.653364542509     0.687657013884     0.045503161905
    H           -1.246020604016     1.640065031295     0.223502568550
    H           -0.836437611086     0.569397800970     1.552635492758
    O            1.308313824219    -0.399478965839     0.609365991694
    H            0.720020914361     0.651611563004    -1.041206849267
    H            1.115952973685     1.619765119250     0.372760314750
    C            2.633186995235    -0.539135486052     0.218946298205
    H            2.718509734773    -0.687837965955    -0.855292211167
    H            3.225043796313     0.332222705662     0.493099987969
    H            3.036742058075    -1.405291262706     0.722601854321

  Mulliken Charges: (a.u.)
   Center  Symbol    Alpha    Beta     Spin     Total
       1     H     0.47004  0.47004  0.00000  0.05991
       2     C     3.03084  3.03084  0.00000 -0.06167
       3     O     4.17536  4.17536  0.00000 -0.35071
       4     H     0.44741  0.44741  0.00000  0.10518
       5     H     0.47434  0.47434  0.00000  0.05132
       6     C     2.97368  2.97368  0.00000  0.05265
       7     C     2.96166  2.96166  0.00000  0.07667
       8     H     0.47285  0.47285  0.00000  0.05430
       9     H     0.45183  0.45183  0.00000  0.09635
      10     O     4.16792  4.16792  0.00000 -0.33585
      11     H     0.47676  0.47676  0.00000  0.04649
      12     H     0.47519  0.47519  0.00000  0.04962
      13     C     3.03147  3.03147  0.00000 -0.06294
      14     H     0.47150  0.47150  0.00000  0.05700
      15     H     0.47320  0.47320  0.00000  0.05360
      16     H     0.44597  0.44597  0.00000  0.10807

   Total alpha = 25.00000, Total beta = 25.00000, Total charge = -0.00000
