                              Psi4 1.0.54 Driver

  ==> Input File <==

--------------------------------------------------------------------------
set {
	reference rhf
	basis cc-pvtz
}

set_num_threads( 4 )
memory 2 gb

molecule MOL {
0 1

H	 -0.385154	 2.517267	 0.205262
C	 0.388763	 1.946466	 0.735255
C	 0.692262	 0.592428	 0.156232
O	 0.912925	 2.406185	 1.690005
C	 -0.554654	 -0.292621	 0.086567
H	 1.470014	 0.131616	 0.750866
H	 1.081213	 0.747642	 -0.848011
C	 -1.846385	 0.513195	 -0.016346
H	 -0.473986	 -0.956115	 -0.769708
H	 -0.597929	 -0.929215	 0.966651
C	 -3.089953	 -0.365049	 -0.098564
H	 -1.798267	 1.154820	 -0.891143
H	 -1.925398	 1.173265	 0.842889
H	 -3.055079	 -1.012299	 -0.968245
H	 -3.988403	 0.236438	 -0.170014
H	 -3.183055	 -0.995885	 0.779079

	symmetry c1
}
set optking {
	frozen_dihedral = ("
		6 3 5 9
	")
}

ee,wfn = optimize('scf', return_wfn=True)
oeprop( wfn, 'DIPOLE', 'QUADRUPOLE', 'MULLIKEN_CHARGES')
f=open( 'psi4out.xyz', 'w' )
f.write( "16  " )
f.write( str(ee) + "\n" )
f.write( MOL.save_string_xyz() )
f.close()
--------------------------------------------------------------------------

    Molecular point group: c1
  Charge       = 0
  Multiplicity = 1
  Basis Set: CC-PVTZ
  Basis Set:
  @DF-RHF Final Energy:  -270.10978731564364
    Total Energy =                       -270.1097873156436435
    Molecular point group: c1
  Basis Set: CC-PVTZ
  Basis Set:
  Basis Set: CC-PVTZ
  Basis Set:
  @DF-RHF Final Energy:  -270.11002971463296
    Total Energy =                       -270.1100297146326739
  Basis Set: CC-PVTZ
  Basis Set:
  Basis Set: CC-PVTZ
  Basis Set:
  @DF-RHF Final Energy:  -270.11236111041694
    Total Energy =                       -270.1123611104169981
  Basis Set: CC-PVTZ
  Basis Set:
  Basis Set: CC-PVTZ
  Basis Set:
  @DF-RHF Final Energy:  -270.11056292315982
    Total Energy =                       -270.1105629231597618
  Basis Set: CC-PVTZ
  Basis Set:
  @DF-RHF Final Energy:  -270.11270621230022
    Total Energy =                       -270.1127062123002815
  @DF-RHF Final Energy:  -270.11302928616317
    Total Energy =                       -270.1130292861632824
  Basis Set: CC-PVTZ
  Basis Set:
  @DF-RHF Final Energy:  -270.11305379267230
    Total Energy =                       -270.1130537926722468
  Basis Set: CC-PVTZ
  Basis Set:
  Basis Set: CC-PVTZ
  Basis Set:
  @DF-RHF Final Energy:  -270.11306489833657
    Total Energy =                       -270.1130648983368019
  Basis Set: CC-PVTZ
  Basis Set:
  Basis Set: CC-PVTZ
  Basis Set:
  @DF-RHF Final Energy:  -270.11307729401028
    Total Energy =                       -270.1130772940102247
  Basis Set: CC-PVTZ
  Basis Set:
  Charge       = 0
  Multiplicity = 1
  Basis Set: CC-PVTZ
  Basis Set:

    Orbital Energies (a.u.)
    -----------------------

    Doubly Occupied:

       1A    -20.550867     2A    -11.319860     3A    -11.234368
       4A    -11.233543     5A    -11.228330     6A    -11.216869
       7A     -1.405554     8A     -1.094970     9A     -1.016691
      10A     -0.905762    11A     -0.833873    12A     -0.771538
      13A     -0.683615    14A     -0.648262    15A     -0.625625
      16A     -0.604045    17A     -0.581805    18A     -0.561670
      19A     -0.527246    20A     -0.516166    21A     -0.492638
      22A     -0.477818    23A     -0.471549    24A     -0.409327

  @DF-RHF Final Energy:  -270.11307797305267

   => Energetics <=

    Nuclear Repulsion Energy =            234.3908800714971505
    One-Electron Energy =                -830.1839315199270004
    Two-Electron Energy =                 325.6799734753771531
    DFT Exchange-Correlation Energy =       0.0000000000000000
    Empirical Dispersion Energy =           0.0000000000000000
    PCM Polarization Energy =               0.0000000000000000
    EFP Energy =                            0.0000000000000000
    Total Energy =                       -270.1130779730527252
    Molecular point group: c1
  Basis Set: CC-PVTZ
  Basis Set:

  -Total Gradient:
     Atom            X                  Y                   Z
    ------   -----------------  -----------------  -----------------
       1       -0.000023798141     0.000003078228    -0.000033601635
       2        0.000070737794     0.000032180178     0.000154549975
       3        0.001362525821    -0.002239615961    -0.005849738907
       4       -0.000040378740    -0.000013319877    -0.000084999534
       5        0.002372237310    -0.003673364573     0.004353119136
       6       -0.001506534366     0.002376236144     0.004212480613
       7       -0.000004482589     0.000012774896     0.000001487504
       8       -0.000019676268     0.000009541300     0.000028680133
       9       -0.002224561141     0.003482811043    -0.002775506930
      10       -0.000000447420     0.000010556741     0.000001272146
      11        0.000011602386     0.000001834274    -0.000011466290
      12        0.000003543041    -0.000010412538     0.000002948985
      13       -0.000001477332     0.000008458581     0.000000314717
      14       -0.000003381151    -0.000005630331     0.000000680349
      15        0.000002621253     0.000002538469    -0.000002270377
      16        0.000001469549     0.000002333427     0.000002050116

  **** Optimization is complete! (in 10 steps) ****
    Final optimized geometry and variables:
    Molecular point group: c1

    Geometry (in Angstrom), charge = 0, multiplicity = 1:

    H            0.587504164215     1.905029844985    -0.290427221391
    C            1.135125833987     1.151470330028     0.285731758641
    C            1.274284174959    -0.205450216933    -0.358423617332
    O            1.582715730529     1.431771693865     1.344499987543
    C           -0.030233645792    -1.034502349839    -0.357240665759
    H            2.039768147408    -0.720306528722     0.205738702276
    H            1.617655529744    -0.051571020275    -1.376437291366
    C           -1.329563889441    -0.230040796682    -0.447325118729
    H           -0.006543338982    -1.698087558715    -1.214547833289
    H           -0.058018318934    -1.649322167301     0.534174913509
    C           -2.557530764924    -1.130999877104    -0.522284763494
    H           -1.304469484670     0.412796201161    -1.323306282899
    H           -1.424728564302     0.424547206165     0.413442323802
    H           -2.520222100380    -1.772451720540    -1.396269011947
    H           -3.467977727656    -0.546341299179    -0.579044287107
    H           -2.627290735979    -1.768327781573     0.352597178334

  Mulliken Charges: (a.u.)
   Center  Symbol    Alpha    Beta     Spin     Total
       1     H     0.46042  0.46042  0.00000  0.07916
       2     C     2.90642  2.90642  0.00000  0.18715
       3     C     3.08920  3.08920  0.00000 -0.17841
       4     O     4.16681  4.16681  0.00000 -0.33362
       5     C     3.09424  3.09424  0.00000 -0.18849
       6     H     0.44026  0.44026  0.00000  0.11947
       7     H     0.44851  0.44851  0.00000  0.10298
       8     C     3.09914  3.09914  0.00000 -0.19828
       9     H     0.44994  0.44994  0.00000  0.10012
      10     H     0.44487  0.44487  0.00000  0.11026
      11     C     3.14929  3.14929  0.00000 -0.29858
      12     H     0.45077  0.45077  0.00000  0.09847
      13     H     0.44673  0.44673  0.00000  0.10653
      14     H     0.45424  0.45424  0.00000  0.09151
      15     H     0.44637  0.44637  0.00000  0.10725
      16     H     0.45277  0.45277  0.00000  0.09447

   Total alpha = 24.00000, Total beta = 24.00000, Total charge =  0.00000

*** Psi4 exiting successfully. Buy a developer a beer!
