  ==> Input File <==

--------------------------------------------------------------------------
set {
	reference rhf
	basis 6-31G*
}

set_num_threads( 1 )
memory 2 gb

molecule MOL {
0 1

H	 -3.261111	 -0.295142	 1.469456
C	 -3.306842	 -0.277400	 0.373456
C	 -2.660244	 0.921717	 -0.272021
O	 -3.838538	 -1.161155	 -0.216482
C	 -1.220012	 1.144545	 0.209990
H	 -2.705793	 0.797307	 -1.347733
H	 -3.263782	 1.790044	 -0.010477
C	 -0.252658	 0.041456	 -0.226725
H	 -0.873521	 2.100229	 -0.171974
H	 -1.211708	 1.231594	 1.295398
C	 1.180775	 0.282413	 0.250794
H	 -0.266029	 -0.034465	 -1.312038
H	 -0.597733	 -0.921000	 0.146291
C	 2.148627	 -0.814315	 -0.201312
H	 1.516199	 1.249228	 -0.115937
H	 1.192670	 0.346017	 1.338083
C	 3.580890	 -0.659131	 0.322722
H	 2.166869	 -0.852443	 -1.289387
H	 1.762857	 -1.776509	 0.128956
C	 4.653043	 -0.597235	 -0.766442
H	 3.799054	 -1.498535	 0.978278
H	 3.643026	 0.233076	 0.942421
H	 4.604069	 -1.470076	 -1.412211
H	 4.547228	 0.283169	 -1.391475
H	 5.645916	 -0.566835	 -0.327951

	symmetry c1
}
set optking {
	frozen_dihedral = ("
		6 3 5 8,
		6 3 2 4,
		3 5 8 12,
		12 8 11 14,
		8 11 14 18
	")
}

ee = energy('scf')
oeprop('DIPOLE', 'QUADRUPOLE', 'MULLIKEN_CHARGES')
f=open( 'psi4out.xyz', 'w' )
f.write( "25  " )
f.write( str(ee) + "\n" )
f.write( MOL.save_string_xyz() )
f.close()
--------------------------------------------------------------------------

    Molecular point group: c1

    Geometry (in Angstrom), charge = 0, multiplicity = 1:

       Center              X                  Y                   Z               Mass
    ------------   -----------------  -----------------  -----------------  -----------------
           H         -3.299471373448    -0.158961209688     1.533972180619     1.007825032070
           C         -3.345202373448    -0.141219209688     0.437972180619    12.000000000000
           C         -2.698604373448     1.057897790312    -0.207504819381    12.000000000000
           O         -3.876898373448    -1.024974209688    -0.151965819381    15.994914619560
           C         -1.258372373448     1.280725790312     0.274506180619    12.000000000000
           H         -2.744153373448     0.933487790312    -1.283216819381     1.007825032070
           H         -3.302142373448     1.926224790312     0.054039180619     1.007825032070
           C         -0.291018373448     0.177636790312    -0.162208819381    12.000000000000
           H         -0.911881373448     2.236409790312    -0.107457819381     1.007825032070
           H         -1.250068373448     1.367774790312     1.359914180619     1.007825032070
           C          1.142414626552     0.418593790312     0.315310180619    12.000000000000
           H         -0.304389373448     0.101715790312    -1.247521819381     1.007825032070
           H         -0.636093373448    -0.784819209688     0.210807180619     1.007825032070
           C          2.110266626552    -0.678134209688    -0.136795819381    12.000000000000
           H          1.477838626552     1.385408790312    -0.051420819381     1.007825032070
           H          1.154309626552     0.482197790312     1.402599180619     1.007825032070
           C          3.542529626552    -0.522950209688     0.387238180619    12.000000000000
           H          2.128508626552    -0.716262209688    -1.224870819381     1.007825032070
           H          1.724496626552    -1.640328209688     0.193472180619     1.007825032070
           C          4.614682626552    -0.461054209688    -0.701925819381    12.000000000000
           H          3.760693626552    -1.362354209688     1.042794180619     1.007825032070
           H          3.604665626552     0.369256790312     1.006937180619     1.007825032070
           H          4.565708626552    -1.333895209688    -1.347694819381     1.007825032070
           H          4.508867626552     0.419349790312    -1.326958819381     1.007825032070
           H          5.607555626552    -0.430654209688    -0.263434819381     1.007825032070

  Charge       = 0
  Multiplicity = 1
  Basis Set: 6-31G*
  Basis Set:

    Orbital Energies (a.u.)
    -----------------------

    Doubly Occupied:

       1A    -20.561989     2A    -11.326134     3A    -11.235335
       4A    -11.234623     5A    -11.223644     6A    -11.220820
       7A    -11.216377     8A    -11.215443     9A    -11.210792
      10A     -1.401972    11A     -1.103697    12A     -1.068995
      13A     -1.014791    14A     -0.943321    15A     -0.870242
      16A     -0.816508    17A     -0.791770    18A     -0.786610
      19A     -0.664431    20A     -0.662018    21A     -0.634871
      22A     -0.618295    23A     -0.607833    24A     -0.591382
      25A     -0.571766    26A     -0.554311    27A     -0.532994
      28A     -0.521855    29A     -0.511896    30A     -0.498862
      31A     -0.484750    32A     -0.481229    33A     -0.465776
      34A     -0.456721    35A     -0.439944    36A     -0.409531

  @DF-RHF Final Energy:  -387.11752661708283

   => Energetics <=

    Nuclear Repulsion Energy =            435.9890793408516174
    One-Electron Energy =               -1388.3101376363172221
    Two-Electron Energy =                 565.2035316783839107
    DFT Exchange-Correlation Energy =       0.0000000000000000
    Empirical Dispersion Energy =           0.0000000000000000
    PCM Polarization Energy =               0.0000000000000000
    EFP Energy =                            0.0000000000000000
    Total Energy =                       -387.1175266170816940

  Mulliken Charges: (a.u.)
   Center  Symbol    Alpha    Beta     Spin     Total
       1     H     0.43261  0.43261  0.00000  0.13478
       2     C     2.83084  2.83084  0.00000  0.33832
       3     C     3.20805  3.20805  0.00000 -0.41610
       4     O     4.23776  4.23776  0.00000 -0.47552
       5     C     3.16660  3.16660  0.00000 -0.33320
       6     H     0.39969  0.39969  0.00000  0.20061
       7     H     0.40671  0.40671  0.00000  0.18658
       8     C     3.15585  3.15585  0.00000 -0.31169
       9     H     0.41288  0.41288  0.00000  0.17424
      10     H     0.41963  0.41963  0.00000  0.16074
      11     C     3.15444  3.15444  0.00000 -0.30888
      12     H     0.41787  0.41787  0.00000  0.16426
      13     H     0.41830  0.41830  0.00000  0.16341
      14     C     3.15515  3.15515  0.00000 -0.31029
      15     H     0.42238  0.42238  0.00000  0.15525
      16     H     0.42286  0.42286  0.00000  0.15428
      17     C     3.15505  3.15505  0.00000 -0.31010
      18     H     0.41992  0.41992  0.00000  0.16015
      19     H     0.41993  0.41993  0.00000  0.16014
      20     C     3.24018  3.24018  0.00000 -0.48036
      21     H     0.42003  0.42003  0.00000  0.15994
      22     H     0.42063  0.42063  0.00000  0.15873
      23     H     0.42091  0.42091  0.00000  0.15817
      24     H     0.42163  0.42163  0.00000  0.15674
      25     H     0.42010  0.42010  0.00000  0.15980

   Total alpha = 36.00000, Total beta = 36.00000, Total charge =  0.00000
