  ==> Input File <==

--------------------------------------------------------------------------
set {
	reference rhf
	basis 6-31G*
}

set_num_threads( 4 )
memory 2 gb

molecule MOL {
0 1

H	 -2.828800	 0.447062	 0.215832
O	 -2.035884	 -0.060112	 0.102722
C	 -0.955155	 0.788182	 -0.092531
C	 0.353668	 0.040312	 -0.004810
H	 -0.985057	 1.290372	 -1.054184
H	 -0.974469	 1.533190	 0.688632
F	 0.394464	 -0.937475	 -0.903053
F	 1.368604	 0.853376	 -0.249821
F	 0.546173	 -0.502608	 1.179981

	symmetry c1
}
set optking {
	frozen_dihedral = ("
		1 2 3 5
	")
}

ee = optimize('scf')
oeprop('DIPOLE', 'QUADRUPOLE', 'MULLIKEN_CHARGES')
f=open( 'psi4out.xyz', 'w' )
f.write( "9  " )
f.write( str(ee) + "\n" )
f.write( MOL.save_string_xyz() )
f.close()
--------------------------------------------------------------------------

    Molecular point group: c1
  Charge       = 0
  Multiplicity = 1
  Basis Set: 6-31G*
  Basis Set:
  @DF-RHF Final Energy:  -450.65788645242787
    Total Energy =                       -450.6578864524279879
    Molecular point group: c1
  Basis Set: 6-31G*
  Basis Set:
  Basis Set: 6-31G*
  Basis Set:
  @DF-RHF Final Energy:  -450.65935256406891
    Total Energy =                       -450.6593525640687972
  Basis Set: 6-31G*
  Basis Set:
  Basis Set: 6-31G*
  Basis Set:
  @DF-RHF Final Energy:  -450.65966064559728
    Total Energy =                       -450.6596606455970004
  Basis Set: 6-31G*
  Basis Set:
  Basis Set: 6-31G*
  Basis Set:
  @DF-RHF Final Energy:  -450.65967203627048
    Total Energy =                       -450.6596720362705355
  Basis Set: 6-31G*
  Basis Set:
  Charge       = 0
  Multiplicity = 1
  Basis Set: 6-31G*
  Basis Set:

    Orbital Energies (a.u.)
    -----------------------

    Doubly Occupied:

       1A    -26.336613     2A    -26.332659     3A    -26.332520
       4A    -20.589293     5A    -11.496714     6A    -11.309798
       7A     -1.733363     8A     -1.631152     9A     -1.629427
      10A     -1.401491    11A     -1.047956    12A     -0.916379
      13A     -0.825182    14A     -0.823017    15A     -0.782184
      16A     -0.732549    17A     -0.706699    18A     -0.695838
      19A     -0.666654    20A     -0.649045    21A     -0.637099
      22A     -0.634139    23A     -0.594727    24A     -0.527795
      25A     -0.479152

  @DF-RHF Final Energy:  -450.65967437076472

   => Energetics <=

    Nuclear Repulsion Energy =            277.1464671253198730
    One-Electron Energy =               -1176.5893954654138724
    Two-Electron Energy =                 448.7832539693292802
    DFT Exchange-Correlation Energy =       0.0000000000000000
    Empirical Dispersion Energy =           0.0000000000000000
    PCM Polarization Energy =               0.0000000000000000
    EFP Energy =                            0.0000000000000000
    Total Energy =                       -450.6596743707647192
    Molecular point group: c1
  Basis Set: 6-31G*
  Basis Set:

  -Total Gradient:
     Atom            X                  Y                   Z
    ------   -----------------  -----------------  -----------------
       1        0.000043177430     0.000021936260     0.000231424206
       2        0.000071501257     0.000020902949    -0.000364295638
       3       -0.000198142557     0.000160214619     0.000236505217
       4        0.000081301263     0.000140035459     0.000113042836
       5        0.000078941426    -0.000199636491    -0.000078526181
       6       -0.000032140824    -0.000007857099    -0.000004304146
       7        0.000030331881    -0.000034116747    -0.000044193313
       8       -0.000050317756    -0.000101716567    -0.000030926314
       9       -0.000024652115     0.000000237618    -0.000058726669

  **** Optimization is complete! (in 5 steps) ****
    Final optimized geometry and variables:
    Molecular point group: c1

    Geometry (in Angstrom), charge = 0, multiplicity = 1:

    H           -2.802639598200     0.388311304660     0.196361428018
    O           -1.987849664945    -0.085711770024     0.111223331333
    C           -0.940029603421     0.802592003322    -0.099232245200
    C            0.348749433141     0.023169255994    -0.022438278802
    H           -0.982372421706     1.266852743761    -1.079028969430
    H           -0.894449443602     1.579325814805     0.656718911998
    F            0.405175088783    -0.930064955411    -0.931505711544
    F            1.370176887256     0.842772385035    -0.233730375814
    F            0.519942296647    -0.533706067215     1.160433330275

  Mulliken Charges: (a.u.)
   Center  Symbol    Alpha    Beta     Spin     Total
       1     H     0.27139  0.27139  0.00000  0.45722
       2     O     4.36325  4.36325  0.00000 -0.72649
       3     C     3.05273  3.05273  0.00000 -0.10546
       4     C     2.45276  2.45276  0.00000  1.09448
       5     H     0.41017  0.41017  0.00000  0.17966
       6     H     0.41068  0.41068  0.00000  0.17863
       7     F     4.67669  4.67669  0.00000 -0.35339
       8     F     4.68546  4.68546  0.00000 -0.37092
       9     F     4.67687  4.67687  0.00000 -0.35374

   Total alpha = 25.00000, Total beta = 25.00000, Total charge = -0.00000
