  ==> Input File <==

--------------------------------------------------------------------------
set {
	reference rhf
	basis 6-31G*
}

set_num_threads( 1 )
memory 2 gb

molecule MOL {
0 1

H	 -3.161837	 0.500524	 -0.000234
C	 -2.367097	 -0.232926	 -0.000000
O	 -1.158440	 0.455814	 -0.000122
H	 -2.468853	 -0.861886	 -0.882833
H	 -2.468942	 -0.861421	 0.883154
C	 -0.029776	 -0.365156	 0.000148
C	 1.212217	 0.508981	 0.000007
H	 -0.036772	 -1.013236	 -0.877259
H	 -0.036869	 -1.012778	 0.877897
C	 2.008974	 0.392105	 -1.298607
H	 0.908495	 1.538608	 0.162131
H	 1.831160	 0.227916	 0.846536
H	 1.414429	 0.692558	 -2.156901
H	 2.889279	 1.025471	 -1.271110
H	 2.343114	 -0.627719	 -1.468054

	symmetry c1
}
set optking {
	frozen_dihedral = ("
		6 3 2 4,
		8 6 3 2
	")
}

ee = energy('scf')
oeprop('DIPOLE', 'QUADRUPOLE', 'MULLIKEN_CHARGES')
f=open( 'psi4out.xyz', 'w' )
f.write( "15  " )
f.write( str(ee) + "\n" )
f.write( MOL.save_string_xyz() )
f.close()
--------------------------------------------------------------------------

    Molecular point group: c1

    Geometry (in Angstrom), charge = 0, multiplicity = 1:

       Center              X                  Y                   Z               Mass
    ------------   -----------------  -----------------  -----------------  -----------------
           H         -3.061738191779     0.358343982475     0.263025464290     1.007825032070
           C         -2.266998191779    -0.375106017525     0.263259464290    12.000000000000
           O         -1.058341191779     0.313633982475     0.263137464290    15.994914619560
           H         -2.368754191779    -1.004066017525    -0.619573535710     1.007825032070
           H         -2.368843191779    -1.003601017525     1.146413464290     1.007825032070
           C          0.070322808221    -0.507336017525     0.263407464290    12.000000000000
           C          1.312315808221     0.366800982475     0.263266464290    12.000000000000
           H          0.063326808221    -1.155416017525    -0.613999535710     1.007825032070
           H          0.063229808221    -1.154958017525     1.141156464290     1.007825032070
           C          2.109072808221     0.249924982475    -1.035347535710    12.000000000000
           H          1.008593808221     1.396427982475     0.425390464290     1.007825032070
           H          1.931258808221     0.085735982475     1.109795464290     1.007825032070
           H          1.514527808221     0.550377982475    -1.893641535710     1.007825032070
           H          2.989377808221     0.883290982475    -1.007850535710     1.007825032070
           H          2.443212808221    -0.769899017525    -1.204794535710     1.007825032070

  Charge       = 0
  Multiplicity = 1
  Basis Set: 6-31G*
  Basis Set:

    Orbital Energies (a.u.)
    -----------------------

    Doubly Occupied:

       1A    -20.553310     2A    -11.264815     3A    -11.263378
       4A    -11.212273     5A    -11.209522     6A     -1.378317
       7A     -1.055907     8A     -0.953166     9A     -0.879929
      10A     -0.807043    11A     -0.669453    12A     -0.660161
      13A     -0.631657    14A     -0.589692    15A     -0.575457
      16A     -0.545581    17A     -0.490978    18A     -0.489452
      19A     -0.480606    20A     -0.461439    21A     -0.410675

  @DF-RHF Final Energy:  -232.13326102899612

   => Energetics <=

    Nuclear Repulsion Energy =            190.9219396794834438
    One-Electron Energy =                -692.9447699584114844
    Two-Electron Energy =                 269.8895692499321513
    DFT Exchange-Correlation Energy =       0.0000000000000000
    Empirical Dispersion Energy =           0.0000000000000000
    PCM Polarization Energy =               0.0000000000000000
    EFP Energy =                            0.0000000000000000
    Total Energy =                       -232.1332610289958893

  Mulliken Charges: (a.u.)
   Center  Symbol    Alpha    Beta     Spin     Total
       1     H     0.41244  0.41244  0.00000  0.17513
       2     C     3.07969  3.07969  0.00000 -0.15938
       3     O     4.30442  4.30442  0.00000 -0.60885
       4     H     0.43054  0.43054  0.00000  0.13892
       5     H     0.43048  0.43048  0.00000  0.13905
       6     C     2.98829  2.98829  0.00000  0.02342
       7     C     3.16504  3.16504  0.00000 -0.33008
       8     H     0.43010  0.43010  0.00000  0.13980
       9     H     0.43125  0.43125  0.00000  0.13750
      10     C     3.24539  3.24539  0.00000 -0.49077
      11     H     0.40298  0.40298  0.00000  0.19404
      12     H     0.42056  0.42056  0.00000  0.15888
      13     H     0.41677  0.41677  0.00000  0.16646
      14     H     0.41908  0.41908  0.00000  0.16185
      15     H     0.42298  0.42298  0.00000  0.15403

   Total alpha = 21.00000, Total beta = 21.00000, Total charge = -0.00000
