                              Psi4 1.0.54 Driver

  ==> Input File <==

--------------------------------------------------------------------------
set {
	reference rhf
	basis cc-pvtz
}

set_num_threads( 4 )
memory 2 gb

molecule MOL {
0 1

H	 1.615807	 -0.300339	 -1.715121
O	 0.800475	 -0.373856	 -1.255257
C	 0.700177	 0.619554	 -0.266242
C	 -0.713111	 0.588314	 0.266177
H	 0.908356	 1.599438	 -0.685066
H	 1.399620	 0.432385	 0.544390
O	 -1.421673	 -0.521378	 -0.196983
H	 -1.244794	 1.469161	 -0.069059
H	 -0.685100	 0.604721	 1.352683
H	 -0.933408	 -1.297830	 0.014544

	symmetry c1
}
set optking {
	frozen_dihedral = ("
		5 3 4 7
	")
}

ee,wfn = optimize('scf', return_wfn=True)
oeprop( wfn, 'DIPOLE', 'QUADRUPOLE', 'MULLIKEN_CHARGES')
f=open( 'psi4out.xyz', 'w' )
f.write( "10  " )
f.write( str(ee) + "\n" )
f.write( MOL.save_string_xyz() )
f.close()
--------------------------------------------------------------------------

    Molecular point group: c1
  Charge       = 0
  Multiplicity = 1
  Basis Set: CC-PVTZ
  Basis Set:
  @DF-RHF Final Energy:  -229.01323340783159
    Total Energy =                       -229.0132334078315637
    Molecular point group: c1
  Basis Set: CC-PVTZ
  Basis Set:
  Basis Set: CC-PVTZ
  Basis Set:
  @DF-RHF Final Energy:  -229.01426520726798
    Total Energy =                       -229.0142652072678970
  Basis Set: CC-PVTZ
  Basis Set:
  Basis Set: CC-PVTZ
  Basis Set:
  @DF-RHF Final Energy:  -229.01603611900455
    Total Energy =                       -229.0160361190044398
  Basis Set: CC-PVTZ
  Basis Set:
  Basis Set: CC-PVTZ
  Basis Set:
  @DF-RHF Final Energy:  -229.01637359800415
    Total Energy =                       -229.0163735980041793
  Basis Set: CC-PVTZ
  Basis Set:
  @DF-RHF Final Energy:  -229.01702437135307
    Total Energy =                       -229.0170243713532159
  @DF-RHF Final Energy:  -229.01766099793653
    Total Energy =                       -229.0176609979365310
  @DF-RHF Final Energy:  -229.01826063049722
    Total Energy =                       -229.0182606304973092
  @DF-RHF Final Energy:  -229.01794837918982
    Total Energy =                       -229.0179483791898747
  @DF-RHF Final Energy:  -229.01863485394151
    Total Energy =                       -229.0186348539415349
  @DF-RHF Final Energy:  -229.01880185564735
    Total Energy =                       -229.0188018556473821
  @DF-RHF Final Energy:  -229.01883252907268
    Total Energy =                       -229.0188325290726539
  @DF-RHF Final Energy:  -229.01884682070718
    Total Energy =                       -229.0188468207071821
  Basis Set: CC-PVTZ
  Basis Set:
  @DF-RHF Final Energy:  -229.01885543583739
    Total Energy =                       -229.0188554358372812
  Basis Set: CC-PVTZ
  Basis Set:
  Basis Set: CC-PVTZ
  Basis Set:
  @DF-RHF Final Energy:  -229.01886037864244
    Total Energy =                       -229.0188603786424437
  Basis Set: CC-PVTZ
  Basis Set:
  Basis Set: CC-PVTZ
  Basis Set:
  @DF-RHF Final Energy:  -229.01886155989902
    Total Energy =                       -229.0188615598991078
  Basis Set: CC-PVTZ
  Basis Set:
  Charge       = 0
  Multiplicity = 1
  Basis Set: CC-PVTZ
  Basis Set:

    Orbital Energies (a.u.)
    -----------------------

    Doubly Occupied:

       1A    -20.567640     2A    -20.533276     3A    -11.281211
       4A    -11.267317     5A     -1.392165     6A     -1.348869
       7A     -0.998374     8A     -0.849038     9A     -0.729078
      10A     -0.680377    11A     -0.665286    12A     -0.590392
      13A     -0.580896    14A     -0.545056    15A     -0.482433
      16A     -0.470126    17A     -0.419838

  @DF-RHF Final Energy:  -229.01886158193204

   => Energetics <=

    Nuclear Repulsion Energy =            135.0242094103038255
    One-Electron Energy =                -581.2833976221910461
    Two-Electron Energy =                 217.2403266299551206
    DFT Exchange-Correlation Energy =       0.0000000000000000
    Empirical Dispersion Energy =           0.0000000000000000
    PCM Polarization Energy =               0.0000000000000000
    EFP Energy =                            0.0000000000000000
    Total Energy =                       -229.0188615819321285
    Molecular point group: c1
  Basis Set: CC-PVTZ
  Basis Set:

  -Total Gradient:
     Atom            X                  Y                   Z
    ------   -----------------  -----------------  -----------------
       1       -0.000000622784    -0.000001629986    -0.000000885334
       2        0.000010307698    -0.000017620006    -0.000017774684
       3        0.001049049258     0.002664914729     0.003968635095
       4        0.001231509746    -0.002793530900     0.003131988023
       5       -0.001183383463    -0.001629325703    -0.004087676018
       6       -0.000001777428    -0.000003622998    -0.000002572251
       7       -0.001103224577     0.001781021170    -0.002994507016
       8       -0.000001718642     0.000001381993     0.000000797358
       9        0.000001082051    -0.000001012244     0.000001499038
      10       -0.000001221860    -0.000000576057     0.000000495787

  **** Optimization is complete! (in 16 steps) ****
    Final optimized geometry and variables:
    Molecular point group: c1

    Geometry (in Angstrom), charge = 0, multiplicity = 1:

    H            1.925028821092    -0.271038080092    -1.171105038345
    O            1.054118472916    -0.353872955238    -0.830733387524
    C            0.816437935521     0.621839295376     0.154673746824
    C           -0.650196278530     0.499499035249     0.627300251546
    H            0.971592106913     1.602768250254    -0.280332648076
    H            1.501381147131     0.489143344913     0.984172111062
    O           -1.286468888603    -0.656507906019     0.182320851932
    H           -1.203286595346     1.367081908385     0.280267310563
    H           -0.682693272667     0.509721116637     1.709228431279
    H           -0.803863427516    -1.013782455837    -0.542283118945

  Mulliken Charges: (a.u.)
   Center  Symbol    Alpha    Beta     Spin     Total
       1     H     0.39513  0.39513  0.00000  0.20975
       2     O     4.19888  4.19888  0.00000 -0.39775
       3     C     2.97213  2.97213  0.00000  0.05575
       4     C     2.95437  2.95437  0.00000  0.09125
       5     H     0.47090  0.47090  0.00000  0.05820
       6     H     0.47110  0.47110  0.00000  0.05779
       7     O     4.20816  4.20816  0.00000 -0.41631
       8     H     0.47825  0.47825  0.00000  0.04350
       9     H     0.46969  0.46969  0.00000  0.06062
      10     H     0.38140  0.38140  0.00000  0.23721

   Total alpha = 17.00000, Total beta = 17.00000, Total charge = -0.00000

*** Psi4 exiting successfully. Buy a developer a beer!
