  ==> Input File <==

--------------------------------------------------------------------------
set {
	reference rhf
	basis 6-31G*
}

set_num_threads( 4 )
memory 2 gb

molecule MOL {
0 1

O	 1.274373	 1.116555	 -0.750932
C	 0.861134	 0.272526	 -0.014869
C	 -0.623889	 -0.118271	 -0.003699
C	 1.814964	 -0.429219	 0.935797
C	 -0.895332	 -1.256461	 -1.002431
C	 -1.473649	 1.103340	 -0.370799
C	 -0.983900	 -0.581483	 1.422328
H	 -0.615301	 -0.972064	 -2.012700
H	 -1.954261	 -1.493213	 -1.010207
H	 -0.360539	 -2.164946	 -0.747760
H	 -1.227476	 1.468527	 -1.361691
H	 -2.526716	 0.838935	 -0.358521
H	 -1.314819	 1.915855	 0.325860
H	 -2.039679	 -0.828001	 1.472951
H	 -0.427637	 -1.464071	 1.720694
H	 -0.789023	 0.202493	 2.147048
H	 2.076041	 -1.403197	 0.532478
H	 2.716996	 0.160999	 1.020045
H	 1.386943	 -0.587480	 1.918127

	symmetry c1
}
set optking {
	frozen_dihedral = ("
		1 2 3 5
	")
}

ee = optimize('scf')
oeprop('DIPOLE', 'QUADRUPOLE', 'MULLIKEN_CHARGES')
f=open( 'psi4out.xyz', 'w' )
f.write( "19  " )
f.write( str(ee) + "\n" )
f.write( MOL.save_string_xyz() )
f.close()
--------------------------------------------------------------------------

    Molecular point group: c1
  Charge       = 0
  Multiplicity = 1
  Basis Set: 6-31G*
  Basis Set:
  @DF-RHF Final Energy:  -309.05836581934983
    Total Energy =                       -309.0583658193496035
    Molecular point group: c1
  Basis Set: 6-31G*
  Basis Set:
  Basis Set: 6-31G*
  Basis Set:
  @DF-RHF Final Energy:  -309.05970364887702
    Total Energy =                       -309.0597036488766207
  Basis Set: 6-31G*
  Basis Set:
  Basis Set: 6-31G*
  Basis Set:
  @DF-RHF Final Energy:  -309.06161932419133
    Total Energy =                       -309.0616193241911560
  Basis Set: 6-31G*
  Basis Set:
  Basis Set: 6-31G*
  Basis Set:
  @DF-RHF Final Energy:  -309.06196179370079
    Total Energy =                       -309.0619617937009593
  Basis Set: 6-31G*
  Basis Set:
  @DF-RHF Final Energy:  -309.06210634683390
    Total Energy =                       -309.0621063468341845
  @DF-RHF Final Energy:  -309.06230424408511
    Total Energy =                       -309.0623042440851123
  @DF-RHF Final Energy:  -309.06246582352674
    Total Energy =                       -309.0624658235269635
  @DF-RHF Final Energy:  -309.06260173871891
    Total Energy =                       -309.0626017387191382
  @DF-RHF Final Energy:  -309.06282713548467
    Total Energy =                       -309.0628271354844401
  Basis Set: 6-31G*
  Basis Set:
  @DF-RHF Final Energy:  -309.06283936715420
    Total Energy =                       -309.0628393671540834
  Basis Set: 6-31G*
  Basis Set:
  Basis Set: 6-31G*
  Basis Set:
  @DF-RHF Final Energy:  -309.06281219889246
    Total Energy =                       -309.0628121988927433
  Basis Set: 6-31G*
  Basis Set:
  Basis Set: 6-31G*
  Basis Set:
  @DF-RHF Final Energy:  -309.06284621130180
    Total Energy =                       -309.0628462113019168
  Basis Set: 6-31G*
  Basis Set:
  Charge       = 0
  Multiplicity = 1
  Basis Set: 6-31G*
  Basis Set:

    Orbital Energies (a.u.)
    -----------------------

    Doubly Occupied:

       1A    -20.548026     2A    -11.323048     3A    -11.246392
       4A    -11.227126     5A    -11.223589     6A    -11.223326
       7A    -11.209546     8A     -1.394588     9A     -1.109207
      10A     -1.002643    11A     -0.945878    12A     -0.935512
      13A     -0.834514    14A     -0.703727    15A     -0.664580
      16A     -0.631635    17A     -0.620974    18A     -0.593720
      19A     -0.589737    20A     -0.567455    21A     -0.546772
      22A     -0.546063    23A     -0.524890    24A     -0.512425
      25A     -0.499750    26A     -0.471975    27A     -0.463658
      28A     -0.392106

  @DF-RHF Final Energy:  -309.06284631274406

   => Energetics <=

    Nuclear Repulsion Energy =            326.3067543464193818
    One-Electron Energy =               -1065.6334772593197613
    Two-Electron Energy =                 430.2638766001563226
    DFT Exchange-Correlation Energy =       0.0000000000000000
    Empirical Dispersion Energy =           0.0000000000000000
    PCM Polarization Energy =               0.0000000000000000
    EFP Energy =                            0.0000000000000000
    Total Energy =                       -309.0628463127440000
    Molecular point group: c1
  Basis Set: 6-31G*
  Basis Set:

  -Total Gradient:
     Atom            X                  Y                   Z
    ------   -----------------  -----------------  -----------------
       1        0.000173205869    -0.000710622543    -0.000744134247
       2       -0.000276027071     0.001133617842     0.000885381547
       3        0.000242977966    -0.000926647995     0.000355786416
       4       -0.000007112937     0.000003309870     0.000000433588
       5       -0.000145986536     0.000504400325    -0.000505861182
       6        0.000005601019    -0.000002348874    -0.000003395472
       7        0.000001320804     0.000001045722     0.000004476024
       8        0.000002541522    -0.000000954701     0.000000271931
       9       -0.000001569310    -0.000002463606    -0.000001069155
      10        0.000000360799     0.000001752751    -0.000000456568
      11       -0.000001290703     0.000000533236     0.000000350148
      12       -0.000000538273     0.000001176661     0.000001054973
      13       -0.000000191746    -0.000000123362     0.000001771857
      14        0.000002360791     0.000002310135    -0.000003495868
      15        0.000001904350    -0.000002175646     0.000002286742
      16       -0.000002525775    -0.000000241081     0.000002054324
      17        0.000003301707     0.000001545438    -0.000001260795
      18       -0.000001792845    -0.000003029399     0.000002414021
      19        0.000003460367    -0.000001084776     0.000003391716

  **** Optimization is complete! (in 13 steps) ****
    Final optimized geometry and variables:
    Molecular point group: c1

    Geometry (in Angstrom), charge = 0, multiplicity = 1:

    O            1.242254261442     1.143921835822    -0.754518234654
    C            0.860618705089     0.278308859324    -0.026183170752
    C           -0.621626763896    -0.128541775019     0.000959813871
    C            1.852291291038    -0.472412763494     0.842371303965
    C           -0.794276505222    -1.246854700445    -1.046852197139
    C           -1.482150590393     1.077574787303    -0.397429339732
    C           -1.059138358802    -0.638078248342     1.382943730139
    H           -0.504481576933    -0.899540415877    -2.032293695534
    H           -1.833349748456    -1.558056212228    -1.088788250736
    H           -0.198774066781    -2.123173113905    -0.807645933094
    H           -1.199681888598     1.455050951583    -1.370438302383
    H           -2.529646575060     0.792936170735    -0.426267764250
    H           -1.374211604734     1.888130616804     0.316251450415
    H           -2.115674892126    -0.884381460885     1.363720204454
    H           -0.523271736947    -1.531487558547     1.684025051991
    H           -0.914090004756     0.116710682421     2.150530450662
    H            1.738514477065    -1.546684817056     0.745253162238
    H            2.853451542593    -0.185557390979     0.552898647852
    H            1.701194717675    -0.224054967375     1.888205044167

  Mulliken Charges: (a.u.)
   Center  Symbol    Alpha    Beta     Spin     Total
       1     O     4.26550  4.26550  0.00000 -0.53099
       2     C     2.72546  2.72546  0.00000  0.54907
       3     C     3.06618  3.06618  0.00000 -0.13235
       4     C     3.29003  3.29003  0.00000 -0.58005
       5     C     3.24061  3.24061  0.00000 -0.48122
       6     C     3.22971  3.22971  0.00000 -0.45942
       7     C     3.24114  3.24114  0.00000 -0.48229
       8     H     0.40688  0.40688  0.00000  0.18624
       9     H     0.41361  0.41361  0.00000  0.17277
      10     H     0.41925  0.41925  0.00000  0.16150
      11     H     0.40295  0.40295  0.00000  0.19410
      12     H     0.42256  0.42256  0.00000  0.15487
      13     H     0.41796  0.41796  0.00000  0.16408
      14     H     0.41381  0.41381  0.00000  0.17239
      15     H     0.41752  0.41752  0.00000  0.16496
      16     H     0.41660  0.41660  0.00000  0.16680
      17     H     0.40940  0.40940  0.00000  0.18120
      18     H     0.39571  0.39571  0.00000  0.20858
      19     H     0.40512  0.40512  0.00000  0.18975

   Total alpha = 28.00000, Total beta = 28.00000, Total charge =  0.00000
