  ==> Input File <==

--------------------------------------------------------------------------
set {
	reference rhf
	basis 6-31G*
}

set_num_threads( 4 )
memory 2 gb

molecule MOL {
0 1

H	 -1.710234	 -0.046784	 -0.901886
N	 -1.172117	 -0.314371	 -0.100254
C	 -0.024542	 0.565565	 0.069209
H	 -1.782275	 -0.251646	 0.692747
C	 1.271298	 -0.229563	 -0.014192
H	 -0.049409	 1.297310	 -0.731596
H	 -0.046881	 1.125219	 1.006750
H	 1.332152	 -0.753033	 -0.961461
H	 2.134169	 0.422483	 0.080702
H	 1.326077	 -0.968298	 0.781395

	symmetry c1
}
set optking {
	frozen_dihedral = ("
		1 2 3 6
	")
}

ee = optimize('scf')
oeprop('DIPOLE', 'QUADRUPOLE', 'MULLIKEN_CHARGES')
f=open( 'psi4out.xyz', 'w' )
f.write( "10  " )
f.write( str(ee) + "\n" )
f.write( MOL.save_string_xyz() )
f.close()
--------------------------------------------------------------------------

    Molecular point group: c1
  Charge       = 0
  Multiplicity = 1
  Basis Set: 6-31G*
  Basis Set:
  @DF-RHF Final Energy:  -134.24334473876931
    Total Energy =                       -134.2433447387692524
    Molecular point group: c1
  Basis Set: 6-31G*
  Basis Set:
  Basis Set: 6-31G*
  Basis Set:
  @DF-RHF Final Energy:  -134.24397428293827
    Total Energy =                       -134.2439742829382681
  Basis Set: 6-31G*
  Basis Set:
  Basis Set: 6-31G*
  Basis Set:
  @DF-RHF Final Energy:  -134.24418200550338
    Total Energy =                       -134.2441820055034043
  Basis Set: 6-31G*
  Basis Set:
  Basis Set: 6-31G*
  Basis Set:
  @DF-RHF Final Energy:  -134.24418440106291
    Total Energy =                       -134.2441844010629382
  Basis Set: 6-31G*
  Basis Set:
  Charge       = 0
  Multiplicity = 1
  Basis Set: 6-31G*
  Basis Set:

    Orbital Energies (a.u.)
    -----------------------

    Doubly Occupied:

       1A    -15.530706     2A    -11.243095     3A    -11.199149
       4A     -1.171937     5A     -0.984885     6A     -0.819850
       7A     -0.671871     8A     -0.622281     9A     -0.568110
      10A     -0.525107    11A     -0.509187    12A     -0.476599
      13A     -0.378543

  @DF-RHF Final Energy:  -134.24418482090522

   => Energetics <=

    Nuclear Repulsion Energy =             83.0130511945530998
    One-Electron Energy =                -345.1118333730997847
    Two-Electron Energy =                 127.8545973576414383
    DFT Exchange-Correlation Energy =       0.0000000000000000
    Empirical Dispersion Energy =           0.0000000000000000
    PCM Polarization Energy =               0.0000000000000000
    EFP Energy =                            0.0000000000000000
    Total Energy =                       -134.2441848209052466
    Molecular point group: c1
  Basis Set: 6-31G*
  Basis Set:

  -Total Gradient:
     Atom            X                  Y                   Z
    ------   -----------------  -----------------  -----------------
       1        0.000164540251    -0.000156785024    -0.000176944483
       2       -0.000252959153     0.000181446186     0.000238239983
       3        0.000262287837    -0.000198789595    -0.000217189426
       4       -0.000024493427     0.000005489754     0.000013033633
       5       -0.000017592274     0.000017276897     0.000015163576
       6       -0.000134763648     0.000146889751     0.000140898988
       7        0.000017973129    -0.000008331912     0.000006240493
       8       -0.000006856944     0.000005470175    -0.000001616692
       9        0.000001685590    -0.000004416339    -0.000010424926
      10       -0.000009821362     0.000011750105    -0.000007401145

  **** Optimization is complete! (in 5 steps) ****
    Final optimized geometry and variables:
    Molecular point group: c1

    Geometry (in Angstrom), charge = 0, multiplicity = 1:

    H           -1.743694400220    -0.057493802624    -0.858797764060
    N           -1.179544232178    -0.318007734039    -0.076308596724
    C           -0.013331062130     0.553971605768     0.067174036163
    H           -1.763596114913    -0.294097023345     0.734155222090
    C            1.284842875159    -0.242575077209     0.009376963634
    H           -0.009723001306     1.306918586321    -0.716425153929
    H           -0.059507181938     1.098612560410     1.006917652062
    H            1.364561483106    -0.769183889571    -0.935722073847
    H            2.149315758846     0.408013781763     0.115753561113
    H            1.311970848265    -0.982004486435     0.802897287795

  Mulliken Charges: (a.u.)
   Center  Symbol    Alpha    Beta     Spin     Total
       1     H     0.33100  0.33100  0.00000  0.33799
       2     N     3.92642  3.92642  0.00000 -0.85283
       3     C     3.06853  3.06853  0.00000 -0.13706
       4     H     0.33111  0.33111  0.00000  0.33778
       5     C     3.22435  3.22435  0.00000 -0.44870
       6     H     0.42510  0.42510  0.00000  0.14980
       7     H     0.42569  0.42569  0.00000  0.14863
       8     H     0.41927  0.41927  0.00000  0.16146
       9     H     0.42870  0.42870  0.00000  0.14261
      10     H     0.41984  0.41984  0.00000  0.16032

   Total alpha = 13.00000, Total beta = 13.00000, Total charge = -0.00000
