  ==> Input File <==

--------------------------------------------------------------------------
set {
	reference rhf
	basis 6-31G*
}

set_num_threads( 4 )
memory 2 gb

molecule MOL {
0 1

H	 1.680256	 -1.543067	 -0.228838
O	 1.654024	 -0.625927	 -0.460906
C	 1.135793	 0.118896	 0.612333
C	 0.031547	 1.023609	 0.088541
H	 1.915668	 0.729681	 1.063582
H	 0.754543	 -0.542641	 1.387006
C	 -1.134819	 0.293262	 -0.585751
H	 0.474374	 1.714721	 -0.623187
H	 -0.338529	 1.620940	 0.920081
C	 -1.917817	 -0.639439	 0.339494
H	 -0.758119	 -0.268455	 -1.433105
H	 -1.813832	 1.041889	 -0.986690
H	 -2.777680	 -1.057197	 -0.174994
H	 -1.310268	 -1.471279	 0.680599
H	 -2.283753	 -0.111424	 1.216626

	symmetry c1
}
set optking {
	frozen_dihedral = ("
		1 2 3 4
	")
}

ee = optimize('scf')
oeprop('DIPOLE', 'QUADRUPOLE', 'MULLIKEN_CHARGES')
f=open( 'psi4out.xyz', 'w' )
f.write( "15  " )
f.write( str(ee) + "\n" )
f.write( MOL.save_string_xyz() )
f.close()
--------------------------------------------------------------------------

    Molecular point group: c1
  Charge       = 0
  Multiplicity = 1
  Basis Set: 6-31G*
  Basis Set:
  @DF-RHF Final Energy:  -232.14182806157186
    Total Energy =                       -232.1418280615716299
    Molecular point group: c1
  Basis Set: 6-31G*
  Basis Set:
  Basis Set: 6-31G*
  Basis Set:
  @DF-RHF Final Energy:  -232.14204678761635
    Total Energy =                       -232.1420467876164366
  Basis Set: 6-31G*
  Basis Set:
  Basis Set: 6-31G*
  Basis Set:
  @DF-RHF Final Energy:  -232.14212897781744
    Total Energy =                       -232.1421289778175492
  Basis Set: 6-31G*
  Basis Set:
  Basis Set: 6-31G*
  Basis Set:
  @DF-RHF Final Energy:  -232.14212563007797
    Total Energy =                       -232.1421256300779987
  Basis Set: 6-31G*
  Basis Set:
  Basis Set: 6-31G*
  Basis Set:
  @DF-RHF Final Energy:  -232.14213783240086
    Total Energy =                       -232.1421378324010334
  Basis Set: 6-31G*
  Basis Set:
  Charge       = 0
  Multiplicity = 1
  Basis Set: 6-31G*
  Basis Set:

    Orbital Energies (a.u.)
    -----------------------

    Doubly Occupied:

       1A    -20.552244     2A    -11.267844     3A    -11.212306
       4A    -11.211704     5A    -11.209804     6A     -1.358329
       7A     -1.065535     8A     -0.972426     9A     -0.871885
      10A     -0.777308    11A     -0.704270    12A     -0.646207
      13A     -0.608648    14A     -0.579409    15A     -0.562184
      16A     -0.537479    17A     -0.506429    18A     -0.481440
      19A     -0.469718    20A     -0.455310    21A     -0.426612

  @DF-RHF Final Energy:  -232.14213815277984

   => Energetics <=

    Nuclear Repulsion Energy =            191.4522912362577642
    One-Electron Energy =                -694.2346825557677903
    Two-Electron Energy =                 270.6402531667303037
    DFT Exchange-Correlation Energy =       0.0000000000000000
    Empirical Dispersion Energy =           0.0000000000000000
    PCM Polarization Energy =               0.0000000000000000
    EFP Energy =                            0.0000000000000000
    Total Energy =                       -232.1421381527796939
    Molecular point group: c1
  Basis Set: 6-31G*
  Basis Set:

  -Total Gradient:
     Atom            X                  Y                   Z
    ------   -----------------  -----------------  -----------------
       1       -0.000792248368    -0.000139383680    -0.000355016379
       2        0.000846778937    -0.000001421023     0.000461386941
       3        0.000330352649     0.000514851691    -0.000206451065
       4       -0.000374171094    -0.000405779589     0.000074280741
       5        0.000007897695     0.000005063663     0.000011451137
       6       -0.000000782594     0.000001742230     0.000008799088
       7        0.000003934526     0.000012268053    -0.000002864641
       8        0.000001810765    -0.000007054445     0.000005687721
       9       -0.000024291485     0.000012642849    -0.000009472947
      10        0.000003757856    -0.000013562747     0.000007705426
      11       -0.000000725128     0.000009468192    -0.000002819035
      12        0.000004183854     0.000005911909     0.000005193652
      13        0.000008259789    -0.000005457078     0.000001659757
      14       -0.000000615390     0.000005679113    -0.000000321141
      15       -0.000014142013     0.000005030862     0.000000780744

  **** Optimization is complete! (in 6 steps) ****
    Final optimized geometry and variables:
    Molecular point group: c1

    Geometry (in Angstrom), charge = 0, multiplicity = 1:

    H            1.769708296792    -1.515940229704    -0.275688360681
    O            1.722518756248    -0.593337441931    -0.472205562489
    C            1.142174801422     0.108645859192     0.603093133334
    C            0.026094275590     1.012525987922     0.097388251567
    H            1.906956406570     0.711406773952     1.084389231571
    H            0.764334972129    -0.582035880315     1.351490730099
    C           -1.137752309623     0.281608681253    -0.579022782501
    H            0.461259744633     1.712763728519    -0.610311851687
    H           -0.343054040345     1.602406027724     0.935241480587
    C           -1.949598892873    -0.619881809146     0.353348341851
    H           -0.752084034312    -0.301477296854    -1.408738811613
    H           -1.802972129167     1.025738287462    -1.009531159668
    H           -2.796880175405    -1.051675991296    -0.170260753891
    H           -1.358391865780    -1.443729206534     0.741637675654
    H           -2.336317739750    -0.062601361584     1.202571824443

  Mulliken Charges: (a.u.)
   Center  Symbol    Alpha    Beta     Spin     Total
       1     H     0.27930  0.27930  0.00000  0.44141
       2     O     4.37208  4.37208  0.00000 -0.74416
       3     C     3.00029  3.00029  0.00000 -0.00057
       4     C     3.15880  3.15880  0.00000 -0.31761
       5     H     0.42221  0.42221  0.00000  0.15558
       6     H     0.43067  0.43067  0.00000  0.13866
       7     C     3.15650  3.15650  0.00000 -0.31301
       8     H     0.41376  0.41376  0.00000  0.17248
       9     H     0.42599  0.42599  0.00000  0.14802
      10     C     3.24203  3.24203  0.00000 -0.48406
      11     H     0.41105  0.41105  0.00000  0.17789
      12     H     0.42096  0.42096  0.00000  0.15809
      13     H     0.41806  0.41806  0.00000  0.16388
      14     H     0.42569  0.42569  0.00000  0.14863
      15     H     0.42262  0.42262  0.00000  0.15477

   Total alpha = 21.00000, Total beta = 21.00000, Total charge =  0.00000
