  ==> Input File <==

--------------------------------------------------------------------------
set {
	reference rhf
	basis cc-pvtz
}

set_num_threads( 4 )
memory 2 gb

molecule MOL {
0 1

H	 2.611965	 -0.541414	 -0.466108
O	 1.675515	 -0.612943	 -0.465627
C	 1.135873	 0.113391	 0.608264
C	 0.027642	 1.012027	 0.090274
H	 1.902972	 0.727968	 1.072615
H	 0.756163	 -0.561896	 1.370018
C	 -1.138737	 0.285728	 -0.581921
H	 0.464661	 1.708096	 -0.618252
H	 -0.340737	 1.603071	 0.925246
C	 -1.933983	 -0.631436	 0.343653
H	 -0.763151	 -0.285569	 -1.422081
H	 -1.808359	 1.035291	 -0.992333
H	 -2.789188	 -1.049673	 -0.174718
H	 -1.335629	 -1.461368	 0.700418
H	 -2.305435	 -0.092167	 1.209725

	symmetry c1
}
set optking {
	frozen_dihedral = ("
		1 2 3 4
	")
}

ee = optimize('scf')
oeprop('DIPOLE', 'QUADRUPOLE', 'MULLIKEN_CHARGES')
f=open( 'psi4out.xyz', 'w' )
f.write( "15  " )
f.write( str(ee) + "\n" )
f.write( MOL.save_string_xyz() )
f.close()
--------------------------------------------------------------------------

    Molecular point group: c1
  Charge       = 0
  Multiplicity = 1
  Basis Set: CC-PVTZ
  Basis Set:
  @DF-RHF Final Energy:  -232.23570592896516
    Total Energy =                       -232.2357059289653307
    Molecular point group: c1
  Basis Set: CC-PVTZ
  Basis Set:
  Basis Set: CC-PVTZ
  Basis Set:
  @DF-RHF Final Energy:  -232.23590844374274
    Total Energy =                       -232.2359084437428010
  Basis Set: CC-PVTZ
  Basis Set:
  Basis Set: CC-PVTZ
  Basis Set:
  @DF-RHF Final Energy:  -232.23595416876174
    Total Energy =                       -232.2359541687618503
  Basis Set: CC-PVTZ
  Basis Set:
  Basis Set: CC-PVTZ
  Basis Set:
  @DF-RHF Final Energy:  -232.23595190659657
    Total Energy =                       -232.2359519065965969
  Basis Set: CC-PVTZ
  Basis Set:
  Basis Set: CC-PVTZ
  Basis Set:
  @DF-RHF Final Energy:  -232.23595761994162
    Total Energy =                       -232.2359576199417006
  Basis Set: CC-PVTZ
  Basis Set:
  Charge       = 0
  Multiplicity = 1
  Basis Set: CC-PVTZ
  Basis Set:

    Orbital Energies (a.u.)
    -----------------------

    Doubly Occupied:

       1A    -20.545232     2A    -11.265713     3A    -11.210663
       4A    -11.207103     5A    -11.201829     6A     -1.362756
       7A     -1.064951     8A     -0.970691     9A     -0.870319
      10A     -0.778510    11A     -0.702908    12A     -0.645922
      13A     -0.614111    14A     -0.573607    15A     -0.564178
      16A     -0.532828    17A     -0.509881    18A     -0.481836
      19A     -0.467250    20A     -0.452271    21A     -0.429063

  @DF-RHF Final Energy:  -232.23595765650828

   => Energetics <=

    Nuclear Repulsion Energy =            191.7097276673485453
    One-Electron Energy =                -694.9881300084479108
    Two-Electron Energy =                 271.0424446845911461
    DFT Exchange-Correlation Energy =       0.0000000000000000
    Empirical Dispersion Energy =           0.0000000000000000
    PCM Polarization Energy =               0.0000000000000000
    EFP Energy =                            0.0000000000000000
    Total Energy =                       -232.2359576565082193
    Molecular point group: c1
  Basis Set: CC-PVTZ
  Basis Set:

  -Total Gradient:
     Atom            X                  Y                   Z
    ------   -----------------  -----------------  -----------------
       1       -0.000056307013     0.000705721940    -0.000531573370
       2        0.000178803513    -0.000716881071     0.000631500469
       3       -0.000488003344    -0.000373908029     0.000005154421
       4        0.000362555804     0.000386202145    -0.000109461257
       5        0.000000001119     0.000005665945     0.000006509446
       6        0.000001310733    -0.000006115091    -0.000006190742
       7        0.000001338833     0.000009140284     0.000003777834
       8       -0.000000415194    -0.000000945087     0.000000985204
       9       -0.000001509329    -0.000004167878     0.000000148048
      10        0.000000175838    -0.000005234780     0.000000241969
      11        0.000001859969    -0.000001936303     0.000000258235
      12        0.000002625557     0.000002347495    -0.000002158886
      13       -0.000000143548    -0.000000911338     0.000000580547
      14       -0.000000734006     0.000000201398     0.000000814759
      15       -0.000001558932     0.000000820371    -0.000000586678

  **** Optimization is complete! (in 6 steps) ****
    Final optimized geometry and variables:
    Molecular point group: c1

    Geometry (in Angstrom), charge = 0, multiplicity = 1:

    H            2.603531596438    -0.584287499080    -0.464298886104
    O            1.668523029772    -0.648975189258    -0.451205352231
    C            1.135069830792     0.116032325876     0.603336681785
    C            0.019288012449     1.016115188515     0.098632991259
    H            1.907304644915     0.730714456348     1.055285433322
    H            0.770007652067    -0.553424106479     1.374769421778
    C           -1.141095168621     0.285312375663    -0.579091754017
    H            0.447246708668     1.724172698084    -0.604149144337
    H           -0.354497332309     1.594106560291     0.941051128384
    C           -1.932972546165    -0.638905030598     0.342433246069
    H           -0.758174714728    -0.282390434115    -1.418674954496
    H           -1.814034906966     1.030884228521    -0.991269147545
    H           -2.780576278993    -1.065959091698    -0.181140428267
    H           -1.328397275147    -1.462101874190     0.703769179279
    H           -2.315424830864    -0.102127066884     1.205233442131

  Mulliken Charges: (a.u.)
   Center  Symbol    Alpha    Beta     Spin     Total
       1     H     0.39268  0.39268  0.00000  0.21464
       2     O     4.20359  4.20359  0.00000 -0.40718
       3     C     2.97847  2.97847  0.00000  0.04305
       4     C     3.08847  3.08847  0.00000 -0.17693
       5     H     0.46312  0.46312  0.00000  0.07376
       6     H     0.46756  0.46756  0.00000  0.06488
       7     C     3.08885  3.08885  0.00000 -0.17770
       8     H     0.45274  0.45274  0.00000  0.09452
       9     H     0.45693  0.45693  0.00000  0.08614
      10     C     3.15420  3.15420  0.00000 -0.30840
      11     H     0.44685  0.44685  0.00000  0.10630
      12     H     0.45050  0.45050  0.00000  0.09900
      13     H     0.44699  0.44699  0.00000  0.10602
      14     H     0.45161  0.45161  0.00000  0.09678
      15     H     0.45745  0.45745  0.00000  0.08511

   Total alpha = 21.00000, Total beta = 21.00000, Total charge = -0.00000
