  ==> Input File <==

--------------------------------------------------------------------------
set {
	reference rhf
	basis 6-31G*
}

set_num_threads( 1 )
memory 2 gb

molecule MOL {
0 1

H	 -2.689854	 0.958294	 -2.128354
C	 -1.978921	 0.292063	 -1.679610
C	 -2.076860	 -0.007332	 -0.404944
H	 -1.198362	 -0.115464	 -2.294069
O	 -1.180634	 -0.819263	 0.215062
H	 -2.855173	 0.384412	 0.225897
C	 0.051604	 -1.018856	 -0.387932
C	 1.043764	 0.054862	 -0.001873
H	 -0.017620	 -1.041351	 -1.469781
H	 0.437898	 -1.966374	 -0.042284
F	 2.212596	 -0.199467	 -0.571921
F	 0.652529	 1.252447	 -0.405055
F	 1.230877	 0.110694	 1.300533

	symmetry c1
}
set optking {
	frozen_dihedral = ("
		11 8 7 9,
		3 5 7 9,
		6 3 2 1
	")
}

ee = energy('scf')
oeprop('DIPOLE', 'QUADRUPOLE', 'MULLIKEN_CHARGES')
f=open( 'psi4out.xyz', 'w' )
f.write( "13  " )
f.write( str(ee) + "\n" )
f.write( MOL.save_string_xyz() )
f.close()
--------------------------------------------------------------------------

    Molecular point group: c1

    Geometry (in Angstrom), charge = 0, multiplicity = 1:

       Center              X                  Y                   Z               Mass
    ------------   -----------------  -----------------  -----------------  -----------------
           H         -2.825027478404     0.965765798835    -1.923174612356     1.007825032070
           C         -2.114094478404     0.299534798835    -1.474430612356    12.000000000000
           C         -2.212033478404     0.000139798835    -0.199764612356    12.000000000000
           H         -1.333535478404    -0.107992201165    -2.088889612356     1.007825032070
           O         -1.315807478404    -0.811791201165     0.420241387644    15.994914619560
           H         -2.990346478404     0.391883798835     0.431076387644     1.007825032070
           C         -0.083569478404    -1.011384201165    -0.182752612356    12.000000000000
           C          0.908590521596     0.062333798835     0.203306387644    12.000000000000
           H         -0.152793478404    -1.033879201165    -1.264601612356     1.007825032070
           H          0.302724521596    -1.958902201165     0.162895387644     1.007825032070
           F          2.077422521596    -0.191995201165    -0.366741612356    18.998403224000
           F          0.517355521596     1.259918798835    -0.199875612356    18.998403224000
           F          1.095703521596     0.118165798835     1.505712387644    18.998403224000

  Charge       = 0
  Multiplicity = 1
  Basis Set: 6-31G*
  Basis Set:

    Orbital Energies (a.u.)
    -----------------------

    Doubly Occupied:

       1A    -26.342039     2A    -26.338464     3A    -26.337064
       4A    -20.607901     5A    -11.500588     6A    -11.313727
       7A    -11.302234     8A    -11.218525     9A     -1.738256
      10A     -1.636870    11A     -1.634055    12A     -1.438678
      13A     -1.076478    14A     -1.025689    15A     -0.931226
      16A     -0.834650    17A     -0.828035    18A     -0.825534
      19A     -0.760241    20A     -0.735392    21A     -0.708029
      22A     -0.700556    23A     -0.675342    24A     -0.657310
      25A     -0.655356    26A     -0.639487    27A     -0.633776
      28A     -0.592027    29A     -0.557551    30A     -0.526764
      31A     -0.506220    32A     -0.356995

  @DF-RHF Final Energy:  -527.52648340910355

   => Energetics <=

    Nuclear Repulsion Energy =            422.0287799856445758
    One-Electron Energy =               -1567.8403299104620601
    Two-Electron Energy =                 618.2850665157147887
    DFT Exchange-Correlation Energy =       0.0000000000000000
    Empirical Dispersion Energy =           0.0000000000000000
    PCM Polarization Energy =               0.0000000000000000
    EFP Energy =                            0.0000000000000000
    Total Energy =                       -527.5264834091026387

  Mulliken Charges: (a.u.)
   Center  Symbol    Alpha    Beta     Spin     Total
       1     H     0.40388  0.40388  0.00000  0.19224
       2     C     3.24124  3.24124  0.00000 -0.48247
       3     C     2.89705  2.89705  0.00000  0.20591
       4     H     0.40962  0.40962  0.00000  0.18075
       5     O     4.30781  4.30781  0.00000 -0.61561
       6     H     0.39185  0.39185  0.00000  0.21631
       7     C     3.06230  3.06230  0.00000 -0.12459
       8     C     2.45541  2.45541  0.00000  1.08917
       9     H     0.40451  0.40451  0.00000  0.19097
      10     H     0.39059  0.39059  0.00000  0.21882
      11     F     4.68295  4.68295  0.00000 -0.36590
      12     F     4.67743  4.67743  0.00000 -0.35487
      13     F     4.67537  4.67537  0.00000 -0.35073

   Total alpha = 32.00000, Total beta = 32.00000, Total charge =  0.00000
