  ==> Input File <==

--------------------------------------------------------------------------
set {
	reference rhf
	basis 6-31G*
}

set_num_threads( 1 )
memory 2 gb

molecule MOL {
0 1

H	 1.872121	 1.720216	 0.136046
O	 0.983903	 1.376989	 0.143112
C	 1.050492	 0.053836	 0.000068
C	 -0.318135	 -0.576402	 0.000164
O	 2.085214	 -0.518905	 -0.110904
C	 -1.454360	 0.441875	 -0.000474
H	 -0.374042	 -1.230163	 -0.866135
H	 -0.374274	 -1.229227	 0.867154
C	 -2.826123	 -0.230780	 0.000056
H	 -1.357605	 1.085198	 -0.868380
H	 -1.357504	 1.086451	 0.866496
H	 -2.959731	 -0.858053	 -0.876869
H	 -3.619374	 0.509403	 -0.000080
H	 -2.959371	 -0.857318	 0.877556

	symmetry c1
}
set optking {
	frozen_dihedral = ("
		7 4 6 10,
		1 2 3 5
	")
}

ee = energy('scf')
oeprop('DIPOLE', 'QUADRUPOLE', 'MULLIKEN_CHARGES')
f=open( 'psi4out.xyz', 'w' )
f.write( "14  " )
f.write( str(ee) + "\n" )
f.write( MOL.save_string_xyz() )
f.close()
--------------------------------------------------------------------------

    Molecular point group: c1

    Geometry (in Angstrom), charge = 0, multiplicity = 1:

       Center              X                  Y                   Z               Mass
    ------------   -----------------  -----------------  -----------------  -----------------
           H          1.925545062686     1.604198670331     0.128666501680     1.007825032070
           O          1.037327062686     1.260971670331     0.135732501680    15.994914619560
           C          1.103916062686    -0.062181329669    -0.007311498320    12.000000000000
           C         -0.264710937314    -0.692419329669    -0.007215498320    12.000000000000
           O          2.138638062686    -0.634922329669    -0.118283498320    15.994914619560
           C         -1.400935937314     0.325857670331    -0.007853498320    12.000000000000
           H         -0.320617937314    -1.346180329669    -0.873514498320     1.007825032070
           H         -0.320849937314    -1.345244329669     0.859774501680     1.007825032070
           C         -2.772698937314    -0.346797329669    -0.007323498320    12.000000000000
           H         -1.304180937314     0.969180670331    -0.875759498320     1.007825032070
           H         -1.304079937314     0.970433670331     0.859116501680     1.007825032070
           H         -2.906306937314    -0.974070329669    -0.884248498320     1.007825032070
           H         -3.565949937314     0.393385670331    -0.007459498320     1.007825032070
           H         -2.905946937314    -0.973335329669     0.870176501680     1.007825032070

  Charge       = 0
  Multiplicity = 1
  Basis Set: 6-31G*
  Basis Set:

    Orbital Energies (a.u.)
    -----------------------

    Doubly Occupied:

       1A    -20.614520     2A    -20.548766     3A    -11.382044
       4A    -11.241178     5A    -11.227125     6A    -11.217913
       7A     -1.475580     8A     -1.365290     9A     -1.086201
      10A     -0.977892    11A     -0.843686    12A     -0.819795
      13A     -0.699757    14A     -0.678330    15A     -0.668319
      16A     -0.613562    17A     -0.588832    18A     -0.565720
      19A     -0.548693    20A     -0.525406    21A     -0.495839
      22A     -0.492486    23A     -0.466406    24A     -0.436563

  @DF-RHF Final Energy:  -305.87682263600783

   => Energetics <=

    Nuclear Repulsion Energy =            241.7261513589622268
    One-Electron Energy =                -896.0461168206883258
    Two-Electron Energy =                 348.4431428257180414
    DFT Exchange-Correlation Energy =       0.0000000000000000
    Empirical Dispersion Energy =           0.0000000000000000
    PCM Polarization Energy =               0.0000000000000000
    EFP Energy =                            0.0000000000000000
    Total Energy =                       -305.8768226360080007

  Mulliken Charges: (a.u.)
   Center  Symbol    Alpha    Beta     Spin     Total
       1     H     0.26735  0.26735  0.00000  0.46529
       2     O     4.34977  4.34977  0.00000 -0.69954
       3     C     2.61921  2.61921  0.00000  0.76157
       4     C     3.21593  3.21593  0.00000 -0.43187
       5     O     4.28179  4.28179  0.00000 -0.56358
       6     C     3.15255  3.15255  0.00000 -0.30511
       7     H     0.39625  0.39625  0.00000  0.20751
       8     H     0.39645  0.39645  0.00000  0.20710
       9     C     3.24281  3.24281  0.00000 -0.48563
      10     H     0.41240  0.41240  0.00000  0.17519
      11     H     0.40942  0.40942  0.00000  0.18116
      12     H     0.42044  0.42044  0.00000  0.15911
      13     H     0.41508  0.41508  0.00000  0.16984
      14     H     0.42052  0.42052  0.00000  0.15895

   Total alpha = 24.00000, Total beta = 24.00000, Total charge = -0.00000
