                              Psi4 1.0.54 Driver

  ==> Input File <==

--------------------------------------------------------------------------
set {
	reference rhf
	basis cc-pvtz
}

set_num_threads( 4 )
memory 2 gb

molecule MOL {
0 1

H	 3.293994	 -0.427963	 0.034615
C	 2.236031	 -0.247373	 0.026401
C	 1.463525	 -0.726038	 -1.021190
C	 1.652406	 0.459763	 1.058320
H	 1.924359	 -1.274744	 -1.819530
C	 0.105977	 -0.496562	 -1.035571
H	 2.252422	 0.828745	 1.867214
C	 0.288891	 0.689429	 1.042478
H	 -0.507753	 -0.858335	 -1.836266
C	 -0.486398	 0.214248	 0.000000
H	 -0.171892	 1.239024	 1.842352
C	 -1.946525	 0.470130	 0.000000
O	 -2.779618	 -0.371226	 0.000000
H	 -2.227127	 1.528393	 0.000000

	symmetry c1
}
set optking {
	frozen_dihedral = ("
		8 10 12 14
	")
}

ee,wfn = optimize('scf', return_wfn=True)
oeprop( wfn, 'DIPOLE', 'QUADRUPOLE', 'MULLIKEN_CHARGES')
f=open( 'psi4out.xyz', 'w' )
f.write( "14  " )
f.write( str(ee) + "\n" )
f.write( MOL.save_string_xyz() )
f.close()
--------------------------------------------------------------------------

    Molecular point group: c1
  Charge       = 0
  Multiplicity = 1
  Basis Set: CC-PVTZ
  Basis Set:
  @DF-RHF Final Energy:  -343.54022940669165
    Total Energy =                       -343.5402294066914806
    Molecular point group: c1
  Basis Set: CC-PVTZ
  Basis Set:
  Basis Set: CC-PVTZ
  Basis Set:
  @DF-RHF Final Energy:  -343.53802797204372
    Total Energy =                       -343.5380279720436079
  Basis Set: CC-PVTZ
  Basis Set:
  Basis Set: CC-PVTZ
  Basis Set:
  @DF-RHF Final Energy:  -343.54044617336842
    Total Energy =                       -343.5404461733681956
  Basis Set: CC-PVTZ
  Basis Set:
  Basis Set: CC-PVTZ
  Basis Set:
  @DF-RHF Final Energy:  -343.54100017999144
    Total Energy =                       -343.5410001799912152
  Basis Set: CC-PVTZ
  Basis Set:
  Basis Set: CC-PVTZ
  Basis Set:
  @DF-RHF Final Energy:  -343.54101261553956
    Total Energy =                       -343.5410126155394437
  Basis Set: CC-PVTZ
  Basis Set:
  Charge       = 0
  Multiplicity = 1
  Basis Set: CC-PVTZ
  Basis Set:

    Orbital Energies (a.u.)
    -----------------------

    Doubly Occupied:

       1A    -20.560383     2A    -11.330900     3A    -11.249439
       4A    -11.247915     5A    -11.245076     6A    -11.244195
       7A    -11.242471     8A    -11.241279     9A     -1.415149
      10A     -1.175142    11A     -1.049483    12A     -1.033955
      13A     -0.890784    14A     -0.845754    15A     -0.797226
      16A     -0.725518    17A     -0.681017    18A     -0.657256
      19A     -0.639074    20A     -0.621081    21A     -0.604708
      22A     -0.545951    23A     -0.530981    24A     -0.514380
      25A     -0.506929    26A     -0.426425    27A     -0.352711
      28A     -0.351547

  @DF-RHF Final Energy:  -343.54101435089069

   => Energetics <=

    Nuclear Repulsion Energy =            323.6748460095911923
    One-Electron Energy =               -1106.9782567816835126
    Two-Electron Energy =                 439.7623964212012879
    DFT Exchange-Correlation Energy =       0.0000000000000000
    Empirical Dispersion Energy =           0.0000000000000000
    PCM Polarization Energy =               0.0000000000000000
    EFP Energy =                            0.0000000000000000
    Total Energy =                       -343.5410143508910323
    Molecular point group: c1
  Basis Set: CC-PVTZ
  Basis Set:

  -Total Gradient:
     Atom            X                  Y                   Z
    ------   -----------------  -----------------  -----------------
       1       -0.000004801245    -0.000020405255    -0.000005327676
       2        0.000010695373     0.000086271861     0.000110287777
       3       -0.000127087872     0.000029845210    -0.000100077449
       4        0.000108879351    -0.000068158344    -0.000036131096
       5        0.000012786797    -0.000007658400     0.000005912071
       6        0.000125189720    -0.000132448869    -0.000019013119
       7       -0.000007136530     0.000010615299     0.000001842168
       8       -0.000780689683    -0.004982843978     0.002611610020
       9       -0.000000157912     0.000029898507     0.000001121761
      10        0.000891396660     0.007418565622    -0.006018936991
      11        0.000003866353     0.000009388417    -0.000006353520
      12       -0.000198965038    -0.002611678319     0.010358807823
      13        0.000012966002    -0.000038599143    -0.000006717437
      14       -0.000046941982     0.000277207395    -0.006897024332

  **** Optimization is complete! (in 6 steps) ****
    Final optimized geometry and variables:
    Molecular point group: c1

    Geometry (in Angstrom), charge = 0, multiplicity = 1:

    H            3.288116386824    -0.449542620806     0.038089220959
    C            2.233161074235    -0.253173004091     0.027932594560
    C            1.454195425564    -0.718107200134    -1.016422759495
    C            1.653664024479     0.458162262168     1.061101220874
    H            1.903780357204    -1.276347673033    -1.814813645560
    C            0.094657103262    -0.479158414476    -1.024760273881
    H            2.254202357516     0.807136042392     1.878787242731
    C            0.297049181082     0.719880305528     1.040672714079
    H           -0.520144226040    -0.862864229879    -1.815447698446
    C           -0.483059874190     0.261139460343    -0.006432421449
    H           -0.151843569996     1.279802090933     1.840416444758
    C           -1.961749019051     0.468948873929     0.016842802716
    O           -2.748806277050    -0.406941601409    -0.085912359502
    H           -2.297236273660     1.510611308304     0.058471196637

  Mulliken Charges: (a.u.)
   Center  Symbol    Alpha    Beta     Spin     Total
       1     H     0.42050  0.42050  0.00000  0.15899
       2     C     3.07894  3.07894  0.00000 -0.15788
       3     C     3.06469  3.06469  0.00000 -0.12938
       4     C     3.06790  3.06790  0.00000 -0.13580
       5     H     0.42081  0.42081  0.00000  0.15839
       6     C     3.09060  3.09060  0.00000 -0.18120
       7     H     0.42085  0.42085  0.00000  0.15831
       8     C     3.09380  3.09380  0.00000 -0.18761
       9     H     0.41635  0.41635  0.00000  0.16731
      10     C     2.95542  2.95542  0.00000  0.08916
      11     H     0.42421  0.42421  0.00000  0.15159
      12     C     2.93003  2.93003  0.00000  0.13995
      13     O     4.16020  4.16020  0.00000 -0.32040
      14     H     0.45571  0.45571  0.00000  0.08858

   Total alpha = 28.00000, Total beta = 28.00000, Total charge =  0.00000

*** Psi4 exiting successfully. Buy a developer a beer!
