                              Psi4 1.0.54 Driver

  ==> Input File <==

--------------------------------------------------------------------------
set {
	reference rhf
	basis cc-pvtz
}

set_num_threads( 4 )
memory 2 gb

molecule MOL {
0 1

H	 1.497864	 1.291595	 0.237596
C	 0.848385	 0.440008	 0.000011
C	 -0.623497	 0.751021	 0.000090
O	 1.318781	 -0.619575	 -0.230761
C	 -1.523725	 -0.474323	 -0.000013
H	 -0.813143	 1.382932	 -0.864897
H	 -0.813071	 1.382716	 0.865253
H	 -1.342980	 -1.087348	 -0.873016
H	 -2.565269	 -0.177464	 0.000070
H	 -1.342898	 -1.087564	 0.872820

	symmetry c1
}
set optking {
	frozen_dihedral = ("
		4 2 3 6
	")
}

ee,wfn = optimize('scf', return_wfn=True)
oeprop( wfn, 'DIPOLE', 'QUADRUPOLE', 'MULLIKEN_CHARGES')
f=open( 'psi4out.xyz', 'w' )
f.write( "10  " )
f.write( str(ee) + "\n" )
f.write( MOL.save_string_xyz() )
f.close()
--------------------------------------------------------------------------

    Molecular point group: c1
  Charge       = 0
  Multiplicity = 1
  Basis Set: CC-PVTZ
  Basis Set:
  @DF-RHF Final Energy:  -192.02439132439051
    Total Energy =                       -192.0243913243905922
    Molecular point group: c1
  Basis Set: CC-PVTZ
  Basis Set:
  Basis Set: CC-PVTZ
  Basis Set:
  @DF-RHF Final Energy:  -192.02352046534446
    Total Energy =                       -192.0235204653444612
  Basis Set: CC-PVTZ
  Basis Set:
  Basis Set: CC-PVTZ
  Basis Set:
  @DF-RHF Final Energy:  -192.02445321214432
    Total Energy =                       -192.0244532121442944
  Basis Set: CC-PVTZ
  Basis Set:
  Basis Set: CC-PVTZ
  Basis Set:
  @DF-RHF Final Energy:  -192.02451323527490
    Total Energy =                       -192.0245132352750375
  Basis Set: CC-PVTZ
  Basis Set:
  Charge       = 0
  Multiplicity = 1
  Basis Set: CC-PVTZ
  Basis Set:

    Orbital Energies (a.u.)
    -----------------------

    Doubly Occupied:

       1A    -20.553707     2A    -11.323468     3A    -11.239681
       4A    -11.218222     5A     -1.409281     6A     -1.061664
       7A     -0.911209     8A     -0.774532     9A     -0.685916
      10A     -0.638187    11A     -0.632309    12A     -0.545011
      13A     -0.535625    14A     -0.519220    15A     -0.495711
      16A     -0.416776

  @DF-RHF Final Energy:  -192.02451362446220

   => Energetics <=

    Nuclear Repulsion Energy =            119.3524623217666516
    One-Electron Energy =                -496.8329136860337485
    Two-Electron Energy =                 185.4559377398048241
    DFT Exchange-Correlation Energy =       0.0000000000000000
    Empirical Dispersion Energy =           0.0000000000000000
    PCM Polarization Energy =               0.0000000000000000
    EFP Energy =                            0.0000000000000000
    Total Energy =                       -192.0245136244622586
    Molecular point group: c1
  Basis Set: CC-PVTZ
  Basis Set:

  -Total Gradient:
     Atom            X                  Y                   Z
    ------   -----------------  -----------------  -----------------
       1        0.000000438344     0.000027674056     0.000004985154
       2       -0.000089209812    -0.000772804988     0.001940345936
       3        0.000311105891     0.001488564192     0.000241481296
       4        0.000042348030     0.000367484956    -0.001439617604
       5       -0.000012440045     0.000022965468     0.000014988554
       6       -0.000250536283    -0.001118302659    -0.000749014634
       7        0.000003776809    -0.000006346301    -0.000006858457
       8        0.000002487471     0.000000044866    -0.000004891275
       9       -0.000007477412    -0.000008590131    -0.000000681785
      10       -0.000000492990    -0.000000689458    -0.000000737185

  **** Optimization is complete! (in 5 steps) ****
    Final optimized geometry and variables:
    Molecular point group: c1

    Geometry (in Angstrom), charge = 0, multiplicity = 1:

    H            1.506129645791     1.289449341259     0.250870949004
    C            0.848870905242     0.432640785691     0.057945094104
    C           -0.623140305465     0.747438508060     0.070958496199
    O            1.311962673433    -0.631294716160    -0.167483611309
    C           -1.523244074542    -0.479016620715     0.050648238212
    H           -0.805969244920     1.370746203095    -0.802746828128
    H           -0.822931476811     1.377413491151     0.933015301641
    H           -1.330631424833    -1.085136594396    -0.823834556679
    H           -2.564787084082    -0.182370946288     0.040593630232
    H           -1.354339451558    -1.098429374461     0.922295093302

  Mulliken Charges: (a.u.)
   Center  Symbol    Alpha    Beta     Spin     Total
       1     H     0.45350  0.45350  0.00000  0.09300
       2     C     2.91625  2.91625  0.00000  0.16750
       3     C     3.08366  3.08366  0.00000 -0.16732
       4     O     4.16482  4.16482  0.00000 -0.32963
       5     C     3.14091  3.14091  0.00000 -0.28182
       6     H     0.44814  0.44814  0.00000  0.10371
       7     H     0.44839  0.44839  0.00000  0.10322
       8     H     0.44533  0.44533  0.00000  0.10934
       9     H     0.44945  0.44945  0.00000  0.10109
      10     H     0.44956  0.44956  0.00000  0.10089

   Total alpha = 16.00000, Total beta = 16.00000, Total charge =  0.00000

*** Psi4 exiting successfully. Buy a developer a beer!
