  ==> Input File <==

--------------------------------------------------------------------------
set {
	reference rhf
	basis 6-31G*
}

set_num_threads( 1 )
memory 2 gb

molecule MOL {
0 1

O	 -1.865828	 0.806035	 0.721431
C	 -1.083277	 0.139568	 0.115197
C	 0.323299	 -0.082943	 0.642902
C	 -1.438696	 -0.492928	 -1.212001
C	 1.355627	 -0.005344	 -0.493127
H	 0.396251	 -1.044647	 1.143147
H	 0.528637	 0.693580	 1.371677
C	 2.786168	 -0.195604	 0.007473
H	 1.132807	 -0.760304	 -1.243899
H	 1.259610	 0.958506	 -0.981915
H	 3.495561	 -0.130713	 -0.811210
H	 2.912696	 -1.165395	 0.480041
H	 3.049284	 0.565503	 0.735850
H	 -0.692844	 -0.254162	 -1.964572
H	 -2.411140	 -0.149845	 -1.536627
H	 -1.454102	 -1.574680	 -1.108169

	symmetry c1
}
set optking {
	frozen_dihedral = ("
		9 5 3 2
	")
}

ee = energy('scf')
oeprop('DIPOLE', 'QUADRUPOLE', 'MULLIKEN_CHARGES')
f=open( 'psi4out.xyz', 'w' )
f.write( "16  " )
f.write( str(ee) + "\n" )
f.write( MOL.save_string_xyz() )
f.close()
--------------------------------------------------------------------------

    Molecular point group: c1

    Geometry (in Angstrom), charge = 0, multiplicity = 1:

       Center              X                  Y                   Z               Mass
    ------------   -----------------  -----------------  -----------------  -----------------
           O         -1.886214712362     0.778606061646     0.764205795742    15.994914619560
           C         -1.103663712362     0.112139061646     0.157971795742    12.000000000000
           C          0.302912287638    -0.110371938354     0.685676795742    12.000000000000
           C         -1.459082712362    -0.520356938354    -1.169226204258    12.000000000000
           C          1.335240287638    -0.032772938354    -0.450352204258    12.000000000000
           H          0.375864287638    -1.072075938354     1.185921795742     1.007825032070
           H          0.508250287638     0.666151061646     1.414451795742     1.007825032070
           C          2.765781287638    -0.223032938354     0.050247795742    12.000000000000
           H          1.112420287638    -0.787732938354    -1.201124204258     1.007825032070
           H          1.239223287638     0.931077061646    -0.939140204258     1.007825032070
           H          3.475174287638    -0.158141938354    -0.768435204258     1.007825032070
           H          2.892309287638    -1.192823938354     0.522815795742     1.007825032070
           H          3.028897287638     0.538074061646     0.778624795742     1.007825032070
           H         -0.713230712362    -0.281590938354    -1.921797204258     1.007825032070
           H         -2.431526712362    -0.177273938354    -1.493852204258     1.007825032070
           H         -1.474488712362    -1.602108938354    -1.065394204258     1.007825032070

  Charge       = 0
  Multiplicity = 1
  Basis Set: 6-31G*
  Basis Set:

    Orbital Energies (a.u.)
    -----------------------

    Doubly Occupied:

       1A    -20.547956     2A    -11.324832     3A    -11.234300
       4A    -11.230675     5A    -11.227315     6A    -11.221027
       7A     -1.393228     8A     -1.088512     9A     -1.009350
      10A     -0.951156    11A     -0.833542    12A     -0.735232
      13A     -0.658128    14A     -0.653831    15A     -0.621965
      16A     -0.603085    17A     -0.577865    18A     -0.554437
      19A     -0.537661    20A     -0.517778    21A     -0.504774
      22A     -0.485835    23A     -0.474670    24A     -0.398214

  @DF-RHF Final Energy:  -270.02591487419443

   => Energetics <=

    Nuclear Repulsion Energy =            238.2065308313448782
    One-Electron Energy =                -837.6940024354555590
    Two-Electron Energy =                 329.4615567299161967
    DFT Exchange-Correlation Energy =       0.0000000000000000
    Empirical Dispersion Energy =           0.0000000000000000
    PCM Polarization Energy =               0.0000000000000000
    EFP Energy =                            0.0000000000000000
    Total Energy =                       -270.0259148741944273

  Mulliken Charges: (a.u.)
   Center  Symbol    Alpha    Beta     Spin     Total
       1     O     4.26198  4.26198  0.00000 -0.52395
       2     C     2.73163  2.73163  0.00000  0.53674
       3     C     3.20233  3.20233  0.00000 -0.40467
       4     C     3.29461  3.29461  0.00000 -0.58922
       5     C     3.17033  3.17033  0.00000 -0.34066
       6     H     0.40683  0.40683  0.00000  0.18634
       7     H     0.39909  0.39909  0.00000  0.20181
       8     C     3.23863  3.23863  0.00000 -0.47727
       9     H     0.41750  0.41750  0.00000  0.16500
      10     H     0.41502  0.41502  0.00000  0.16996
      11     H     0.41608  0.41608  0.00000  0.16785
      12     H     0.41977  0.41977  0.00000  0.16046
      13     H     0.41769  0.41769  0.00000  0.16461
      14     H     0.40511  0.40511  0.00000  0.18979
      15     H     0.39581  0.39581  0.00000  0.20839
      16     H     0.40759  0.40759  0.00000  0.18482

   Total alpha = 24.00000, Total beta = 24.00000, Total charge = -0.00000
