                              Psi4 1.0.54 Driver

  ==> Input File <==

--------------------------------------------------------------------------
set {
	reference rhf
	basis cc-pvtz
}

set_num_threads( 4 )
memory 2 gb

molecule MOL {
0 1

H	 -0.000105	 1.988529	 0.748933
O	 -0.000098	 1.879786	 -0.188206
C	 -0.000014	 0.545691	 -0.532416
C	 1.426669	 0.074262	 -0.818960
C	 -0.990250	 0.293876	 -1.670747
H	 -0.351529	 -0.017012	 0.319912
F	 2.164105	 0.251031	 0.249591
F	 1.477146	 -1.194660	 -1.136768
F	 1.971211	 0.764052	 -1.798265
F	 -2.191885	 0.646823	 -1.285572
F	 -1.034728	 -0.966415	 -2.022034
F	 -0.687192	 1.005620	 -2.735149

	symmetry c1
}
set optking {
	frozen_dihedral = ("
		6 3 2 1
	")
}

ee,wfn = optimize('scf', return_wfn=True)
oeprop( wfn, 'DIPOLE', 'QUADRUPOLE', 'MULLIKEN_CHARGES')
f=open( 'psi4out.xyz', 'w' )
f.write( "12  " )
f.write( str(ee) + "\n" )
f.write( MOL.save_string_xyz() )
f.close()
--------------------------------------------------------------------------

    Molecular point group: c1
  Charge       = 0
  Multiplicity = 1
  Basis Set: CC-PVTZ
  Basis Set:
  @DF-RHF Final Energy:  -786.58579140122868
    Total Energy =                       -786.5857914012283345
    Molecular point group: c1
  Basis Set: CC-PVTZ
  Basis Set:
  Basis Set: CC-PVTZ
  Basis Set:
  @DF-RHF Final Energy:  -786.58728460001896
    Total Energy =                       -786.5872846000189611
  Basis Set: CC-PVTZ
  Basis Set:
  Basis Set: CC-PVTZ
  Basis Set:
  @DF-RHF Final Energy:  -786.58756785114724
    Total Energy =                       -786.5875678511472415
  Basis Set: CC-PVTZ
  Basis Set:
  Basis Set: CC-PVTZ
  Basis Set:
  @DF-RHF Final Energy:  -786.58759548813839
    Total Energy =                       -786.5875954881385042
  Basis Set: CC-PVTZ
  Basis Set:
  Basis Set: CC-PVTZ
  Basis Set:
  @DF-RHF Final Energy:  -786.58760385715448
    Total Energy =                       -786.5876038571542495
  Basis Set: CC-PVTZ
  Basis Set:
  Basis Set: CC-PVTZ
  Basis Set:
  @DF-RHF Final Energy:  -786.58760542980963
    Total Energy =                       -786.5876054298092868
  Basis Set: CC-PVTZ
  Basis Set:
  Basis Set: CC-PVTZ
  Basis Set:
  @DF-RHF Final Energy:  -786.58760795947251
    Total Energy =                       -786.5876079594725070
  Basis Set: CC-PVTZ
  Basis Set:
  Charge       = 0
  Multiplicity = 1
  Basis Set: CC-PVTZ
  Basis Set:

    Orbital Energies (a.u.)
    -----------------------

    Doubly Occupied:

       1A    -26.352375     2A    -26.352261     3A    -26.351477
       4A    -26.350025     5A    -26.349107     6A    -26.348116
       7A    -20.609578     8A    -11.515264     9A    -11.514888
      10A    -11.351822    11A     -1.766364    12A     -1.760870
      13A     -1.660933    14A     -1.658952    15A     -1.656402
      16A     -1.655800    17A     -1.439386    18A     -1.103384
      19A     -0.997084    20A     -0.939200    21A     -0.867366
      22A     -0.861891    23A     -0.857316    24A     -0.846117
      25A     -0.835471    26A     -0.786059    27A     -0.770410
      28A     -0.732464    29A     -0.726390    30A     -0.723709
      31A     -0.719939    32A     -0.685626    33A     -0.681078
      34A     -0.673861    35A     -0.672649    36A     -0.662987
      37A     -0.657820    38A     -0.626548    39A     -0.622526
      40A     -0.559484    41A     -0.508924

  @DF-RHF Final Energy:  -786.58760894425052

   => Energetics <=

    Nuclear Repulsion Energy =            670.2128293128456562
    One-Electron Energy =               -2427.9770323524353444
    Two-Electron Energy =                 971.1765940953387144
    DFT Exchange-Correlation Energy =       0.0000000000000000
    Empirical Dispersion Energy =           0.0000000000000000
    PCM Polarization Energy =               0.0000000000000000
    EFP Energy =                            0.0000000000000000
    Total Energy =                       -786.5876089442508601
    Molecular point group: c1
  Basis Set: CC-PVTZ
  Basis Set:

  -Total Gradient:
     Atom            X                  Y                   Z
    ------   -----------------  -----------------  -----------------
       1       -0.000847473117    -0.000039600748    -0.000018672382
       2        0.001294036024     0.000020794083     0.000071789724
       3       -0.001121084719     0.000004388063    -0.000362346361
       4       -0.000048165090    -0.000005771918    -0.000010181059
       5       -0.000040563352    -0.000015512152     0.000070131723
       6        0.000692328863    -0.000033544626     0.000266953723
       7        0.000027145033     0.000000851442     0.000009923811
       8        0.000013444261     0.000050150696    -0.000007621202
       9        0.000012898980    -0.000015333554     0.000028062525
      10        0.000004610785     0.000021576178    -0.000020674101
      11        0.000025843538     0.000015656283    -0.000010316852
      12       -0.000013021211    -0.000003653747    -0.000017049551

  **** Optimization is complete! (in 8 steps) ****
    Final optimized geometry and variables:
    Molecular point group: c1

    Geometry (in Angstrom), charge = 0, multiplicity = 1:

    H           -0.300239653715     1.705971834555     1.903908841388
    O           -0.277521122444     1.558265484516     0.976428772507
    C           -0.240197506610     0.210037075231     0.683653251089
    C            1.205084389442    -0.209882644075     0.411749998617
    C           -1.200779843750    -0.035871672956    -0.478057735937
    H           -0.584176484143    -0.409338455631     1.502722229685
    F            1.929196081011     0.081388952233     1.471921915061
    F            1.302001687530    -1.502569069887     0.210174048987
    F            1.728040025774     0.405982728632    -0.614628151058
    F           -2.420653500233     0.258682625616    -0.093293285212
    F           -1.191289525183    -1.296537496233    -0.843655913132
    F           -0.917733462304     0.694912012255    -1.523231926919

  Mulliken Charges: (a.u.)
   Center  Symbol    Alpha    Beta     Spin     Total
       1     H     0.38116  0.38116  0.00000  0.23767
       2     O     4.18657  4.18657  0.00000 -0.37314
       3     C     3.00162  3.00162  0.00000 -0.00324
       4     C     2.68014  2.68014  0.00000  0.63972
       5     C     2.67754  2.67754  0.00000  0.64493
       6     H     0.44459  0.44459  0.00000  0.11083
       7     F     4.61031  4.61031  0.00000 -0.22063
       8     F     4.60535  4.60535  0.00000 -0.21070
       9     F     4.60067  4.60067  0.00000 -0.20135
      10     F     4.60580  4.60580  0.00000 -0.21159
      11     F     4.60534  4.60534  0.00000 -0.21067
      12     F     4.60091  4.60091  0.00000 -0.20183

   Total alpha = 41.00000, Total beta = 41.00000, Total charge =  0.00000

*** Psi4 exiting successfully. Buy a developer a beer!
