  ==> Input File <==

--------------------------------------------------------------------------
set {
	reference rhf
	basis cc-pvtz
}

set_num_threads( 4 )
memory 2 gb

molecule MOL {
0 1

H	 -2.592189	 0.153455	 -0.633857
C	 -1.605056	 -0.289273	 -0.656897
C	 -0.600949	 0.658697	 -0.000002
H	 -1.338760	 -0.480257	 -1.687769
H	 -1.641408	 -1.235885	 -0.134699
C	 0.763408	 0.112229	 -0.000006
H	 -0.574645	 1.609071	 -0.516752
H	 -0.875589	 0.857700	 1.027571
N	 1.806008	 -0.317179	 0.000007

	symmetry c1
}
set optking {
	frozen_dihedral = ("
		7 3 6 9
	")
}

ee = optimize('scf')
oeprop('DIPOLE', 'QUADRUPOLE', 'MULLIKEN_CHARGES')
f=open( 'psi4out.xyz', 'w' )
f.write( "9  " )
f.write( str(ee) + "\n" )
f.write( MOL.save_string_xyz() )
f.close()
--------------------------------------------------------------------------

    Molecular point group: c1
  Charge       = 0
  Multiplicity = 1
  Basis Set: CC-PVTZ
  Basis Set:
  @DF-RHF Final Energy:  -171.02346065583441
    Total Energy =                       -171.0234606558344126
    Molecular point group: c1
  Basis Set: CC-PVTZ
  Basis Set:
  Basis Set: CC-PVTZ
  Basis Set:
  @DF-RHF Final Energy:  -170.79217819615548
    Total Energy =                       -170.7921781961555894
  Basis Set: CC-PVTZ
  Basis Set:
  Basis Set: CC-PVTZ
  Basis Set:
  @DF-RHF Final Energy:  -170.90227266055047
    Total Energy =                       -170.9022726605505227
  Basis Set: CC-PVTZ
  Basis Set:
  Basis Set: CC-PVTZ
  Basis Set:
  @DF-RHF Final Energy:  -170.93876132589085
    Total Energy =                       -170.9387613258907948
  Basis Set: CC-PVTZ
  Basis Set:
  @DF-RHF Final Energy:  -171.02090803095527
    Total Energy =                       -171.0209080309551553
  @DF-RHF Final Energy:  -171.02166870821304
    Total Energy =                       -171.0216687082129852
  @DF-RHF Final Energy:  -171.02301288418104
    Total Energy =                       -171.0230128841810426
  @DF-RHF Final Energy:  -171.02309015304439
    Total Energy =                       -171.0230901530443930
  @DF-RHF Final Energy:  -171.02324696744088
    Total Energy =                       -171.0232469674408833
  @DF-RHF Final Energy:  -171.02333656856104
    Total Energy =                       -171.0233365685610636
  @DF-RHF Final Energy:  -171.02343839438529
    Total Energy =                       -171.0234383943851810
  @DF-RHF Final Energy:  -171.02177829046235
    Total Energy =                       -171.0217782904624073
  @DF-RHF Final Energy:  -171.02271773715879
    Total Energy =                       -171.0227177371588425
  @DF-RHF Final Energy:  -171.02314785073472
    Total Energy =                       -171.0231478507347447
  @DF-RHF Final Energy:  -171.02343433702441
    Total Energy =                       -171.0234343370243550
  @DF-RHF Final Energy:  -171.02333515232823
    Total Energy =                       -171.0233351523281726
  @DF-RHF Final Energy:  -171.02342629001527
    Total Energy =                       -171.0234262900153226
  @DF-RHF Final Energy:  -171.01547916988255
    Total Energy =                       -171.0154791698824965
  @DF-RHF Final Energy:  -171.02221812477950
    Total Energy =                       -171.0222181247794992
  @DF-RHF Final Energy:  -171.02298294069504
    Total Energy =                       -171.0229829406950444
  @DF-RHF Final Energy:  -171.02324885273583
    Total Energy =                       -171.0232488527358043
  @DF-RHF Final Energy:  -170.98151523722979
    Total Energy =                       -170.9815152372298144
  @DF-RHF Final Energy:  -171.00852059037879
    Total Energy =                       -171.0085205903788506
  @DF-RHF Final Energy:  -171.01867693643578
    Total Energy =                       -171.0186769364357815
  @DF-RHF Final Energy:  -171.02273854119011
    Total Energy =                       -171.0227385411900229
  @DF-RHF Final Energy:  -171.02302294739616
    Total Energy =                       -171.0230229473962140
  @DF-RHF Final Energy:  -171.02304431176518
    Total Energy =                       -171.0230443117651475
  @DF-RHF Final Energy:  -171.02274670399211
    Total Energy =                       -171.0227467039921123
  @DF-RHF Final Energy:  -171.02256071105990
    Total Energy =                       -171.0225607110599526
  @DF-RHF Final Energy:  -171.02246653798153
    Total Energy =                       -171.0224665379814724
  @DF-RHF Final Energy:  -171.02309023413903
    Total Energy =                       -171.0230902341390902
  @DF-RHF Final Energy:  -171.02128130918862
    Total Energy =                       -171.0212813091885948
  @DF-RHF Final Energy:  -171.01465091333139
    Total Energy =                       -171.0146509133313657
  @DF-RHF Final Energy:  -171.02093280120954
    Total Energy =                       -171.0209328012094829
  @DF-RHF Final Energy:  -171.02114300889906
    Total Energy =                       -171.0211430088991733
  @DF-RHF Final Energy:  -171.02288965670220
    Total Energy =                       -171.0228896567022332
  Basis Set: CC-PVTZ
  Basis Set:
  @DF-RHF Final Energy:  -171.02340029919606
    Total Energy =                       -171.0234002991960551
  Basis Set: CC-PVTZ
  Basis Set:
  Basis Set: CC-PVTZ
  Basis Set:
  @DF-RHF Final Energy:  -171.02235584390880
    Total Energy =                       -171.0223558439088265
  Basis Set: CC-PVTZ
  Basis Set:
  Basis Set: CC-PVTZ
  Basis Set:
  @DF-RHF Final Energy:  -171.02323079396928
    Total Energy =                       -171.0232307939692475
  Basis Set: CC-PVTZ
  Basis Set:
  Charge       = 0
  Multiplicity = 1
  Basis Set: CC-PVTZ
  Basis Set:

    Orbital Energies (a.u.)
    -----------------------

    Doubly Occupied:

       1A    -15.559751     2A    -11.282908     3A    -11.264153
       4A    -11.244829     5A     -1.225271     6A     -1.084730
       7A     -0.912690     8A     -0.702634     9A     -0.661300
      10A     -0.589224    11A     -0.563149    12A     -0.545250
      13A     -0.540337    14A     -0.461482    15A     -0.461380

  @DF-RHF Final Energy:  -171.02262388525895

   => Energetics <=

    Nuclear Repulsion Energy =            103.4874029255117449
    One-Electron Energy =                -434.8218774670029347
    Two-Electron Energy =                 160.3118506562322239
    DFT Exchange-Correlation Energy =       0.0000000000000000
    Empirical Dispersion Energy =           0.0000000000000000
    PCM Polarization Energy =               0.0000000000000000
    EFP Energy =                            0.0000000000000000
    Total Energy =                       -171.0226238852589802
    Molecular point group: c1
  Basis Set: CC-PVTZ
  Basis Set:

  -Total Gradient:
     Atom            X                  Y                   Z
    ------   -----------------  -----------------  -----------------
       1       -0.000671079017     0.000913899089     0.000291462403
       2        0.002131859414    -0.001447452764     0.000244186466
       3        0.003452678285     0.005147829889     0.001592609050
       4        0.000397043887     0.000096207622    -0.000393542383
       5        0.000027067082    -0.000557403130     0.000207802219
       6       -0.027769794340    -0.003020151156    -0.003837250927
       7       -0.001276249172     0.000894003394     0.000261388948
       8       -0.000858787312     0.000476254015    -0.000135539390
       9        0.024567261171    -0.002503186958     0.001768883613

    Molecular point group: c1

    Geometry (in Angstrom), charge = 0, multiplicity = 1:

    H           -2.605026669428     0.107751557297    -0.443949516166
    C           -1.615001244603    -0.327895889545    -0.466688545817
    C           -0.620816559202     0.618998515589     0.205598410387
    H           -1.345164834348    -0.507674740402    -1.498709444876
    H           -1.650681461906    -1.280657766032     0.044503476377
    C            0.753347396245     0.102909194890     0.230720481186
    H           -0.593920216838     1.573171467184    -0.303088334558
    H           -0.897727751010     0.804272119825     1.233889346238
    N            1.780870758770    -0.387804667726     0.095647563044

  Mulliken Charges: (a.u.)
   Center  Symbol    Alpha    Beta     Spin     Total
       1     H     0.44657  0.44657  0.00000  0.10685
       2     C     3.13640  3.13640  0.00000 -0.27279
       3     C     3.07804  3.07804  0.00000 -0.15607
       4     H     0.44513  0.44513  0.00000  0.10973
       5     H     0.44515  0.44515  0.00000  0.10970
       6     C     3.04021  3.04021  0.00000 -0.08041
       7     H     0.43101  0.43101  0.00000  0.13797
       8     H     0.43153  0.43153  0.00000  0.13693
       9     N     3.54596  3.54596  0.00000 -0.09191

   Total alpha = 15.00000, Total beta = 15.00000, Total charge = -0.00000
