                              Psi4 1.0.54 Driver

  ==> Input File <==

--------------------------------------------------------------------------
set {
	reference rhf
	basis cc-pvtz
}

set_num_threads( 4 )
memory 2 gb

molecule MOL {
0 1

H	 -3.436473	 1.252944	 -1.023892
O	 -3.458596	 0.315260	 -0.960865
C	 -3.176635	 -0.080824	 0.355601
C	 -1.763371	 0.265266	 0.799691
H	 -3.321825	 -1.153438	 0.379502
H	 -3.895468	 0.357385	 1.043382
C	 -0.673390	 -0.426948	 -0.013392
H	 -1.631049	 1.344913	 0.747560
H	 -1.664587	 -0.001624	 1.849167
C	 0.737842	 -0.043159	 0.423759
H	 -0.806103	 -0.190518	 -1.063345
H	 -0.797221	 -1.503753	 0.074146
C	 0.954601	 1.467954	 0.474748
H	 0.935409	 -0.479192	 1.398301
H	 1.460220	 -0.484276	 -0.259938
C	 2.377556	 1.902593	 0.829906
H	 0.258836	 1.905971	 1.186719
H	 0.698723	 1.887702	 -0.494251
C	 2.816494	 1.552048	 2.249623
H	 2.450033	 2.978054	 0.699884
H	 3.073920	 1.464870	 0.119346
H	 2.134718	 1.971831	 2.982454
H	 3.804770	 1.947444	 2.455081
H	 2.855507	 0.481329	 2.409759

	symmetry c1
}
set optking {
	frozen_dihedral = ("
		13 10 7 11
	")
}

ee,wfn = optimize('scf', return_wfn=True)
oeprop( wfn, 'DIPOLE', 'QUADRUPOLE', 'MULLIKEN_CHARGES')
f=open( 'psi4out.xyz', 'w' )
f.write( "24  " )
f.write( str(ee) + "\n" )
f.write( MOL.save_string_xyz() )
f.close()
--------------------------------------------------------------------------

    Molecular point group: c1
  Charge       = 0
  Multiplicity = 1
  Basis Set: CC-PVTZ
  Basis Set:
  @DF-RHF Final Energy:  -349.37627215397487
    Total Energy =                       -349.3762721539748100
    Molecular point group: c1
  Basis Set: CC-PVTZ
  Basis Set:
  Basis Set: CC-PVTZ
  Basis Set:
  @DF-RHF Final Energy:  -349.28308791162334
    Total Energy =                       -349.2830879116233973
  Basis Set: CC-PVTZ
  Basis Set:
  Basis Set: CC-PVTZ
  Basis Set:
  @DF-RHF Final Energy:  -349.36321102997402
    Total Energy =                       -349.3632110299739679
  Basis Set: CC-PVTZ
  Basis Set:
  Basis Set: CC-PVTZ
  Basis Set:
  @DF-RHF Final Energy:  -349.37744830094579
    Total Energy =                       -349.3774483009456731
  Basis Set: CC-PVTZ
  Basis Set:
  @DF-RHF Final Energy:  -349.37787641613522
    Total Energy =                       -349.3778764161351660
  Basis Set: CC-PVTZ
  Basis Set:
  @DF-RHF Final Energy:  -349.37796835288179
    Total Energy =                       -349.3779683528813393
  Basis Set: CC-PVTZ
  Basis Set:
  Basis Set: CC-PVTZ
  Basis Set:
  @DF-RHF Final Energy:  -349.37796537815200
    Total Energy =                       -349.3779653781522825
  Basis Set: CC-PVTZ
  Basis Set:
  Basis Set: CC-PVTZ
  Basis Set:
  @DF-RHF Final Energy:  -349.37797525245827
    Total Energy =                       -349.3779752524584410
  Basis Set: CC-PVTZ
  Basis Set:
  Charge       = 0
  Multiplicity = 1
  Basis Set: CC-PVTZ
  Basis Set:

    Orbital Energies (a.u.)
    -----------------------

    Doubly Occupied:

       1A    -20.546068     2A    -11.265385     3A    -11.214883
       4A    -11.213074     5A    -11.211049     6A    -11.210433
       7A    -11.209599     8A    -11.205998     9A     -1.363900
      10A     -1.090274    11A     -1.048248    12A     -0.985445
      13A     -0.917603    14A     -0.854936    15A     -0.809843
      16A     -0.766238    17A     -0.680463    18A     -0.651088
      19A     -0.629591    20A     -0.619553    21A     -0.600150
      22A     -0.577334    23A     -0.573211    24A     -0.536163
      25A     -0.525285    26A     -0.511502    27A     -0.493886
      28A     -0.483223    29A     -0.472805    30A     -0.457840
      31A     -0.450115    32A     -0.441907    33A     -0.425348

  @DF-RHF Final Energy:  -349.37797590473889

   => Energetics <=

    Nuclear Repulsion Energy =            389.7934638585822427
    One-Electron Energy =               -1246.2579993718411515
    Two-Electron Energy =                 507.0865596085200764
    DFT Exchange-Correlation Energy =       0.0000000000000000
    Empirical Dispersion Energy =           0.0000000000000000
    PCM Polarization Energy =               0.0000000000000000
    EFP Energy =                            0.0000000000000000
    Total Energy =                       -349.3779759047387756
    Molecular point group: c1
  Basis Set: CC-PVTZ
  Basis Set:

  -Total Gradient:
     Atom            X                  Y                   Z
    ------   -----------------  -----------------  -----------------
       1        0.000016086947     0.000053054844    -0.000010726001
       2       -0.000021191133    -0.000026809066    -0.000039071047
       3        0.000000360882    -0.000008992650     0.000007000826
       4        0.000018219666     0.000043266374     0.000023560473
       5       -0.000023479665    -0.000047799772     0.000000790346
       6       -0.000000901410     0.000005903176     0.000024695514
       7       -0.000228376885     0.003537606532     0.001646218271
       8        0.000009918530     0.000050653121     0.000002299865
       9       -0.000010208473    -0.000004331847     0.000024528827
      10        0.001070552647    -0.001095164946    -0.002904160731
      11       -0.000062528394    -0.002774952957    -0.000699808828
      12        0.000013344781    -0.000043672918    -0.000003696497
      13       -0.000779242627     0.000333813088     0.001951729095
      14       -0.000003421679    -0.000026290837     0.000019918365
      15       -0.000015725474    -0.000013951498    -0.000009996848
      16        0.000001600440    -0.000037388828    -0.000025956544
      17       -0.000008218985     0.000028804136     0.000007050099
      18        0.000006795263     0.000010855417    -0.000018704210
      19       -0.000016966577     0.000025784749     0.000011557812
      20        0.000007867923     0.000045794625     0.000007543835
      21        0.000033606279    -0.000021179785    -0.000043347424
      22       -0.000009754912     0.000020023740     0.000033840272
      23        0.000029697621    -0.000002245337    -0.000003107295
      24       -0.000028034772    -0.000052779360    -0.000002158176

  **** Optimization is complete! (in 9 steps) ****
    Final optimized geometry and variables:
    Molecular point group: c1

    Geometry (in Angstrom), charge = 0, multiplicity = 1:

    H           -2.731956423250     1.631970283341    -1.809413686757
    O           -3.034281790210     0.746188472400    -1.721244413897
    C           -2.963042394630     0.349596023927    -0.377053932798
    C           -1.540489850096     0.295304624445     0.160647336797
    H           -3.415531567426    -0.633024562413    -0.334467283349
    H           -3.564580719560     1.009366810503     0.243320387159
    C           -0.657259249454    -0.717933392656    -0.562771563287
    H           -1.108179949303     1.290551517143     0.099941010330
    H           -1.590546834317     0.048433710699     1.219100553644
    C            0.743163998979    -0.905813164075     0.027542738910
    H           -0.579943129763    -0.460391475871    -1.613509330530
    H           -1.159616295491    -1.682093736156    -0.541399803046
    C            1.563492268844     0.377480528523     0.166948899918
    H            0.650491843346    -1.380538520654     1.000124676257
    H            1.285626604614    -1.606699025944    -0.600947826411
    C            3.029944700105     0.151598331961     0.540973190674
    H            1.109682717522     1.027969533133     0.908490268557
    H            1.530257794998     0.919472399558    -0.775331048220
    C            3.247695705127    -0.457306605167     1.924185771881
    H            3.546624962297     1.105618246539     0.496016101645
    H            3.497566343777    -0.481432129977    -0.208532918260
    H            2.782457608968     0.149553020342     2.694711096013
    H            4.305394005901    -0.524436576915     2.152218660549
    H            2.835417309755    -1.456501455677     1.996613854823

  Mulliken Charges: (a.u.)
   Center  Symbol    Alpha    Beta     Spin     Total
       1     H     0.39517  0.39517  0.00000  0.20967
       2     O     4.20396  4.20396  0.00000 -0.40792
       3     C     2.97736  2.97736  0.00000  0.04529
       4     C     3.10503  3.10503  0.00000 -0.21006
       5     H     0.45811  0.45811  0.00000  0.08378
       6     H     0.46057  0.46057  0.00000  0.07886
       7     C     3.09272  3.09272  0.00000 -0.18545
       8     H     0.45671  0.45671  0.00000  0.08659
       9     H     0.45247  0.45247  0.00000  0.09506
      10     C     3.10074  3.10074  0.00000 -0.20148
      11     H     0.44566  0.44566  0.00000  0.10868
      12     H     0.45085  0.45085  0.00000  0.09830
      13     C     3.09764  3.09764  0.00000 -0.19528
      14     H     0.45269  0.45269  0.00000  0.09462
      15     H     0.44799  0.44799  0.00000  0.10403
      16     C     3.08937  3.08937  0.00000 -0.17874
      17     H     0.45226  0.45226  0.00000  0.09549
      18     H     0.44974  0.44974  0.00000  0.10053
      19     C     3.15297  3.15297  0.00000 -0.30594
      20     H     0.44902  0.44902  0.00000  0.10196
      21     H     0.45423  0.45423  0.00000  0.09155
      22     H     0.45557  0.45557  0.00000  0.08886
      23     H     0.44628  0.44628  0.00000  0.10744
      24     H     0.45291  0.45291  0.00000  0.09419

   Total alpha = 33.00000, Total beta = 33.00000, Total charge = -0.00000

*** Psi4 exiting successfully. Buy a developer a beer!
