  ==> Input File <==

--------------------------------------------------------------------------
set {
	reference rhf
	basis 6-31G*
}

set_num_threads( 1 )
memory 2 gb

molecule MOL {
0 1

H	 -2.770136	 0.391341	 0.716789
C	 -2.370475	 1.364908	 0.440060
O	 -0.987993	 1.323701	 0.290454
H	 -2.792755	 1.659207	 -0.510840
H	 -2.670247	 2.088680	 1.196842
C	 -0.299904	 0.962487	 1.446009
C	 1.173592	 0.845747	 1.133940
H	 -0.443361	 1.715103	 2.222338
H	 -0.661509	 0.010898	 1.830357
O	 1.392611	 -0.295398	 0.366430
H	 1.499410	 1.737832	 0.602871
H	 1.734176	 0.786700	 2.067724
C	 2.706965	 -0.449871	 -0.062409
H	 2.756559	 -0.644779	 -1.131878
H	 3.305899	 0.433456	 0.155466
H	 3.125548	 -1.294566	 0.467107

	symmetry c1
}
set optking {
	frozen_dihedral = ("
		3 6 7 11,
		2 3 6 7
	")
}

ee = energy('scf')
oeprop('DIPOLE', 'QUADRUPOLE', 'MULLIKEN_CHARGES')
f=open( 'psi4out.xyz', 'w' )
f.write( "16  " )
f.write( str(ee) + "\n" )
f.write( MOL.save_string_xyz() )
f.close()
--------------------------------------------------------------------------

    Molecular point group: c1

    Geometry (in Angstrom), charge = 0, multiplicity = 1:

       Center              X                  Y                   Z               Mass
    ------------   -----------------  -----------------  -----------------  -----------------
           H         -3.037730020268    -0.231128241947     0.120857774712     1.007825032070
           C         -2.638069020268     0.742438758053    -0.155871225288    12.000000000000
           O         -1.255587020268     0.701231758053    -0.305477225288    15.994914619560
           H         -3.060349020268     1.036737758053    -1.106771225288     1.007825032070
           H         -2.937841020268     1.466210758053     0.600910774712     1.007825032070
           C         -0.567498020268     0.340017758053     0.850077774712    12.000000000000
           C          0.905997979732     0.223277758053     0.538008774712    12.000000000000
           H         -0.710955020268     1.092633758053     1.626406774712     1.007825032070
           H         -0.929103020268    -0.611571241947     1.234425774712     1.007825032070
           O          1.125016979732    -0.917867241947    -0.229501225288    15.994914619560
           H          1.231815979732     1.115362758053     0.006939774712     1.007825032070
           H          1.466581979732     0.164230758053     1.471792774712     1.007825032070
           C          2.439370979732    -1.072340241947    -0.658340225288    12.000000000000
           H          2.488964979732    -1.267248241947    -1.727809225288     1.007825032070
           H          3.038304979732    -0.189013241947    -0.440465225288     1.007825032070
           H          2.857953979732    -1.917035241947    -0.128824225288     1.007825032070

  Charge       = 0
  Multiplicity = 1
  Basis Set: 6-31G*
  Basis Set:

    Orbital Energies (a.u.)
    -----------------------

    Doubly Occupied:

       1A    -20.553373     2A    -20.550290     3A    -11.269450
       4A    -11.268218     5A    -11.263376     6A    -11.262538
       7A     -1.387568     8A     -1.369904     9A     -1.030343
      10A     -0.935368    11A     -0.892117    12A     -0.824894
      13A     -0.682498    14A     -0.679811    15A     -0.657439
      16A     -0.633884    17A     -0.629376    18A     -0.596340
      19A     -0.553072    20A     -0.537743    21A     -0.506814
      22A     -0.478036    23A     -0.463303    24A     -0.417523
      25A     -0.406987

  @DF-RHF Final Energy:  -306.97324055545556

   => Energetics <=

    Nuclear Repulsion Energy =            258.8680514374133850
    One-Electron Energy =                -931.9819639584843571
    Two-Electron Energy =                 366.1406719656152404
    DFT Exchange-Correlation Energy =       0.0000000000000000
    Empirical Dispersion Energy =           0.0000000000000000
    PCM Polarization Energy =               0.0000000000000000
    EFP Energy =                            0.0000000000000000
    Total Energy =                       -306.9732405554556749

  Mulliken Charges: (a.u.)
   Center  Symbol    Alpha    Beta     Spin     Total
       1     H     0.42806  0.42806  0.00000  0.14387
       2     C     3.07945  3.07945  0.00000 -0.15890
       3     O     4.30088  4.30088  0.00000 -0.60176
       4     H     0.41135  0.41135  0.00000  0.17730
       5     H     0.43195  0.43195  0.00000  0.13611
       6     C     2.99349  2.99349  0.00000  0.01302
       7     C     2.99522  2.99522  0.00000  0.00955
       8     H     0.43243  0.43243  0.00000  0.13515
       9     H     0.42277  0.42277  0.00000  0.15445
      10     O     4.30297  4.30297  0.00000 -0.60594
      11     H     0.42168  0.42168  0.00000  0.15663
      12     H     0.43235  0.43235  0.00000  0.13529
      13     C     3.07686  3.07686  0.00000 -0.15371
      14     H     0.41722  0.41722  0.00000  0.16557
      15     H     0.43057  0.43057  0.00000  0.13887
      16     H     0.42275  0.42275  0.00000  0.15449

   Total alpha = 25.00000, Total beta = 25.00000, Total charge = -0.00000
