  ==> Input File <==

--------------------------------------------------------------------------
set {
	reference rhf
	basis 6-31G*
}

set_num_threads( 4 )
memory 2 gb

molecule MOL {
0 1

H	 5.283091	 1.167605	 0.921202
C	 4.741649	 0.494557	 0.263655
C	 3.267180	 0.407065	 0.655395
H	 4.853474	 0.863125	 -0.751724
H	 5.222192	 -0.478556	 0.317781
C	 2.475090	 -0.540216	 -0.248523
H	 2.826465	 1.397918	 0.615631
H	 3.188886	 0.068794	 1.687448
C	 0.999077	 -0.662303	 0.130617
H	 2.548004	 -0.206706	 -1.277648
H	 2.922425	 -1.530646	 -0.204008
C	 0.169600	 0.576866	 -0.172154
H	 0.544203	 -1.482454	 -0.422748
H	 0.887760	 -0.919603	 1.181608
C	 -1.181045	 0.701995	 0.511084
O	 0.551730	 1.415305	 -0.932024
C	 -2.285934	 -0.139295	 -0.145128
H	 -1.449051	 1.751551	 0.493206
H	 -1.071135	 0.403303	 1.551943
C	 -3.651768	 0.085446	 0.506485
H	 -2.346596	 0.110469	 -1.202272
H	 -2.034737	 -1.195320	 -0.088721
C	 -4.759797	 -0.746382	 -0.137905
H	 -3.908762	 1.140117	 0.445781
H	 -3.588286	 -0.154158	 1.565709
H	 -4.868882	 -0.505166	 -1.191300
H	 -4.548009	 -1.809175	 -0.062213
H	 -5.715422	 -0.564821	 0.343442

	symmetry c1
}
set optking {
	frozen_dihedral = ("
		16 12 15 17
	")
}

ee = optimize('scf')
oeprop('DIPOLE', 'QUADRUPOLE', 'MULLIKEN_CHARGES')
f=open( 'psi4out.xyz', 'w' )
f.write( "28  " )
f.write( str(ee) + "\n" )
f.write( MOL.save_string_xyz() )
f.close()
--------------------------------------------------------------------------

    Molecular point group: c1
  Charge       = 0
  Multiplicity = 1
  Basis Set: 6-31G*
  Basis Set:
  @DF-RHF Final Energy:  -426.16891947325371
    Total Energy =                       -426.1689194732534816
    Molecular point group: c1
  Basis Set: 6-31G*
  Basis Set:
  Basis Set: 6-31G*
  Basis Set:
  @DF-RHF Final Energy:  -426.16744146114775
    Total Energy =                       -426.1674414611479733
  Basis Set: 6-31G*
  Basis Set:
  Basis Set: 6-31G*
  Basis Set:
  @DF-RHF Final Energy:  -426.16910163507464
    Total Energy =                       -426.1691016350747532
  Basis Set: 6-31G*
  Basis Set:
  Basis Set: 6-31G*
  Basis Set:
  @DF-RHF Final Energy:  -426.16904710461040
    Total Energy =                       -426.1690471046101720
  Basis Set: 6-31G*
  Basis Set:
  @DF-RHF Final Energy:  -426.16891887832128
    Total Energy =                       -426.1689188783218469
  @DF-RHF Final Energy:  -426.16922061740672
    Total Energy =                       -426.1692206174066087
  Basis Set: 6-31G*
  Basis Set:
  @DF-RHF Final Energy:  -426.16922834482443
    Total Energy =                       -426.1692283448248872
  Basis Set: 6-31G*
  Basis Set:
  Basis Set: 6-31G*
  Basis Set:
  @DF-RHF Final Energy:  -426.16923087825739
    Total Energy =                       -426.1692308782576220
  Basis Set: 6-31G*
  Basis Set:
  Basis Set: 6-31G*
  Basis Set:
  @DF-RHF Final Energy:  -426.16923250516209
    Total Energy =                       -426.1692325051624266
  Basis Set: 6-31G*
  Basis Set:
  Charge       = 0
  Multiplicity = 1
  Basis Set: 6-31G*
  Basis Set:

    Orbital Energies (a.u.)
    -----------------------

    Doubly Occupied:

       1A    -20.548354     2A    -11.322324     3A    -11.231954
       4A    -11.230252     5A    -11.228616     6A    -11.225617
       7A    -11.216027     8A    -11.215792     9A    -11.210559
      10A    -11.204702    11A     -1.393463    12A     -1.094091
      13A     -1.076977    14A     -1.022391    15A     -0.990512
      16A     -0.907862    17A     -0.871144    18A     -0.808726
      19A     -0.797982    20A     -0.724293    21A     -0.669879
      22A     -0.651350    23A     -0.629669    24A     -0.617400
      25A     -0.607835    26A     -0.588890    27A     -0.575022
      28A     -0.573042    29A     -0.541923    30A     -0.534177
      31A     -0.521118    32A     -0.504370    33A     -0.501917
      34A     -0.484016    35A     -0.477432    36A     -0.476121
      37A     -0.470174    38A     -0.463772    39A     -0.454408
      40A     -0.392170

  @DF-RHF Final Energy:  -426.16923324812240

   => Energetics <=

    Nuclear Repulsion Energy =            530.3803020458609581
    One-Electron Energy =               -1628.9864181379425645
    Two-Electron Energy =                 672.4368828439589834
    DFT Exchange-Correlation Energy =       0.0000000000000000
    Empirical Dispersion Energy =           0.0000000000000000
    PCM Polarization Energy =               0.0000000000000000
    EFP Energy =                            0.0000000000000000
    Total Energy =                       -426.1692332481227368
    Molecular point group: c1
  Basis Set: 6-31G*
  Basis Set:

  -Total Gradient:
     Atom            X                  Y                   Z
    ------   -----------------  -----------------  -----------------
       1        0.000002211048     0.000001120022    -0.000000580725
       2        0.000000205192     0.000006989114     0.000001327683
       3        0.000007333576    -0.000006164159    -0.000001076790
       4       -0.000000633010    -0.000001880004     0.000000027195
       5       -0.000000822773     0.000000329434     0.000001976970
       6        0.000003870726    -0.000006888496     0.000005653079
       7        0.000003028755    -0.000000569755    -0.000001988152
       8       -0.000002062835    -0.000000185694     0.000000790619
       9       -0.000002078862    -0.000006396964    -0.000012722483
      10       -0.000003774064    -0.000002223499     0.000003126722
      11        0.000009508811     0.000004089193    -0.000001139637
      12       -0.000224604189    -0.000430196916    -0.000449517024
      13       -0.000007048576    -0.000005962010     0.000003032300
      14        0.000002004832     0.000002404834    -0.000005283186
      15       -0.000032109448     0.000479661024    -0.000135044508
      16        0.000175839645     0.000237664170     0.000384665400
      17        0.000071220215    -0.000271558686     0.000200507346
      18       -0.000006218206     0.000000400899     0.000003207672
      19        0.000001462062     0.000001397092    -0.000003082081
      20        0.000000200787    -0.000002155855     0.000007170987
      21        0.000003926028    -0.000002557587    -0.000000017854
      22       -0.000001545265     0.000001917118    -0.000000873624
      23        0.000000769121     0.000001225018    -0.000002251801
      24       -0.000001226354    -0.000000269799     0.000000272528
      25       -0.000000826565    -0.000000152121     0.000001289740
      26        0.000001105946    -0.000001249074    -0.000000700470
      27       -0.000000797520    -0.000000592403     0.000001499052
      28        0.000001060929     0.000001805102    -0.000000268956

  **** Optimization is complete! (in 10 steps) ****
    Final optimized geometry and variables:
    Molecular point group: c1

    Geometry (in Angstrom), charge = 0, multiplicity = 1:

    H            5.357444637547     0.912371979441     0.561157997866
    C            4.726378676255     0.239350813776    -0.010989716923
    C            3.296202327443     0.232302963141     0.527216790909
    H            4.750984753518     0.564060399513    -1.047046269145
    H            5.170799320491    -0.751224247285     0.036466204349
    C            2.381386385673    -0.715329976057    -0.252070644185
    H            2.892179686064     1.237928436018     0.488315608310
    H            3.308426431706    -0.062842036052     1.575325900859
    C            0.945537404908    -0.756382649374     0.270599399936
    H            2.369221871204    -0.429974244668    -1.298475705625
    H            2.791211777825    -1.721765634888    -0.204130410195
    C            0.120469357371     0.481718905774    -0.043491872155
    H            0.416836044770    -1.607007907209    -0.156348921266
    H            0.930588682904    -0.916813780605     1.346840564256
    C           -1.268767961621     0.567858722371     0.566514357565
    O            0.524524229774     1.346545371761    -0.761326626995
    C           -2.295298857964    -0.288025421616    -0.193140755132
    H           -1.566579518460     1.609247773189     0.536146982381
    H           -1.235148420967     0.254846464668     1.607025432056
    C           -3.711330811168    -0.132072277614     0.364418558474
    H           -2.285849042244    -0.002899279741    -1.242246236661
    H           -2.010198871553    -1.336462722253    -0.151657395535
    C           -4.739485077204    -0.977139378299    -0.386451235967
    H           -4.000626873912     0.915015807452     0.319085772596
    H           -3.716105925019    -0.406507655221     1.417063457879
    H           -4.780210660808    -0.703028649112    -1.436592805669
    H           -4.496070343961    -2.034328388591    -0.329789010665
    H           -5.733350885246    -0.844217641449     0.028912901509

  Mulliken Charges: (a.u.)
   Center  Symbol    Alpha    Beta     Spin     Total
       1     H     0.41944  0.41944  0.00000  0.16112
       2     C     3.24025  3.24025  0.00000 -0.48049
       3     C     3.15613  3.15613  0.00000 -0.31227
       4     H     0.41863  0.41863  0.00000  0.16275
       5     H     0.42405  0.42405  0.00000  0.15190
       6     C     3.14855  3.14855  0.00000 -0.29710
       7     H     0.40787  0.40787  0.00000  0.18426
       8     H     0.42813  0.42813  0.00000  0.14374
       9     C     3.21245  3.21245  0.00000 -0.42491
      10     H     0.40842  0.40842  0.00000  0.18317
      11     H     0.42221  0.42221  0.00000  0.15559
      12     C     2.73563  2.73563  0.00000  0.52873
      13     H     0.40449  0.40449  0.00000  0.19103
      14     H     0.41091  0.41091  0.00000  0.17818
      15     C     3.19821  3.19821  0.00000 -0.39643
      16     O     4.26583  4.26583  0.00000 -0.53165
      17     C     3.16294  3.16294  0.00000 -0.32589
      18     H     0.40022  0.40022  0.00000  0.19955
      19     H     0.41532  0.41532  0.00000  0.16936
      20     C     3.15172  3.15172  0.00000 -0.30344
      21     H     0.41057  0.41057  0.00000  0.17886
      22     H     0.41981  0.41981  0.00000  0.16039
      23     C     3.24040  3.24040  0.00000 -0.48080
      24     H     0.41853  0.41853  0.00000  0.16294
      25     H     0.42176  0.42176  0.00000  0.15649
      26     H     0.41922  0.41922  0.00000  0.16156
      27     H     0.42125  0.42125  0.00000  0.15750
      28     H     0.41706  0.41706  0.00000  0.16587

   Total alpha = 40.00000, Total beta = 40.00000, Total charge =  0.00000
