                              Psi4 1.0.54 Driver

  ==> Input File <==

--------------------------------------------------------------------------
set {
	reference rhf
	basis cc-pvtz
}

set_num_threads( 4 )
memory 2 gb

molecule MOL {
0 1

H	 2.614283	 2.028610	 0.296620
O	 3.358864	 1.662087	 -0.142800
C	 3.565468	 0.338079	 0.273842
C	 4.279483	 0.228039	 1.612782
H	 2.581407	 -0.104223	 0.351130
H	 4.109918	 -0.218454	 -0.486615
C	 5.716728	 0.743835	 1.601427
H	 3.702700	 0.768634	 2.357252
H	 4.275198	 -0.818299	 1.908681
C	 6.411751	 0.586921	 2.953151
H	 5.720153	 1.789582	 1.312632
H	 6.285709	 0.207938	 0.843560
C	 7.878783	 1.019782	 2.979683
H	 5.859390	 1.144845	 3.705378
H	 6.356441	 -0.456650	 3.250421
C	 8.114678	 2.517081	 2.789442
H	 8.304952	 0.721551	 3.933604
H	 8.428656	 0.469689	 2.219293
C	 9.583204	 2.912099	 2.922866
H	 7.528589	 3.067600	 3.522174
H	 7.755079	 2.831090	 1.814204
C	 9.822758	 4.405826	 2.729767
H	 9.947620	 2.612905	 3.901774
H	 10.171318	 2.356653	 2.197150
H	 9.272986	 4.988191	 3.461777
H	 10.873337	 4.652084	 2.833437
H	 9.503271	 4.729744	 1.744699

	symmetry c1
}
set optking {
	frozen_dihedral = ("
		4 3 2 1
	")
}

ee,wfn = optimize('scf', return_wfn=True)
oeprop( wfn, 'DIPOLE', 'QUADRUPOLE', 'MULLIKEN_CHARGES')
f=open( 'psi4out.xyz', 'w' )
f.write( "27  " )
f.write( str(ee) + "\n" )
f.write( MOL.save_string_xyz() )
f.close()
--------------------------------------------------------------------------

    Molecular point group: c1
  Charge       = 0
  Multiplicity = 1
  Basis Set: CC-PVTZ
  Basis Set:
  @DF-RHF Final Energy:  -388.42625402759580
    Total Energy =                       -388.4262540275954052
    Molecular point group: c1
  Basis Set: CC-PVTZ
  Basis Set:
  Basis Set: CC-PVTZ
  Basis Set:
  @DF-RHF Final Energy:  -388.40964305997943
    Total Energy =                       -388.4096430599792029
  Basis Set: CC-PVTZ
  Basis Set:
  Basis Set: CC-PVTZ
  Basis Set:
  @DF-RHF Final Energy:  -388.42764458656825
    Total Energy =                       -388.4276445865684764
  Basis Set: CC-PVTZ
  Basis Set:
  Basis Set: CC-PVTZ
  Basis Set:
  @DF-RHF Final Energy:  -388.42780129030405
    Total Energy =                       -388.4278012903040462
  Basis Set: CC-PVTZ
  Basis Set:
  Basis Set: CC-PVTZ
  Basis Set:
  @DF-RHF Final Energy:  -388.42799479022676
    Total Energy =                       -388.4279947902263075
  Basis Set: CC-PVTZ
  Basis Set:
  Basis Set: CC-PVTZ
  Basis Set:
  @DF-RHF Final Energy:  -388.42798917952075
    Total Energy =                       -388.4279891795205231
  Basis Set: CC-PVTZ
  Basis Set:
  Basis Set: CC-PVTZ
  Basis Set:
  @DF-RHF Final Energy:  -388.42799956632888
    Total Energy =                       -388.4279995663295040
  Basis Set: CC-PVTZ
  Basis Set:
  Charge       = 0
  Multiplicity = 1
  Basis Set: CC-PVTZ
  Basis Set:

    Orbital Energies (a.u.)
    -----------------------

    Doubly Occupied:

       1A    -20.546460     2A    -11.265831     3A    -11.213051
       4A    -11.209718     5A    -11.209450     6A    -11.208332
       7A    -11.206657     8A    -11.206627     9A    -11.203537
      10A     -1.364001    11A     -1.091125    12A     -1.058704
      13A     -1.009600    14A     -0.944870    15A     -0.883045
      16A     -0.818968    17A     -0.799860    18A     -0.774103
      19A     -0.689047    20A     -0.649880    21A     -0.641029
      22A     -0.607947    23A     -0.604263    24A     -0.585052
      25A     -0.570116    26A     -0.555405    27A     -0.535691
      28A     -0.521374    29A     -0.511243    30A     -0.490521
      31A     -0.477320    32A     -0.469184    33A     -0.465519
      34A     -0.457209    35A     -0.452339    36A     -0.439103
      37A     -0.422093

  @DF-RHF Final Energy:  -388.42799963253981

   => Energetics <=

    Nuclear Repulsion Energy =            460.2957949011358778
    One-Electron Energy =               -1439.1310482608380426
    Two-Electron Energy =                 590.4072537271621286
    DFT Exchange-Correlation Energy =       0.0000000000000000
    Empirical Dispersion Energy =           0.0000000000000000
    PCM Polarization Energy =               0.0000000000000000
    EFP Energy =                            0.0000000000000000
    Total Energy =                       -388.4279996325400361
    Molecular point group: c1
  Basis Set: CC-PVTZ
  Basis Set:

  -Total Gradient:
     Atom            X                  Y                   Z
    ------   -----------------  -----------------  -----------------
       1       -0.000597710409    -0.000435730969    -0.000810046375
       2        0.001002531932     0.000500594670     0.000894851701
       3       -0.001049769643     0.000060901737     0.000143913319
       4        0.000646358208    -0.000143649907    -0.000214839584
       5       -0.000002765035     0.000013943148    -0.000008170183
       6        0.000004860500    -0.000009023934    -0.000015966895
       7       -0.000006075612     0.000008101580     0.000006443601
       8       -0.000006107826     0.000007090354     0.000006697538
       9       -0.000001943066    -0.000010825282     0.000006567849
      10        0.000004331311     0.000006092980    -0.000005749776
      11        0.000005340544     0.000019891229    -0.000006838406
      12        0.000007864378    -0.000006693498    -0.000002015628
      13        0.000004220599    -0.000007560228     0.000001306530
      14       -0.000008195163     0.000008920667     0.000005082004
      15       -0.000001156965    -0.000007745240     0.000000582077
      16       -0.000004085325     0.000008036005     0.000007357141
      17       -0.000002294079    -0.000001341031     0.000008894812
      18        0.000013466124    -0.000010595881    -0.000002691085
      19        0.000001395925    -0.000008318764    -0.000006787422
      20       -0.000008747294     0.000011563341     0.000006093245
      21       -0.000001412241     0.000002948338    -0.000011476826
      22       -0.000000396188    -0.000002926594    -0.000001738627
      23       -0.000003514594    -0.000002590562     0.000007737939
      24        0.000011381509    -0.000011607135    -0.000005024589
      25       -0.000007254044     0.000010833166     0.000005212877
      26       -0.000000431286    -0.000003232282     0.000002167772
      27        0.000000107740     0.000002924095    -0.000011563009

  **** Optimization is complete! (in 8 steps) ****
    Final optimized geometry and variables:
    Molecular point group: c1

    Geometry (in Angstrom), charge = 0, multiplicity = 1:

    H           -3.453985339468     0.286045265658    -2.223659302279
    O           -2.710534408516    -0.237495077476    -2.459488533218
    C           -2.743420035170    -1.458570052046    -1.766106610174
    C           -2.240370707424    -1.344475040575    -0.335043623393
    H           -3.748048461498    -1.872344633582    -1.774827152570
    H           -2.112531802415    -2.138522749690    -2.325445832802
    C           -0.782907396866    -0.904324169450    -0.231322104145
    H           -2.873664977767    -0.645004657610     0.207533895277
    H           -2.368795198466    -2.310876809977     0.147121330193
    C           -0.309494675457    -0.760443287863     1.213870262678
    H           -0.662299262644     0.030382751134    -0.763497078075
    H           -0.156167364226    -1.632684593821    -0.741776234089
    C            1.170563931772    -0.407691902783     1.373347512131
    H           -0.912369653796    -0.006898644044     1.715930519663
    H           -0.497760320643    -1.694219536673     1.737375399450
    C            1.559763655000     0.981140434359     0.870256226912
    H            1.428497366881    -0.478994112622     2.426581608624
    H            1.773521297055    -1.156092036525     0.864103337640
    C            3.025395090023     1.321027217174     1.128104808339
    H            0.930370253475     1.725559817899     1.353496171628
    H            1.362903875134     1.060772456926    -0.194157061975
    C            3.417396831170     2.706441372770     0.625262267901
    H            3.227771825423     1.254461053956     2.193695002686
    H            3.655446008070     0.574395129194     0.652116930140
    H            2.827527526598     3.479076094505     1.107432620744
    H            4.462187071065     2.916156422211     0.824449665333
    H            3.260969626647     2.793154677625    -0.444849469212

  Mulliken Charges: (a.u.)
   Center  Symbol    Alpha    Beta     Spin     Total
       1     H     0.39480  0.39480  0.00000  0.21040
       2     O     4.20317  4.20317  0.00000 -0.40634
       3     C     2.98119  2.98119  0.00000  0.03762
       4     C     3.09555  3.09555  0.00000 -0.19110
       5     H     0.45953  0.45953  0.00000  0.08095
       6     H     0.45925  0.45925  0.00000  0.08149
       7     C     3.09147  3.09147  0.00000 -0.18294
       8     H     0.45955  0.45955  0.00000  0.08091
       9     H     0.45431  0.45431  0.00000  0.09138
      10     C     3.09848  3.09848  0.00000 -0.19696
      11     H     0.44346  0.44346  0.00000  0.11308
      12     H     0.45596  0.45596  0.00000  0.08808
      13     C     3.09758  3.09758  0.00000 -0.19516
      14     H     0.45427  0.45427  0.00000  0.09145
      15     H     0.44990  0.44990  0.00000  0.10020
      16     C     3.08814  3.08814  0.00000 -0.17629
      17     H     0.44917  0.44917  0.00000  0.10167
      18     H     0.45402  0.45402  0.00000  0.09196
      19     C     3.08387  3.08387  0.00000 -0.16774
      20     H     0.45613  0.45613  0.00000  0.08774
      21     H     0.45142  0.45142  0.00000  0.09716
      22     C     3.14975  3.14975  0.00000 -0.29950
      23     H     0.45473  0.45473  0.00000  0.09054
      24     H     0.45482  0.45482  0.00000  0.09035
      25     H     0.45568  0.45568  0.00000  0.08864
      26     H     0.44897  0.44897  0.00000  0.10206
      27     H     0.45483  0.45483  0.00000  0.09033

   Total alpha = 37.00000, Total beta = 37.00000, Total charge = -0.00000

*** Psi4 exiting successfully. Buy a developer a beer!
