  ==> Input File <==

--------------------------------------------------------------------------
set {
	reference rhf
	basis cc-pvtz
}

set_num_threads( 4 )
memory 2 gb

molecule MOL {
0 1

H	 1.166964	 -1.062386	 0.758429
O	 1.324748	 -0.612467	 -0.052206
C	 0.706474	 0.636793	 -0.025501
C	 1.588502	 1.780552	 -0.439594
H	 0.374975	 0.793192	 0.994279
H	 -0.187860	 0.640224	 -0.645867
C	 2.872964	 1.703037	 -0.708770
H	 1.087103	 2.731900	 -0.508761
H	 3.410936	 0.777263	 -0.634605
H	 3.431533	 2.571874	 -1.000630

	symmetry c1
}
set optking {
	frozen_dihedral = ("
		5 3 2 1
	")
}

ee = optimize('scf')
oeprop('DIPOLE', 'QUADRUPOLE', 'MULLIKEN_CHARGES')
f=open( 'psi4out.xyz', 'w' )
f.write( "10  " )
f.write( str(ee) + "\n" )
f.write( MOL.save_string_xyz() )
f.close()
--------------------------------------------------------------------------

    Molecular point group: c1
  Charge       = 0
  Multiplicity = 1
  Basis Set: CC-PVTZ
  Basis Set:
  @DF-RHF Final Energy:  -191.99550824841259
    Total Energy =                       -191.9955082484124205
    Molecular point group: c1
  Basis Set: CC-PVTZ
  Basis Set:
  Basis Set: CC-PVTZ
  Basis Set:
  @DF-RHF Final Energy:  -191.99652791205179
    Total Energy =                       -191.9965279120518744
  Basis Set: CC-PVTZ
  Basis Set:
  Basis Set: CC-PVTZ
  Basis Set:
  @DF-RHF Final Energy:  -191.99684854191884
    Total Energy =                       -191.9968485419188937
  Basis Set: CC-PVTZ
  Basis Set:
  Basis Set: CC-PVTZ
  Basis Set:
  @DF-RHF Final Energy:  -191.99685334320955
    Total Energy =                       -191.9968533432095228
  Basis Set: CC-PVTZ
  Basis Set:
  Charge       = 0
  Multiplicity = 1
  Basis Set: CC-PVTZ
  Basis Set:

    Orbital Energies (a.u.)
    -----------------------

    Doubly Occupied:

       1A    -20.553268     2A    -11.278451     3A    -11.223634
       4A    -11.208292     5A     -1.373176     6A     -1.058368
       7A     -0.927189     8A     -0.758976     9A     -0.710528
      10A     -0.650342    11A     -0.615456    12A     -0.584995
      13A     -0.514751    14A     -0.501739    15A     -0.452706
      16A     -0.361229

  @DF-RHF Final Energy:  -191.99685396788732

   => Energetics <=

    Nuclear Repulsion Energy =            119.4814503429244610
    One-Electron Energy =                -497.4104098347449963
    Two-Electron Energy =                 185.9321055239331031
    DFT Exchange-Correlation Energy =       0.0000000000000000
    Empirical Dispersion Energy =           0.0000000000000000
    PCM Polarization Energy =               0.0000000000000000
    EFP Energy =                            0.0000000000000000
    Total Energy =                       -191.9968539678874322
    Molecular point group: c1
  Basis Set: CC-PVTZ
  Basis Set:

  -Total Gradient:
     Atom            X                  Y                   Z
    ------   -----------------  -----------------  -----------------
       1        0.000249644622     0.000135394297     0.000140675717
       2       -0.000399664227    -0.000177922573    -0.000186426088
       3        0.000371785981     0.000183442744     0.000058318366
       4       -0.000003699917    -0.000002681732     0.000049122960
       5       -0.000211168066    -0.000122435720    -0.000059266397
       6        0.000024400802    -0.000008302925     0.000002210745
       7       -0.000018602465    -0.000002304189     0.000063385559
       8       -0.000008405308     0.000011310313    -0.000015351129
       9        0.000007522742    -0.000008167506    -0.000020851740
      10       -0.000011814163    -0.000008332714    -0.000031817994

  **** Optimization is complete! (in 5 steps) ****
    Final optimized geometry and variables:
    Molecular point group: c1

    Geometry (in Angstrom), charge = 0, multiplicity = 1:

    H           -0.392041164824    -1.862313045599     1.017331985712
    O           -0.236698135855    -1.385946215636     0.224956302191
    C           -0.903413192423    -0.156638613888     0.255272226304
    C           -0.013772656619     0.980647541624    -0.150118768569
    H           -1.301457221400     0.045674104133     1.246689878124
    H           -1.756124757669    -0.191245708547    -0.418451220116
    C            1.262395573471     0.886561158499    -0.446817887889
    H           -0.506460299994     1.937891644797    -0.196106275107
    H            1.775023970110    -0.054646813925    -0.417526607530
    H            1.827277608683     1.753147049417    -0.734017686467

  Mulliken Charges: (a.u.)
   Center  Symbol    Alpha    Beta     Spin     Total
       1     H     0.38995  0.38995  0.00000  0.22011
       2     O     4.19789  4.19789  0.00000 -0.39579
       3     C     2.94422  2.94422  0.00000  0.11156
       4     C     3.07959  3.07959  0.00000 -0.15918
       5     H     0.47358  0.47358  0.00000  0.05284
       6     H     0.46745  0.46745  0.00000  0.06510
       7     C     3.17303  3.17303  0.00000 -0.34605
       8     H     0.42424  0.42424  0.00000  0.15152
       9     H     0.42013  0.42013  0.00000  0.15974
      10     H     0.42992  0.42992  0.00000  0.14015

   Total alpha = 16.00000, Total beta = 16.00000, Total charge = -0.00000
