                              Psi4 1.0.54 Driver

  ==> Input File <==

--------------------------------------------------------------------------
set {
	reference rhf
	basis cc-pvtz
}

set_num_threads( 4 )
memory 2 gb

molecule MOL {
0 1

O	 -2.071633	 -1.227563	 -0.223463
C	 -1.652164	 -0.152425	 0.058082
C	 -0.327811	 0.006324	 0.778296
C	 -2.402515	 1.108629	 -0.298924
C	 0.843231	 -0.001575	 -0.211665
H	 -0.319484	 0.928173	 1.350354
H	 -0.227804	 -0.823091	 1.466705
C	 1.069189	 1.357382	 -0.867720
H	 0.667166	 -0.746191	 -0.983833
H	 1.740866	 -0.307099	 0.314900
C	 2.240789	 1.357553	 -1.843689
H	 0.165170	 1.661064	 -1.388347
H	 1.242014	 2.101392	 -0.095632
H	 2.081064	 0.647263	 -2.648059
H	 3.165262	 1.088238	 -1.344503
H	 2.378054	 2.335828	 -2.289265
H	 -3.240910	 0.874416	 -0.936711
H	 -1.747554	 1.818823	 -0.790984
H	 -2.760419	 1.579708	 0.610998

	symmetry c1
}
set optking {
	frozen_dihedral = ("
		9 5 3 2
	")
}

ee,wfn = optimize('scf', return_wfn=True)
oeprop( wfn, 'DIPOLE', 'QUADRUPOLE', 'MULLIKEN_CHARGES')
f=open( 'psi4out.xyz', 'w' )
f.write( "19  " )
f.write( str(ee) + "\n" )
f.write( MOL.save_string_xyz() )
f.close()
--------------------------------------------------------------------------

    Molecular point group: c1
  Charge       = 0
  Multiplicity = 1
  Basis Set: CC-PVTZ
  Basis Set:
  @DF-RHF Final Energy:  -309.17243785387575
    Total Energy =                       -309.1724378538754650
    Molecular point group: c1
  Basis Set: CC-PVTZ
  Basis Set:
  Basis Set: CC-PVTZ
  Basis Set:
  @DF-RHF Final Energy:  -309.17407508522598
    Total Energy =                       -309.1740750852262636
  Basis Set: CC-PVTZ
  Basis Set:
  Basis Set: CC-PVTZ
  Basis Set:
  @DF-RHF Final Energy:  -309.17244229906663
    Total Energy =                       -309.1724422990665744
  Basis Set: CC-PVTZ
  Basis Set:
  Basis Set: CC-PVTZ
  Basis Set:
  @DF-RHF Final Energy:  -309.17478772645512
    Total Energy =                       -309.1747877264554063
  Basis Set: CC-PVTZ
  Basis Set:
  @DF-RHF Final Energy:  -309.17458502220603
    Total Energy =                       -309.1745850222059744
  @DF-RHF Final Energy:  -309.17546133143776
    Total Energy =                       -309.1754613314375320
  @DF-RHF Final Energy:  -309.17565169352440
    Total Energy =                       -309.1756516935245145
  @DF-RHF Final Energy:  -309.17633779874745
    Total Energy =                       -309.1763377987475110
  @DF-RHF Final Energy:  -309.17682436442590
    Total Energy =                       -309.1768243644257268
  @DF-RHF Final Energy:  -309.17718954517875
    Total Energy =                       -309.1771895451788055
  @DF-RHF Final Energy:  -309.17651776461162
    Total Energy =                       -309.1765177646116740
  @DF-RHF Final Energy:  -309.17787722362061
    Total Energy =                       -309.1778772236199302
  @DF-RHF Final Energy:  -309.17795935945850
    Total Energy =                       -309.1779593594585549
  @DF-RHF Final Energy:  -309.17804079717172
    Total Energy =                       -309.1780407971716045
  @DF-RHF Final Energy:  -309.17805585942347
    Total Energy =                       -309.1780558594235799
  @DF-RHF Final Energy:  -309.17806733258783
    Total Energy =                       -309.1780673325877160
  Basis Set: CC-PVTZ
  Basis Set:
  @DF-RHF Final Energy:  -309.17807545116221
    Total Energy =                       -309.1780754511621012
  Basis Set: CC-PVTZ
  Basis Set:
  Basis Set: CC-PVTZ
  Basis Set:
  @DF-RHF Final Energy:  -309.17807974056393
    Total Energy =                       -309.1780797405638737
  Basis Set: CC-PVTZ
  Basis Set:
  Basis Set: CC-PVTZ
  Basis Set:
  @DF-RHF Final Energy:  -309.17808107908377
    Total Energy =                       -309.1780810790833129
  Basis Set: CC-PVTZ
  Basis Set:
  Charge       = 0
  Multiplicity = 1
  Basis Set: CC-PVTZ
  Basis Set:

    Orbital Energies (a.u.)
    -----------------------

    Doubly Occupied:

       1A    -20.539703     2A    -11.321965     3A    -11.230849
       4A    -11.227396     5A    -11.215196     6A    -11.212701
       7A    -11.204921     8A     -1.400166     9A     -1.085192
      10A     -1.029929    11A     -0.983363    12A     -0.885518
      13A     -0.802403    14A     -0.730083    15A     -0.669325
      16A     -0.632158    17A     -0.627999    18A     -0.615172
      19A     -0.580025    20A     -0.571857    21A     -0.560812
      22A     -0.523598    23A     -0.516986    24A     -0.498265
      25A     -0.475538    26A     -0.468226    27A     -0.459342
      28A     -0.403811

  @DF-RHF Final Energy:  -309.17808128501844

   => Energetics <=

    Nuclear Repulsion Energy =            306.7032034786604413
    One-Electron Energy =               -1026.8175737918463710
    Two-Electron Energy =                 410.9362890281674936
    DFT Exchange-Correlation Energy =       0.0000000000000000
    Empirical Dispersion Energy =           0.0000000000000000
    PCM Polarization Energy =               0.0000000000000000
    EFP Energy =                            0.0000000000000000
    Total Energy =                       -309.1780812850183793
    Molecular point group: c1
  Basis Set: CC-PVTZ
  Basis Set:

  -Total Gradient:
     Atom            X                  Y                   Z
    ------   -----------------  -----------------  -----------------
       1       -0.000000756094     0.000027334470     0.000019788691
       2        0.000008562797    -0.001504287553     0.000540715716
       3       -0.000174672260     0.002364093489    -0.001226188946
       4       -0.000000073314    -0.000053719053     0.000045033422
       5        0.000973646186    -0.001997891892     0.002313659722
       6       -0.000004028639     0.000009941771     0.000001341388
       7       -0.000007486230    -0.000005323245     0.000013228072
       8        0.000005643096    -0.000007781613    -0.000002970784
       9       -0.000791982379     0.001107170047    -0.001671675153
      10        0.000011794499    -0.000004682980     0.000009116968
      11       -0.000000347258     0.000002214903     0.000000986441
      12       -0.000025719050     0.000007243969    -0.000019892873
      13       -0.000001034860     0.000006109721     0.000003715739
      14       -0.000006523649    -0.000004873720    -0.000002130543
      15        0.000013517688    -0.000003482409     0.000009547198
      16        0.000005897807     0.000012648657    -0.000007324919
      17       -0.000007241416    -0.000001227148    -0.000006843210
      18        0.000003833805     0.000029276683    -0.000017776529
      19       -0.000003030738     0.000017235902    -0.000002330397

  **** Optimization is complete! (in 20 steps) ****
    Final optimized geometry and variables:
    Molecular point group: c1

    Geometry (in Angstrom), charge = 0, multiplicity = 1:

    O           -1.423814335501    -0.882000049081    -0.634285145580
    C           -1.383439945593    -0.290648665188     0.394596357915
    C           -0.081872977456     0.003409621498     1.116953769073
    C           -2.643346957954     0.202998977961     1.068331564834
    C            1.180596481303    -0.303759925471     0.317408112825
    H           -0.096735238072     1.036513763792     1.452900317044
    H           -0.110285736302    -0.595408865261     2.025000914002
    C            1.549270445658     0.797326272446    -0.675618691533
    H            1.032837193945    -1.227847069222    -0.226766536361
    H            2.006103137797    -0.456298601734     1.005251753806
    C            2.793339444655     0.464087830796    -1.491510292543
    H            0.714681254497     0.967242130788    -1.347800321737
    H            1.710895609271     1.728018082626    -0.137066917982
    H            2.646498406465    -0.439872845602    -2.072365164170
    H            3.653935199067     0.308305658698    -0.848893060316
    H            3.036317320753     1.264570171113    -2.180761505944
    H           -3.510093052598    -0.209370035884     0.575019426781
    H           -2.678796452847     1.285999259359     1.009312039572
    H           -2.651153629821    -0.063463020098     2.118834802959

  Mulliken Charges: (a.u.)
   Center  Symbol    Alpha    Beta     Spin     Total
       1     O     4.17336  4.17336  0.00000 -0.34671
       2     C     2.85960  2.85960  0.00000  0.28080
       3     C     3.12136  3.12136  0.00000 -0.24271
       4     C     3.15084  3.15084  0.00000 -0.30169
       5     C     3.09211  3.09211  0.00000 -0.18423
       6     H     0.44440  0.44440  0.00000  0.11119
       7     H     0.43567  0.43567  0.00000  0.12865
       8     C     3.08220  3.08220  0.00000 -0.16439
       9     H     0.44309  0.44309  0.00000  0.11382
      10     H     0.44673  0.44673  0.00000  0.10654
      11     C     3.15146  3.15146  0.00000 -0.30291
      12     H     0.44853  0.44853  0.00000  0.10293
      13     H     0.45824  0.45824  0.00000  0.08351
      14     H     0.45143  0.45143  0.00000  0.09715
      15     H     0.45677  0.45677  0.00000  0.08646
      16     H     0.44876  0.44876  0.00000  0.10249
      17     H     0.43557  0.43557  0.00000  0.12886
      18     H     0.44904  0.44904  0.00000  0.10191
      19     H     0.45083  0.45083  0.00000  0.09833

   Total alpha = 28.00000, Total beta = 28.00000, Total charge = -0.00000

*** Psi4 exiting successfully. Buy a developer a beer!
