                              Psi4 1.0.54 Driver

  ==> Input File <==

--------------------------------------------------------------------------
set {
	reference rhf
	basis cc-pvtz
}

set_num_threads( 4 )
memory 2 gb

molecule MOL {
0 1

O	 1.216069	 1.304886	 0.000821
C	 1.121787	 0.124983	 0.000110
C	 -0.170912	 -0.649867	 -0.000147
O	 2.167739	 -0.685178	 -0.000678
C	 -1.413045	 0.229353	 0.001137
H	 -0.152877	 -1.303435	 -0.866175
H	 -0.152278	 -1.305116	 0.864586
C	 -2.616082	 -0.463302	 -0.632298
H	 -1.199668	 1.151454	 -0.527767
H	 -1.648392	 0.515342	 1.020140
C	 -3.866022	 0.409914	 -0.638303
H	 -2.373079	 -0.750424	 -1.651980
H	 -2.824933	 -1.386565	 -0.098255
H	 -3.699721	 1.326102	 -1.194656
H	 -4.703070	 -0.106752	 -1.093367
H	 -4.154941	 0.685246	 0.370309
C	 3.449556	 -0.089977	 -0.000570
H	 3.585694	 0.522473	 -0.879546
H	 4.155805	 -0.904274	 -0.001389
H	 3.586173	 0.521118	 0.879272

	symmetry c1
}
set optking {
	frozen_dihedral = ("
		9 5 3 6
	")
}

ee,wfn = optimize('scf', return_wfn=True)
oeprop( wfn, 'DIPOLE', 'QUADRUPOLE', 'MULLIKEN_CHARGES')
f=open( 'psi4out.xyz', 'w' )
f.write( "20  " )
f.write( str(ee) + "\n" )
f.write( MOL.save_string_xyz() )
f.close()
--------------------------------------------------------------------------

    Molecular point group: c1
  Charge       = 0
  Multiplicity = 1
  Basis Set: CC-PVTZ
  Basis Set:
  @DF-RHF Final Energy:  -384.08120685219080
    Total Energy =                       -384.0812068521905758
    Molecular point group: c1
  Basis Set: CC-PVTZ
  Basis Set:
  Basis Set: CC-PVTZ
  Basis Set:
  @DF-RHF Final Energy:  -384.08139843778042
    Total Energy =                       -384.0813984377806491
  Basis Set: CC-PVTZ
  Basis Set:
  Basis Set: CC-PVTZ
  Basis Set:
  @DF-RHF Final Energy:  -384.08140788493790
    Total Energy =                       -384.0814078849381303
  Basis Set: CC-PVTZ
  Basis Set:
  Basis Set: CC-PVTZ
  Basis Set:
  @DF-RHF Final Energy:  -384.08145504598843
    Total Energy =                       -384.0814550459882639
  Basis Set: CC-PVTZ
  Basis Set:
  Basis Set: CC-PVTZ
  Basis Set:
  @DF-RHF Final Energy:  -384.08146209613051
    Total Energy =                       -384.0814620961309629
  Basis Set: CC-PVTZ
  Basis Set:
  Charge       = 0
  Multiplicity = 1
  Basis Set: CC-PVTZ
  Basis Set:

    Orbital Energies (a.u.)
    -----------------------

    Doubly Occupied:

       1A    -20.596627     2A    -20.534742     3A    -11.365405
       4A    -11.278718     5A    -11.233788     6A    -11.218589
       7A    -11.216629     8A    -11.208657     9A     -1.472717
      10A     -1.366297    11A     -1.089004    12A     -1.025644
      13A     -0.969775    14A     -0.886715    15A     -0.805288
      16A     -0.769809    17A     -0.701397    18A     -0.685679
      19A     -0.676370    20A     -0.643575    21A     -0.600129
      22A     -0.592620    23A     -0.580412    24A     -0.544149
      25A     -0.534366    26A     -0.524015    27A     -0.501601
      28A     -0.479204    29A     -0.474284    30A     -0.468682
      31A     -0.459792    32A     -0.441568

  @DF-RHF Final Energy:  -384.08146276042066

   => Energetics <=

    Nuclear Repulsion Energy =            381.6645871544828879
    One-Electron Energy =               -1279.5996095026957846
    Two-Electron Energy =                 513.8535595877918922
    DFT Exchange-Correlation Energy =       0.0000000000000000
    Empirical Dispersion Energy =           0.0000000000000000
    PCM Polarization Energy =               0.0000000000000000
    EFP Energy =                            0.0000000000000000
    Total Energy =                       -384.0814627604210045
    Molecular point group: c1
  Basis Set: CC-PVTZ
  Basis Set:

  -Total Gradient:
     Atom            X                  Y                   Z
    ------   -----------------  -----------------  -----------------
       1       -0.000016427978     0.000054566515    -0.000029697831
       2        0.000063819027     0.000032517613     0.000053637864
       3        0.002467905372     0.003427860765    -0.001665883331
       4        0.000016037927    -0.000078173619    -0.000014503079
       5       -0.001788922624    -0.002470866263    -0.003229326542
       6       -0.001712958777    -0.002455974023     0.001888752344
       7       -0.000009818114    -0.000013466630    -0.000029108135
       8       -0.000040009784    -0.000024043003     0.000023315611
       9        0.001081323293     0.001517030397     0.002999452586
      10       -0.000012967757     0.000012025565    -0.000007179145
      11       -0.000001200565    -0.000006546086     0.000003310180
      12        0.000016932190     0.000002815125    -0.000017740854
      13       -0.000019410568    -0.000033880667     0.000013450553
      14        0.000004817364     0.000023497477    -0.000016251353
      15       -0.000005204024    -0.000006789384    -0.000004435221
      16       -0.000012730508     0.000004597372     0.000026819275
      17       -0.000023599078     0.000025658687     0.000016806978
      18       -0.000001859709     0.000006720368    -0.000015681408
      19       -0.000012282410    -0.000019537501    -0.000000174457
      20        0.000006556724     0.000001987297     0.000004435964

  **** Optimization is complete! (in 6 steps) ****
    Final optimized geometry and variables:
    Molecular point group: c1

    Geometry (in Angstrom), charge = 0, multiplicity = 1:

    O            1.224200247344     1.279475745687     0.141401615661
    C            1.112782839819     0.101101474533     0.137688524573
    C           -0.188068031878    -0.658868239978     0.114799718652
    O            2.146936903258    -0.723724442525     0.156437997078
    C           -1.436912515409     0.218842616452     0.113010513480
    H           -0.170611678006    -1.326488163046    -0.740328448818
    H           -0.179854489990    -1.319330092341     0.975816371949
    C           -2.660132723591    -0.492925849853    -0.455196126336
    H           -1.234774373017     1.133694819396    -0.429301850795
    H           -1.645659544851     0.534094937037     1.130928293039
    C           -3.921450051059     0.361682373314    -0.399843394816
    H           -2.462567978771    -0.777695021938    -1.485128763389
    H           -2.828231941949    -1.418595057714     0.089522822400
    H           -3.793554318150     1.282065724457    -0.959407874416
    H           -4.770888682898    -0.165681882376    -0.818213984207
    H           -4.168184247667     0.629171350812     0.622085410016
    C            3.436801037307    -0.146790267311     0.180947887581
    H            3.598318510551     0.463675232630    -0.695130048965
    H            4.131116967754    -0.971210463879     0.193109269383
    H            3.565526572148     0.462134072130     1.063480530607

  Mulliken Charges: (a.u.)
   Center  Symbol    Alpha    Beta     Spin     Total
       1     O     4.19614  4.19614  0.00000 -0.39229
       2     C     2.80326  2.80326  0.00000  0.39349
       3     C     3.10370  3.10370  0.00000 -0.20739
       4     O     4.14691  4.14691  0.00000 -0.29383
       5     C     3.08621  3.08621  0.00000 -0.17243
       6     H     0.44045  0.44045  0.00000  0.11911
       7     H     0.43854  0.43854  0.00000  0.12291
       8     C     3.08642  3.08642  0.00000 -0.17285
       9     H     0.43941  0.43941  0.00000  0.12117
      10     H     0.45265  0.45265  0.00000  0.09470
      11     C     3.14934  3.14934  0.00000 -0.29867
      12     H     0.45457  0.45457  0.00000  0.09087
      13     H     0.45507  0.45507  0.00000  0.08986
      14     H     0.45314  0.45314  0.00000  0.09371
      15     H     0.44841  0.44841  0.00000  0.10318
      16     H     0.45440  0.45440  0.00000  0.09119
      17     C     3.03720  3.03720  0.00000 -0.07439
      18     H     0.45436  0.45436  0.00000  0.09128
      19     H     0.44542  0.44542  0.00000  0.10917
      20     H     0.45440  0.45440  0.00000  0.09120

   Total alpha = 32.00000, Total beta = 32.00000, Total charge = -0.00000

*** Psi4 exiting successfully. Buy a developer a beer!
