  ==> Input File <==

--------------------------------------------------------------------------
set {
	reference rhf
	basis 6-31G*
}

set_num_threads( 1 )
memory 2 gb

molecule MOL {
0 1

H	 -3.420663	 1.227371	 -1.044276
O	 -3.452007	 0.283848	 -0.965577
C	 -3.181085	 -0.079926	 0.364119
C	 -1.765924	 0.277073	 0.805136
H	 -3.327791	 -1.152017	 0.410903
H	 -3.905698	 0.375695	 1.036898
C	 -0.677594	 -0.417312	 -0.014550
H	 -1.637766	 1.358238	 0.744969
H	 -1.659588	 0.017670	 1.857098
C	 0.738335	 -0.034840	 0.421385
H	 -0.814977	 -0.178223	 -1.064632
H	 -0.802730	 -1.495410	 0.071702
C	 1.822265	 -0.738362	 -0.399735
H	 0.853533	 1.043532	 0.342250
H	 0.871597	 -0.279636	 1.474438
C	 1.301029	 -1.802724	 -1.372156
H	 2.546110	 -1.193001	 0.274837
H	 2.368538	 0.010839	 -0.969032
C	 0.665785	 -3.021464	 -0.700186
H	 2.129546	 -2.138902	 -1.990891
H	 0.581571	 -1.348504	 -2.050586
H	 1.358713	 -3.489322	 -0.005853
H	 0.385992	 -3.766648	 -1.438599
H	 -0.230404	 -2.759858	 -0.147402

	symmetry c1
}
set optking {
	frozen_dihedral = ("
		20 16 13 17,
		13 10 7 11,
		11 7 4 3,
		1 2 3 5,
		7 4 3 2
	")
}

ee = energy('scf')
oeprop('DIPOLE', 'QUADRUPOLE', 'MULLIKEN_CHARGES')
f=open( 'psi4out.xyz', 'w' )
f.write( "24  " )
f.write( str(ee) + "\n" )
f.write( MOL.save_string_xyz() )
f.close()
--------------------------------------------------------------------------

    Molecular point group: c1

    Geometry (in Angstrom), charge = 0, multiplicity = 1:

       Center              X                  Y                   Z               Mass
    ------------   -----------------  -----------------  -----------------  -----------------
           H         -2.790955982990     1.908962193768    -0.796998515405     1.007825032070
           O         -2.822299982990     0.965439193768    -0.718299515405    15.994914619560
           C         -2.551377982990     0.601665193768     0.611396484595    12.000000000000
           C         -1.136216982990     0.958664193768     1.052413484595    12.000000000000
           H         -2.698083982990    -0.470425806232     0.658180484595     1.007825032070
           H         -3.275990982990     1.057286193768     1.284175484595     1.007825032070
           C         -0.047886982990     0.264279193768     0.232727484595    12.000000000000
           H         -1.008058982990     2.039829193768     0.992246484595     1.007825032070
           H         -1.029880982990     0.699261193768     2.104375484595     1.007825032070
           C          1.368042017010     0.646751193768     0.668662484595    12.000000000000
           H         -0.185269982990     0.503368193768    -0.817354515405     1.007825032070
           H         -0.173022982990    -0.813818806232     0.318979484595     1.007825032070
           C          2.451972017010    -0.056770806232    -0.152457515405    12.000000000000
           H          1.483240017010     1.725123193768     0.589527484595     1.007825032070
           H          1.501304017010     0.401955193768     1.721715484595     1.007825032070
           C          1.930736017010    -1.121132806232    -1.124878515405    12.000000000000
           H          3.175817017010    -0.511409806232     0.522114484595     1.007825032070
           H          2.998245017010     0.692430193768    -0.721754515405     1.007825032070
           C          1.295492017010    -2.339872806232    -0.452908515405    12.000000000000
           H          2.759253017010    -1.457310806232    -1.743613515405     1.007825032070
           H          1.211278017010    -0.666912806232    -1.803308515405     1.007825032070
           H          1.988420017010    -2.807730806232     0.241424484595     1.007825032070
           H          1.015699017010    -3.085056806232    -1.191321515405     1.007825032070
           H          0.399303017010    -2.078266806232     0.099875484595     1.007825032070

  Charge       = 0
  Multiplicity = 1
  Basis Set: 6-31G*
  Basis Set:

    Orbital Energies (a.u.)
    -----------------------

    Doubly Occupied:

       1A    -20.553060     2A    -11.266876     3A    -11.215005
       4A    -11.211890     5A    -11.210896     6A    -11.210114
       7A    -11.204702     8A    -11.202984     9A     -1.359592
      10A     -1.093863    11A     -1.041520    12A     -0.982211
      13A     -0.922604    14A     -0.850436    15A     -0.809376
      16A     -0.762623    17A     -0.682106    18A     -0.654818
      19A     -0.624685    20A     -0.619237    21A     -0.609117
      22A     -0.581885    23A     -0.556456    24A     -0.540006
      25A     -0.515842    26A     -0.513994    27A     -0.497458
      28A     -0.479356    29A     -0.469385    30A     -0.457934
      31A     -0.440032    32A     -0.429153    33A     -0.419539

  @DF-RHF Final Energy:  -349.21801578478625

   => Energetics <=

    Nuclear Repulsion Energy =            401.9376011555892205
    One-Electron Energy =               -1270.3336497962641261
    Two-Electron Energy =                 519.1780328558883184
    DFT Exchange-Correlation Energy =       0.0000000000000000
    Empirical Dispersion Energy =           0.0000000000000000
    PCM Polarization Energy =               0.0000000000000000
    EFP Energy =                            0.0000000000000000
    Total Energy =                       -349.2180157847866440

  Mulliken Charges: (a.u.)
   Center  Symbol    Alpha    Beta     Spin     Total
       1     H     0.28338  0.28338  0.00000  0.43325
       2     O     4.36848  4.36848  0.00000 -0.73696
       3     C     2.99596  2.99596  0.00000  0.00808
       4     C     3.16514  3.16514  0.00000 -0.33028
       5     H     0.41740  0.41740  0.00000  0.16520
       6     H     0.42832  0.42832  0.00000  0.14335
       7     C     3.15761  3.15761  0.00000 -0.31522
       8     H     0.42958  0.42958  0.00000  0.14083
       9     H     0.42370  0.42370  0.00000  0.15261
      10     C     3.15457  3.15457  0.00000 -0.30915
      11     H     0.41072  0.41072  0.00000  0.17856
      12     H     0.42677  0.42677  0.00000  0.14646
      13     C     3.15532  3.15532  0.00000 -0.31065
      14     H     0.42119  0.42119  0.00000  0.15762
      15     H     0.42281  0.42281  0.00000  0.15437
      16     C     3.16174  3.16174  0.00000 -0.32348
      17     H     0.42183  0.42183  0.00000  0.15633
      18     H     0.42041  0.42041  0.00000  0.15917
      19     C     3.24043  3.24043  0.00000 -0.48086
      20     H     0.41848  0.41848  0.00000  0.16303
      21     H     0.41803  0.41803  0.00000  0.16394
      22     H     0.42298  0.42298  0.00000  0.15403
      23     H     0.41879  0.41879  0.00000  0.16241
      24     H     0.41634  0.41634  0.00000  0.16733

   Total alpha = 33.00000, Total beta = 33.00000, Total charge =  0.00000
