  ==> Input File <==

--------------------------------------------------------------------------
set {
	reference rhf
	basis cc-pvtz
}

set_num_threads( 4 )
memory 2 gb

molecule MOL {
0 1

H	 -1.158543	 1.678034	 1.736074
C	 -0.929288	 0.937385	 0.999314
C	 -1.911766	 0.470053	 0.068997
C	 0.296666	 0.414370	 0.918536
H	 -2.907338	 0.870681	 0.107620
C	 -1.598714	 -0.456617	 -0.841969
H	 1.085452	 0.713397	 1.580005
N	 0.640204	 -0.530428	 -0.000115
H	 -2.307193	 -0.829172	 -1.552759
C	 -0.261012	 -1.024522	 -0.927213
C	 2.006991	 -1.033007	 -0.000020
O	 0.058493	 -1.857817	 -1.730817
H	 2.182444	 -1.636914	 -0.880881
H	 2.678769	 -0.195442	 -0.002236
H	 2.183828	 -1.633244	 0.883082

	symmetry c1
}
set optking {
	frozen_dihedral = ("
		10 8 11 13
	")
}

ee = optimize('scf')
oeprop('DIPOLE', 'QUADRUPOLE', 'MULLIKEN_CHARGES')
f=open( 'psi4out.xyz', 'w' )
f.write( "15  " )
f.write( str(ee) + "\n" )
f.write( MOL.save_string_xyz() )
f.close()
--------------------------------------------------------------------------

    Molecular point group: c1
  Charge       = 0
  Multiplicity = 1
  Basis Set: CC-PVTZ
  Basis Set:
  @DF-RHF Final Energy:  -360.72233331731763
    Total Energy =                       -360.7223333173175206
    Molecular point group: c1
  Basis Set: CC-PVTZ
  Basis Set:
  Basis Set: CC-PVTZ
  Basis Set:
  @DF-RHF Final Energy:  -360.72255287983455
    Total Energy =                       -360.7225528798346659
  Basis Set: CC-PVTZ
  Basis Set:
  Basis Set: CC-PVTZ
  Basis Set:
  @DF-RHF Final Energy:  -360.72257601699323
    Total Energy =                       -360.7225760169928321
  Basis Set: CC-PVTZ
  Basis Set:
  Basis Set: CC-PVTZ
  Basis Set:
  @DF-RHF Final Energy:  -360.72256728816893
    Total Energy =                       -360.7225672881687046
  Basis Set: CC-PVTZ
  Basis Set:
  Charge       = 0
  Multiplicity = 1
  Basis Set: CC-PVTZ
  Basis Set:

    Orbital Energies (a.u.)
    -----------------------

    Doubly Occupied:

       1A    -20.501779     2A    -15.616487     3A    -11.339562
       4A    -11.293219     5A    -11.263526     6A    -11.258212
       7A    -11.230691     8A    -11.228378     9A     -1.390557
      10A     -1.285767    11A     -1.118803    12A     -1.028873
      13A     -0.972303    14A     -0.875752    15A     -0.838568
      16A     -0.719117    17A     -0.703096    18A     -0.663393
      19A     -0.652677    20A     -0.625211    21A     -0.611935
      22A     -0.574083    23A     -0.558052    24A     -0.550492
      25A     -0.529356    26A     -0.482806    27A     -0.420144
      28A     -0.410791    29A     -0.311006

  @DF-RHF Final Energy:  -360.72258233500656

   => Energetics <=

    Nuclear Repulsion Energy =            358.4528784127564904
    One-Electron Energy =               -1200.2416516226144267
    Two-Electron Energy =                 481.0661908748513156
    DFT Exchange-Correlation Energy =       0.0000000000000000
    Empirical Dispersion Energy =           0.0000000000000000
    PCM Polarization Energy =               0.0000000000000000
    EFP Energy =                            0.0000000000000000
    Total Energy =                       -360.7225823350066207
    Molecular point group: c1
  Basis Set: CC-PVTZ
  Basis Set:

  -Total Gradient:
     Atom            X                  Y                   Z
    ------   -----------------  -----------------  -----------------
       1       -0.000001475604     0.000002270440    -0.000003206044
       2       -0.000004290052     0.000000282769     0.000005871565
       3        0.000002377687     0.000001882099    -0.000004859352
       4        0.000006964361     0.000014958911     0.000012616025
       5       -0.000001249964    -0.000001013817    -0.000000795608
       6       -0.000003112238    -0.000004632014     0.000004368946
       7       -0.000003055948    -0.000003282085    -0.000002247023
       8       -0.000163311822    -0.000343095402     0.000263038803
       9       -0.000003387139    -0.000000321578     0.000001916524
      10        0.000095351467     0.000211101102    -0.000148393370
      11        0.000160683723     0.000375584046    -0.000257659918
      12       -0.000000787050    -0.000010453012    -0.000009512236
      13       -0.000083484669    -0.000252479605     0.000159670959
      14        0.000005855542     0.000016166443    -0.000008492057
      15       -0.000007078294    -0.000006968296    -0.000012317215

  **** Optimization is complete! (in 5 steps) ****
    Final optimized geometry and variables:
    Molecular point group: c1

    Geometry (in Angstrom), charge = 0, multiplicity = 1:

    H           -1.007964297029     2.100136851277     1.950649862933
    C           -0.776386183977     1.361319691177     1.212761447095
    C           -1.756639486244     0.894472489639     0.279678440031
    C            0.451561227646     0.842911163526     1.131099435965
    H           -2.752878275672     1.293548595760     0.317374386157
    C           -1.440500582742    -0.029506246412    -0.632887300625
    H            1.238979356004     1.143609095731     1.793338314857
    N            0.798824345752    -0.097289716835     0.209213219630
    H           -2.147211238250    -0.402449938527    -1.345345203162
    C           -0.102694855318    -0.598112104861    -0.713856834522
    C            2.164043962351    -0.603789762836     0.211218175573
    O            0.217386056119    -1.437978753679    -1.510161909224
    H            2.307587459173    -1.205383389843    -0.666692734189
    H            2.861921316192     0.222540654161     0.204252237586
    H            2.341649464726    -1.212022537264     1.089386579950

  Mulliken Charges: (a.u.)
   Center  Symbol    Alpha    Beta     Spin     Total
       1     H     0.41409  0.41409  0.00000  0.17182
       2     C     3.10220  3.10220  0.00000 -0.20441
       3     C     3.06191  3.06191  0.00000 -0.12382
       4     C     3.03295  3.03295  0.00000 -0.06591
       5     H     0.41834  0.41834  0.00000  0.16332
       6     C     3.11619  3.11619  0.00000 -0.23239
       7     H     0.42059  0.42059  0.00000  0.15882
       8     N     3.51260  3.51260  0.00000 -0.02520
       9     H     0.40889  0.40889  0.00000  0.18223
      10     C     2.84549  2.84549  0.00000  0.30902
      11     C     3.10877  3.10877  0.00000 -0.21753
      12     O     4.23659  4.23659  0.00000 -0.47317
      13     H     0.42132  0.42132  0.00000  0.15736
      14     H     0.45191  0.45191  0.00000  0.09618
      15     H     0.44816  0.44816  0.00000  0.10367

   Total alpha = 29.00000, Total beta = 29.00000, Total charge =  0.00000
