  ==> Input File <==

--------------------------------------------------------------------------
set {
	reference rhf
	basis cc-pvtz
}

set_num_threads( 4 )
memory 2 gb

molecule MOL {
0 1

O	 -2.440701	 -0.934798	 -0.415053
C	 -1.922978	 0.063265	 -0.045005
C	 -2.632749	 1.372204	 0.158357
O	 -0.637375	 0.157174	 0.243149
H	 -2.187724	 2.129143	 -0.474664
H	 -3.677681	 1.257276	 -0.079438
H	 -2.516788	 1.693160	 1.185542
C	 0.162530	 -1.009518	 0.097799
C	 1.587210	 -0.664190	 0.477086
H	 0.096803	 -1.356267	 -0.924704
H	 -0.233803	 -1.785900	 0.736810
C	 2.256770	 0.342732	 -0.454344
H	 2.154716	 -1.590834	 0.479041
H	 1.598751	 -0.289614	 1.496104
C	 1.258324	 1.288210	 -1.113733
H	 2.983568	 0.921252	 0.109728
H	 2.812068	 -0.188500	 -1.218725
H	 1.759913	 1.993970	 -1.765421
H	 0.706534	 1.857144	 -0.372630
H	 0.537829	 0.740623	 -1.712108

	symmetry c1
}
set optking {
	frozen_dihedral = ("
		16 12 9 8
	")
}

ee = optimize('scf')
oeprop('DIPOLE', 'QUADRUPOLE', 'MULLIKEN_CHARGES')
f=open( 'psi4out.xyz', 'w' )
f.write( "20  " )
f.write( str(ee) + "\n" )
f.write( MOL.save_string_xyz() )
f.close()
--------------------------------------------------------------------------

    Molecular point group: c1
  Charge       = 0
  Multiplicity = 1
  Basis Set: CC-PVTZ
  Basis Set:
  @DF-RHF Final Energy:  -384.07153552216670
    Total Energy =                       -384.0715355221666414
    Molecular point group: c1
  Basis Set: CC-PVTZ
  Basis Set:
  Basis Set: CC-PVTZ
  Basis Set:
  @DF-RHF Final Energy:  -384.07760950148281
    Total Energy =                       -384.0776095014829252
  Basis Set: CC-PVTZ
  Basis Set:
  Basis Set: CC-PVTZ
  Basis Set:
  @DF-RHF Final Energy:  -384.07859865600221
    Total Energy =                       -384.0785986560014180
  Basis Set: CC-PVTZ
  Basis Set:
  Basis Set: CC-PVTZ
  Basis Set:
  @DF-RHF Final Energy:  -384.07805310832634
    Total Energy =                       -384.0780531083262304
  Basis Set: CC-PVTZ
  Basis Set:
  @DF-RHF Final Energy:  -384.07970261375601
    Total Energy =                       -384.0797026137556713
  @DF-RHF Final Energy:  -384.07981553266609
    Total Energy =                       -384.0798155326663164
  Basis Set: CC-PVTZ
  Basis Set:
  @DF-RHF Final Energy:  -384.07985644585153
    Total Energy =                       -384.0798564458518740
  Basis Set: CC-PVTZ
  Basis Set:
  Basis Set: CC-PVTZ
  Basis Set:
  @DF-RHF Final Energy:  -384.07985846082482
    Total Energy =                       -384.0798584608244255
  Basis Set: CC-PVTZ
  Basis Set:
  Basis Set: CC-PVTZ
  Basis Set:
  @DF-RHF Final Energy:  -384.07985976930172
    Total Energy =                       -384.0798597693018337
  Basis Set: CC-PVTZ
  Basis Set:
  Charge       = 0
  Multiplicity = 1
  Basis Set: CC-PVTZ
  Basis Set:

    Orbital Energies (a.u.)
    -----------------------

    Doubly Occupied:

       1A    -20.594036     2A    -20.532741     3A    -11.366676
       4A    -11.280397     5A    -11.231695     6A    -11.224285
       7A    -11.221080     8A    -11.208285     9A     -1.471204
      10A     -1.365307    11A     -1.083283    12A     -1.027225
      13A     -0.980232    14A     -0.893079    15A     -0.798348
      16A     -0.778965    17A     -0.692468    18A     -0.690937
      19A     -0.667485    20A     -0.626783    21A     -0.611324
      22A     -0.583825    23A     -0.571565    24A     -0.555402
      25A     -0.550993    26A     -0.528868    27A     -0.517887
      28A     -0.480922    29A     -0.477019    30A     -0.466516
      31A     -0.448699    32A     -0.441108

  @DF-RHF Final Energy:  -384.07985930165108

   => Energetics <=

    Nuclear Repulsion Energy =            395.3067573578732095
    One-Electron Energy =               -1306.8359564853910797
    Two-Electron Energy =                 527.4493398258667867
    DFT Exchange-Correlation Energy =       0.0000000000000000
    Empirical Dispersion Energy =           0.0000000000000000
    PCM Polarization Energy =               0.0000000000000000
    EFP Energy =                            0.0000000000000000
    Total Energy =                       -384.0798593016510267
    Molecular point group: c1
  Basis Set: CC-PVTZ
  Basis Set:

  -Total Gradient:
     Atom            X                  Y                   Z
    ------   -----------------  -----------------  -----------------
       1       -0.000007609986     0.000002336957     0.000001752785
       2       -0.000014351116    -0.000004837344     0.000008826616
       3        0.000013965678     0.000001686415    -0.000008048139
       4        0.000042869629     0.000009385837     0.000013726077
       5        0.000001257346     0.000002144564     0.000003820906
       6        0.000003286264    -0.000008652294    -0.000002681365
       7       -0.000000532861    -0.000004625130    -0.000000027763
       8       -0.001351097329     0.003074250266     0.001821823585
       9        0.001110333311    -0.003583480233    -0.002568408551
      10       -0.000020762400    -0.000005065503    -0.000002247377
      11       -0.000011117801     0.000002182005    -0.000001642156
      12        0.003788313100    -0.003214488519     0.000189007568
      13       -0.000057712005     0.000008058180    -0.000078236047
      14        0.000126528763    -0.000054656358     0.000068611923
      15       -0.000014121720    -0.000003590167     0.000006833142
      16       -0.003618518400     0.003776647403     0.000566413716
      17        0.000011380181    -0.000008590228    -0.000014039455
      18        0.000012278457     0.000003370142    -0.000003120749
      19       -0.000012182327     0.000008894987    -0.000001948208
      20       -0.000002206788    -0.000000970977    -0.000000416506

  **** Optimization is complete! (in 10 steps) ****
    Final optimized geometry and variables:
    Molecular point group: c1

    Geometry (in Angstrom), charge = 0, multiplicity = 1:

    O           -2.160292698196    -1.038546559695    -0.310090741135
    C           -1.687353815457    -0.053033882648     0.144076028945
    C           -2.455601489240     1.199682208081     0.457322278151
    O           -0.405965138570     0.075671180123     0.437560291201
    H           -2.060252573461     2.021979677118    -0.125265594970
    H           -3.498074509898     1.051029090798     0.227497197710
    H           -2.335057959568     1.449665074635     1.503368805029
    C            0.442873976939    -1.038835026108     0.197342522506
    C            1.858757698431    -0.679403027153     0.609293954069
    H            0.373760245460    -1.320947726196    -0.844146526067
    H            0.084562244266    -1.873090307884     0.783687788809
    C            2.670763266601     0.235069831384    -0.331292139865
    H            2.401528608650    -1.608927657665     0.741623234253
    H            1.795675672093    -0.225384813899     1.592504251746
    C            1.881030091207     1.246237506491    -1.163888233589
    H            3.361222837472     0.805883476850     0.279802477511
    H            3.264800647248    -0.376428545382    -1.001757237539
    H            2.563921611318     1.830608492164    -1.770080236926
    H            1.322963011270     1.929199298360    -0.536584670086
    H            1.180225612702     0.766093222981    -1.836056143288

  Mulliken Charges: (a.u.)
   Center  Symbol    Alpha    Beta     Spin     Total
       1     O     4.19720  4.19720  0.00000 -0.39440
       2     C     2.80782  2.80782  0.00000  0.38436
       3     C     3.13911  3.13911  0.00000 -0.27821
       4     O     4.15269  4.15269  0.00000 -0.30538
       5     H     0.44596  0.44596  0.00000  0.10808
       6     H     0.43719  0.43719  0.00000  0.12561
       7     H     0.44553  0.44553  0.00000  0.10894
       8     C     3.00641  3.00641  0.00000 -0.01283
       9     C     3.09044  3.09044  0.00000 -0.18088
      10     H     0.44554  0.44554  0.00000  0.10892
      11     H     0.43953  0.43953  0.00000  0.12093
      12     C     3.09008  3.09008  0.00000 -0.18016
      13     H     0.44633  0.44633  0.00000  0.10735
      14     H     0.45182  0.45182  0.00000  0.09637
      15     C     3.15192  3.15192  0.00000 -0.30384
      16     H     0.45067  0.45067  0.00000  0.09866
      17     H     0.45098  0.45098  0.00000  0.09803
      18     H     0.44574  0.44574  0.00000  0.10852
      19     H     0.44937  0.44937  0.00000  0.10125
      20     H     0.45567  0.45567  0.00000  0.08867

   Total alpha = 32.00000, Total beta = 32.00000, Total charge = -0.00000
