  ==> Input File <==

--------------------------------------------------------------------------
set {
	reference rhf
	basis 6-31G*
}

set_num_threads( 4 )
memory 2 gb

molecule MOL {
0 1

O	 3.225979	 0.970355	 -0.599647
C	 2.701189	 0.057885	 -0.047330
C	 1.245376	 -0.013843	 0.345420
O	 3.347903	 -1.046386	 0.304773
C	 0.987388	 0.445689	 1.778733
H	 0.691391	 0.576436	 -0.376981
H	 0.921759	 -1.041350	 0.199820
C	 -0.468610	 0.280208	 2.227262
H	 1.288402	 1.483868	 1.882153
H	 1.630514	 -0.119988	 2.444182
C	 -1.475313	 1.170197	 1.492701
H	 -0.520618	 0.501492	 3.290772
H	 -0.764217	 -0.762613	 2.121667
C	 -2.894843	 1.048614	 2.050510
H	 -1.150673	 2.207521	 1.558930
H	 -1.491809	 0.922273	 0.433818
C	 -3.910386	 1.929628	 1.320705
H	 -2.889380	 1.308234	 3.107772
H	 -3.216015	 0.009670	 1.994449
C	 -5.324711	 1.805239	 1.886315
H	 -3.590452	 2.968064	 1.374888
H	 -3.920439	 1.668623	 0.264506
H	 -6.021183	 2.441159	 1.348599
H	 -5.354882	 2.093125	 2.933409
H	 -5.687071	 0.783534	 1.814988
C	 4.728119	 -1.109107	 -0.004993
H	 4.882018	 -1.033965	 -1.071845
H	 5.068212	 -2.067527	 0.355250
H	 5.265056	 -0.311663	 0.488280

	symmetry c1
}
set optking {
	frozen_dihedral = ("
		6 3 2 1
	")
}

ee = optimize('scf')
oeprop('DIPOLE', 'QUADRUPOLE', 'MULLIKEN_CHARGES')
f=open( 'psi4out.xyz', 'w' )
f.write( "29  " )
f.write( str(ee) + "\n" )
f.write( MOL.save_string_xyz() )
f.close()
--------------------------------------------------------------------------

    Molecular point group: c1
  Charge       = 0
  Multiplicity = 1
  Basis Set: 6-31G*
  Basis Set:
  @DF-RHF Final Energy:  -501.04208360551831
    Total Energy =                       -501.0420836055188829
    Molecular point group: c1
  Basis Set: 6-31G*
  Basis Set:
  Basis Set: 6-31G*
  Basis Set:
  @DF-RHF Final Energy:  -501.04156342234216
    Total Energy =                       -501.0415634223419374
  Basis Set: 6-31G*
  Basis Set:
  Basis Set: 6-31G*
  Basis Set:
  @DF-RHF Final Energy:  -501.04259465566474
    Total Energy =                       -501.0425946556656527
  Basis Set: 6-31G*
  Basis Set:
  Basis Set: 6-31G*
  Basis Set:
  @DF-RHF Final Energy:  -501.04275898616231
    Total Energy =                       -501.0427589861624256
  Basis Set: 6-31G*
  Basis Set:
  Basis Set: 6-31G*
  Basis Set:
  @DF-RHF Final Energy:  -501.04272870869818
    Total Energy =                       -501.0427287086979504
  Basis Set: 6-31G*
  Basis Set:
  Basis Set: 6-31G*
  Basis Set:
  @DF-RHF Final Energy:  -501.04276287684775
    Total Energy =                       -501.0427628768478598
  Basis Set: 6-31G*
  Basis Set:
  Charge       = 0
  Multiplicity = 1
  Basis Set: 6-31G*
  Basis Set:

    Orbital Energies (a.u.)
    -----------------------

    Doubly Occupied:

       1A    -20.604124     2A    -20.542253     3A    -11.370130
       4A    -11.280237     5A    -11.232577     6A    -11.229682
       7A    -11.221743     8A    -11.217341     9A    -11.216289
      10A    -11.215503    11A    -11.209361    12A     -1.468128
      13A     -1.360519    14A     -1.101027    15A     -1.068424
      16A     -1.019520    17A     -0.975161    18A     -0.930700
      19A     -0.864045    20A     -0.799596    21A     -0.791191
      22A     -0.771723    23A     -0.697788    24A     -0.678120
      25A     -0.672712    26A     -0.652239    27A     -0.626414
      28A     -0.603953    29A     -0.596011    30A     -0.579615
      31A     -0.568674    32A     -0.549544    33A     -0.541311
      34A     -0.528144    35A     -0.520654    36A     -0.513612
      37A     -0.496282    38A     -0.483301    39A     -0.471153
      40A     -0.464429    41A     -0.462872    42A     -0.453832
      43A     -0.444198    44A     -0.427664

  @DF-RHF Final Energy:  -501.04276320947179

   => Energetics <=

    Nuclear Repulsion Energy =            611.7146238740049284
    One-Electron Energy =               -1894.4711860933675780
    Two-Electron Energy =                 781.7137990098908631
    DFT Exchange-Correlation Energy =       0.0000000000000000
    Empirical Dispersion Energy =           0.0000000000000000
    PCM Polarization Energy =               0.0000000000000000
    EFP Energy =                            0.0000000000000000
    Total Energy =                       -501.0427632094717865
    Molecular point group: c1
  Basis Set: 6-31G*
  Basis Set:

  -Total Gradient:
     Atom            X                  Y                   Z
    ------   -----------------  -----------------  -----------------
       1        0.000089383021     0.000136460121     0.000410099679
       2       -0.000155389378    -0.000263411299    -0.000637155135
       3        0.000069414899     0.000464798952     0.000473074112
       4        0.000018849018     0.000017354278     0.000025511642
       5        0.000006659272    -0.000014131000     0.000015376446
       6       -0.000051583325    -0.000318336619    -0.000259350186
       7        0.000004964443     0.000008488505     0.000005095929
       8       -0.000004271583     0.000014509165     0.000006720632
       9        0.000002521559    -0.000004997860    -0.000006333801
      10       -0.000004665002    -0.000008009567     0.000007042982
      11        0.000013459026    -0.000012326040    -0.000017914671
      12       -0.000006992002     0.000003908978     0.000002175554
      13        0.000011199333     0.000001273194    -0.000001388061
      14        0.000001914349    -0.000002319108     0.000009513587
      15        0.000002961661    -0.000006447531    -0.000006327029
      16        0.000006288842    -0.000003027804    -0.000010312369
      17        0.000004651196     0.000004288903     0.000001409439
      18       -0.000002472849    -0.000003894078     0.000004995259
      19       -0.000001450215     0.000001861474    -0.000004178556
      20        0.000002076913     0.000000144887     0.000003434584
      21       -0.000000322076     0.000001070996    -0.000001866513
      22        0.000000738232    -0.000001233280     0.000001328556
      23        0.000001257928     0.000000236761    -0.000000231458
      24       -0.000000708098    -0.000000433621     0.000000301137
      25        0.000000170950     0.000000141379    -0.000000362422
      26       -0.000018218044    -0.000024320769    -0.000043160985
      27        0.000012447678    -0.000000644474     0.000006064042
      28        0.000005398044     0.000001639175     0.000007429557
      29       -0.000008283793     0.000007356283     0.000009008051

  **** Optimization is complete! (in 7 steps) ****
    Final optimized geometry and variables:
    Molecular point group: c1

    Geometry (in Angstrom), charge = 0, multiplicity = 1:

    O            2.949155791893     0.495352250354    -1.523028148125
    C            2.442852413450    -0.458068597545    -1.023680925937
    C            0.982773706949    -0.565265411491    -0.663217725015
    O            3.122824172462    -1.544184939269    -0.679054081722
    C            0.748511848882    -0.095403447768     0.782395147754
    H            0.434103972204     0.048855964764    -1.364233378891
    H            0.662125809133    -1.594899603446    -0.773424534063
    C           -0.703597764215    -0.235301805712     1.250890479601
    H            1.064320335648     0.940519593401     0.872148337676
    H            1.385934629396    -0.676911917595     1.442345772478
    C           -1.705105359854     0.660045985928     0.516527271173
    H           -0.738130425965    -0.000510014196     2.312323358057
    H           -1.011576381498    -1.275479850431     1.160632290231
    C           -3.118694838136     0.566962085479     1.094718456140
    H           -1.363920020225     1.692847510125     0.563640220815
    H           -1.738340355358     0.397340501333    -0.538013733708
    C           -4.130246684060     1.452910455152     0.365363958642
    H           -3.095828112713     0.841261120014     2.148077637494
    H           -3.455904258222    -0.467739623576     1.057378717977
    C           -5.538775251218     1.357547298993     0.950686084513
    H           -3.794178572674     2.486975906129     0.400714103882
    H           -4.157645830626     1.177314833315    -0.686725235770
    H           -6.232510289398     1.996200379583     0.412749581944
    H           -5.551271413776     1.660630035370     1.993860433414
    H           -5.917145474336     0.340494485017     0.898495933495
    C            4.517513823194    -1.532337452399    -0.923359976342
    H            4.716872823139    -1.411473465292    -1.978336869513
    H            4.885727497525    -2.486483080855    -0.579797853496
    H            4.991797159617    -0.729027721477    -0.378082362752

  Mulliken Charges: (a.u.)
   Center  Symbol    Alpha    Beta     Spin     Total
       1     O     4.28554  4.28554  0.00000 -0.57108
       2     C     2.61684  2.61684  0.00000  0.76632
       3     C     3.19550  3.19550  0.00000 -0.39100
       4     O     4.30293  4.30293  0.00000 -0.60585
       5     C     3.16744  3.16744  0.00000 -0.33488
       6     H     0.39830  0.39830  0.00000  0.20340
       7     H     0.40466  0.40466  0.00000  0.19067
       8     C     3.15453  3.15453  0.00000 -0.30906
       9     H     0.40969  0.40969  0.00000  0.18062
      10     H     0.41029  0.41029  0.00000  0.17942
      11     C     3.15529  3.15529  0.00000 -0.31057
      12     H     0.41832  0.41832  0.00000  0.16336
      13     H     0.42167  0.42167  0.00000  0.15667
      14     C     3.15071  3.15071  0.00000 -0.30141
      15     H     0.42114  0.42114  0.00000  0.15771
      16     H     0.42187  0.42187  0.00000  0.15627
      17     C     3.15162  3.15162  0.00000 -0.30323
      18     H     0.42357  0.42357  0.00000  0.15287
      19     H     0.42388  0.42388  0.00000  0.15223
      20     C     3.23944  3.23944  0.00000 -0.47888
      21     H     0.42229  0.42229  0.00000  0.15543
      22     H     0.42286  0.42286  0.00000  0.15427
      23     H     0.41890  0.41890  0.00000  0.16219
      24     H     0.42168  0.42168  0.00000  0.15664
      25     H     0.42185  0.42185  0.00000  0.15629
      26     C     3.09265  3.09265  0.00000 -0.18529
      27     H     0.40854  0.40854  0.00000  0.18291
      28     H     0.40884  0.40884  0.00000  0.18233
      29     H     0.40918  0.40918  0.00000  0.18165

   Total alpha = 44.00000, Total beta = 44.00000, Total charge = -0.00000
