                              Psi4 1.0.54 Driver

  ==> Input File <==

--------------------------------------------------------------------------
set {
	reference rhf
	basis cc-pvtz
}

set_num_threads( 4 )
memory 2 gb

molecule MOL {
0 1

H	 -1.879142	 2.324362	 -2.643493
O	 -1.077074	 1.824940	 -2.674817
C	 -0.757169	 1.463943	 -1.435350
C	 0.515982	 0.662824	 -1.398919
O	 -1.420136	 1.761455	 -0.502649
C	 0.926581	 0.227233	 0.000178
H	 1.286762	 1.267057	 -1.866388
H	 0.374118	 -0.191656	 -2.052721
C	 2.220156	 -0.582071	 -0.000088
H	 1.041104	 1.103356	 0.628452
H	 0.127337	 -0.357154	 0.441905
C	 3.466689	 0.296012	 -0.000457
H	 2.239073	 -1.234095	 -0.869382
H	 2.239505	 -1.233985	 0.869270
H	 3.493549	 0.935857	 -0.875887
H	 4.368821	 -0.304526	 -0.001199
H	 3.494559	 0.935166	 0.875458

	symmetry c1
}
set optking {
	frozen_dihedral = ("
		10 6 9 13
	")
}

ee,wfn = optimize('scf', return_wfn=True)
oeprop( wfn, 'DIPOLE', 'QUADRUPOLE', 'MULLIKEN_CHARGES')
f=open( 'psi4out.xyz', 'w' )
f.write( "17  " )
f.write( str(ee) + "\n" )
f.write( MOL.save_string_xyz() )
f.close()
--------------------------------------------------------------------------

    Molecular point group: c1
  Charge       = 0
  Multiplicity = 1
  Basis Set: CC-PVTZ
  Basis Set:
  @DF-RHF Final Energy:  -345.04605145891651
    Total Energy =                       -345.0460514589167360
    Molecular point group: c1
  Basis Set: CC-PVTZ
  Basis Set:
  Basis Set: CC-PVTZ
  Basis Set:
  @DF-RHF Final Energy:  -345.04614356892239
    Total Energy =                       -345.0461435689226164
  Basis Set: CC-PVTZ
  Basis Set:
  Basis Set: CC-PVTZ
  Basis Set:
  @DF-RHF Final Energy:  -345.04605137898704
    Total Energy =                       -345.0460513789870447
  Basis Set: CC-PVTZ
  Basis Set:
  Basis Set: CC-PVTZ
  Basis Set:
  @DF-RHF Final Energy:  -345.04626407867494
    Total Energy =                       -345.0462640786753923
  Basis Set: CC-PVTZ
  Basis Set:
  Basis Set: CC-PVTZ
  Basis Set:
  @DF-RHF Final Energy:  -345.04626697961783
    Total Energy =                       -345.0462669796179398
  Basis Set: CC-PVTZ
  Basis Set:
  Charge       = 0
  Multiplicity = 1
  Basis Set: CC-PVTZ
  Basis Set:

    Orbital Energies (a.u.)
    -----------------------

    Doubly Occupied:

       1A    -20.604068     2A    -20.540695     3A    -11.373576
       4A    -11.239186     5A    -11.221496     6A    -11.220873
       7A    -11.212485     8A     -1.477636     9A     -1.369161
      10A     -1.092562    11A     -1.017567    12A     -0.917742
      13A     -0.830018    14A     -0.784355    15A     -0.703792
      16A     -0.692776    17A     -0.667677    18A     -0.618675
      19A     -0.615157    20A     -0.587666    21A     -0.562628
      22A     -0.539062    23A     -0.521273    24A     -0.484866
      25A     -0.478923    26A     -0.476691    27A     -0.470136
      28A     -0.446596

  @DF-RHF Final Energy:  -345.04626719829770

   => Energetics <=

    Nuclear Repulsion Energy =            307.5064487097261576
    One-Electron Energy =               -1079.5707546384167017
    Two-Electron Energy =                 427.0180387303928455
    DFT Exchange-Correlation Energy =       0.0000000000000000
    Empirical Dispersion Energy =           0.0000000000000000
    PCM Polarization Energy =               0.0000000000000000
    EFP Energy =                            0.0000000000000000
    Total Energy =                       -345.0462671982977554
    Molecular point group: c1
  Basis Set: CC-PVTZ
  Basis Set:

  -Total Gradient:
     Atom            X                  Y                   Z
    ------   -----------------  -----------------  -----------------
       1        0.000003622302    -0.000003589370     0.000005814360
       2        0.000016867409     0.000001970856    -0.000009466041
       3       -0.000021674064    -0.000020386981    -0.000007182111
       4        0.000013101529     0.000017682182     0.000002262623
       5        0.000002336550     0.000004910385     0.000020022900
       6       -0.000828604215    -0.001313450815     0.002319114397
       7        0.000010190427    -0.000000217090    -0.000007486709
       8       -0.000001655462    -0.000002615570    -0.000001012972
       9       -0.001283408663    -0.002106981769     0.001289875443
      10        0.000912953120     0.001432269722    -0.002164639625
      11        0.000006392545    -0.000010084087     0.000005456719
      12       -0.000024590521     0.000007011056    -0.000004030137
      13        0.001203797514     0.001996002255    -0.001446103456
      14       -0.000004344935     0.000000409124     0.000004333627
      15       -0.000002077855     0.000007904346    -0.000007658366
      16       -0.000001386735    -0.000011218816    -0.000003024293
      17       -0.000001518946     0.000000384573     0.000003723641

  **** Optimization is complete! (in 6 steps) ****
    Final optimized geometry and variables:
    Molecular point group: c1

    Geometry (in Angstrom), charge = 0, multiplicity = 1:

    H           -2.389629406739     1.500248257950    -1.767942498185
    O           -1.592746889131     0.992509949820    -1.798265283954
    C           -1.275889252079     0.632830976278    -0.557479541796
    C           -0.012472868645    -0.183587694841    -0.519257083353
    O           -1.936345069210     0.939472336838     0.374094295735
    C            0.384291827960    -0.630294274319     0.883342842194
    H            0.763064100475     0.413526468525    -0.986272091163
    H           -0.164342972200    -1.035486528646    -1.173917399474
    C            1.696943269496    -1.421534488583     0.901856997837
    H            0.477275888045     0.249727350727     1.508931143185
    H           -0.418480435468    -1.225563674623     1.299181454292
    C            2.943525080014    -0.538305146807     0.903240394683
    H            1.739029292099    -2.077395090345     0.036618166480
    H            1.717768273163    -2.058232393014     1.778904748971
    H            2.979910558838     0.109155906964     0.033805505925
    H            3.845358986323    -1.139500418584     0.898204801282
    H            2.970644537502     0.092777168173     1.784834479148

  Mulliken Charges: (a.u.)
   Center  Symbol    Alpha    Beta     Spin     Total
       1     H     0.38239  0.38239  0.00000  0.23522
       2     O     4.16026  4.16026  0.00000 -0.32053
       3     C     2.80397  2.80397  0.00000  0.39206
       4     C     3.11076  3.11076  0.00000 -0.22151
       5     O     4.19119  4.19119  0.00000 -0.38238
       6     C     3.08805  3.08805  0.00000 -0.17610
       7     H     0.43841  0.43841  0.00000  0.12318
       8     H     0.43789  0.43789  0.00000  0.12422
       9     C     3.09318  3.09318  0.00000 -0.18636
      10     H     0.44708  0.44708  0.00000  0.10583
      11     H     0.44074  0.44074  0.00000  0.11853
      12     C     3.14856  3.14856  0.00000 -0.29712
      13     H     0.45691  0.45691  0.00000  0.08618
      14     H     0.44437  0.44437  0.00000  0.11127
      15     H     0.45661  0.45661  0.00000  0.08678
      16     H     0.44678  0.44678  0.00000  0.10643
      17     H     0.45286  0.45286  0.00000  0.09427

   Total alpha = 28.00000, Total beta = 28.00000, Total charge =  0.00000

*** Psi4 exiting successfully. Buy a developer a beer!
