                              Psi4 1.0.54 Driver

  ==> Input File <==

--------------------------------------------------------------------------
set {
	reference rhf
	basis cc-pvtz
}

set_num_threads( 4 )
memory 2 gb

molecule MOL {
0 1

O	 -2.071633	 -1.227563	 -0.223463
C	 -1.652164	 -0.152425	 0.058082
C	 -0.327811	 0.006324	 0.778296
C	 -2.402515	 1.108629	 -0.298924
C	 0.843231	 -0.001575	 -0.211665
H	 -0.319484	 0.928173	 1.350354
H	 -0.227804	 -0.823091	 1.466705
C	 0.898535	 -1.276233	 -1.048575
H	 1.780693	 0.113383	 0.326519
H	 0.752299	 0.860286	 -0.863809
C	 2.054183	 -1.283135	 -2.043358
H	 0.983409	 -2.136338	 -0.390137
H	 -0.039457	 -1.392090	 -1.583632
H	 3.009407	 -1.203799	 -1.535136
H	 1.978804	 -0.451659	 -2.735698
H	 2.064135	 -2.197824	 -2.624431
H	 -3.240910	 0.874416	 -0.936711
H	 -1.747554	 1.818823	 -0.790984
H	 -2.760419	 1.579708	 0.610998

	symmetry c1
}
set optking {
	frozen_dihedral = ("
		9 5 3 2
	")
}

ee,wfn = optimize('scf', return_wfn=True)
oeprop( wfn, 'DIPOLE', 'QUADRUPOLE', 'MULLIKEN_CHARGES')
f=open( 'psi4out.xyz', 'w' )
f.write( "19  " )
f.write( str(ee) + "\n" )
f.write( MOL.save_string_xyz() )
f.close()
--------------------------------------------------------------------------

    Molecular point group: c1
  Charge       = 0
  Multiplicity = 1
  Basis Set: CC-PVTZ
  Basis Set:
  @DF-RHF Final Energy:  -309.17424239855751
    Total Energy =                       -309.1742423985579080
    Molecular point group: c1
  Basis Set: CC-PVTZ
  Basis Set:
  Basis Set: CC-PVTZ
  Basis Set:
  @DF-RHF Final Energy:  -309.17536081528351
    Total Energy =                       -309.1753608152834545
  Basis Set: CC-PVTZ
  Basis Set:
  Basis Set: CC-PVTZ
  Basis Set:
  @DF-RHF Final Energy:  -309.17498387546954
    Total Energy =                       -309.1749838754699340
  Basis Set: CC-PVTZ
  Basis Set:
  Basis Set: CC-PVTZ
  Basis Set:
  @DF-RHF Final Energy:  -309.17561837994219
    Total Energy =                       -309.1756183799420228
  Basis Set: CC-PVTZ
  Basis Set:
  @DF-RHF Final Energy:  -309.17589252474266
    Total Energy =                       -309.1758925247424941
  @DF-RHF Final Energy:  -309.17599988486603
    Total Energy =                       -309.1759998848660871
  @DF-RHF Final Energy:  -309.17603702905069
    Total Energy =                       -309.1760370290509172
  @DF-RHF Final Energy:  -309.17604414070826
    Total Energy =                       -309.1760441407080862
  @DF-RHF Final Energy:  -309.17604817721076
    Total Energy =                       -309.1760481772109301
  @DF-RHF Final Energy:  -309.17605235938566
    Total Energy =                       -309.1760523593854941
  @DF-RHF Final Energy:  -309.17605649899986
    Total Energy =                       -309.1760564990000830
  @DF-RHF Final Energy:  -309.17605784698134
    Total Energy =                       -309.1760578469813368
  @DF-RHF Final Energy:  -309.17606057142626
    Total Energy =                       -309.1760605714263193
  @DF-RHF Final Energy:  -309.17606156975415
    Total Energy =                       -309.1760615697541539
  @DF-RHF Final Energy:  -309.17606837957368
    Total Energy =                       -309.1760683795736213
  @DF-RHF Final Energy:  -309.17608478606286
    Total Energy =                       -309.1760847860626313
  Basis Set: CC-PVTZ
  Basis Set:
  @DF-RHF Final Energy:  -309.17609301040960
    Total Energy =                       -309.1760930104095451
  Basis Set: CC-PVTZ
  Basis Set:
  Basis Set: CC-PVTZ
  Basis Set:
  @DF-RHF Final Energy:  -309.17609415024015
    Total Energy =                       -309.1760941502399760
  Basis Set: CC-PVTZ
  Basis Set:
  Basis Set: CC-PVTZ
  Basis Set:
  @DF-RHF Final Energy:  -309.17609525998881
    Total Energy =                       -309.1760952599892676
  Basis Set: CC-PVTZ
  Basis Set:
  Charge       = 0
  Multiplicity = 1
  Basis Set: CC-PVTZ
  Basis Set:

    Orbital Energies (a.u.)
    -----------------------

    Doubly Occupied:

       1A    -20.537789     2A    -11.319375     3A    -11.230512
       4A    -11.228443     5A    -11.226414     6A    -11.221225
       7A    -11.213201     8A     -1.397338     9A     -1.093929
      10A     -1.027922    11A     -0.983963    12A     -0.892869
      13A     -0.812821    14A     -0.731297    15A     -0.662528
      16A     -0.645030    17A     -0.623935    18A     -0.615731
      19A     -0.587857    20A     -0.574692    21A     -0.552111
      22A     -0.541999    23A     -0.514009    24A     -0.503602
      25A     -0.485528    26A     -0.475270    27A     -0.465504
      28A     -0.400383

  @DF-RHF Final Energy:  -309.17609593143186

   => Energetics <=

    Nuclear Repulsion Energy =            308.6577535125363738
    One-Electron Energy =               -1030.5371488308333028
    Two-Electron Energy =                 412.7032993868648418
    DFT Exchange-Correlation Energy =       0.0000000000000000
    Empirical Dispersion Energy =           0.0000000000000000
    PCM Polarization Energy =               0.0000000000000000
    EFP Energy =                            0.0000000000000000
    Total Energy =                       -309.1760959314320871
    Molecular point group: c1
  Basis Set: CC-PVTZ
  Basis Set:

  -Total Gradient:
     Atom            X                  Y                   Z
    ------   -----------------  -----------------  -----------------
       1        0.000006248282    -0.000010793719     0.000005542896
       2        0.000037254685    -0.000511508348    -0.000016879721
       3       -0.000026623862     0.000591886062    -0.000010704418
       4        0.000040535003     0.000092224877     0.000068835185
       5       -0.000053844412     0.000635480892     0.000005140557
       6        0.000010030699     0.000009373643    -0.000014256770
       7       -0.000005953491     0.000003572208     0.000011693316
       8       -0.000010387041    -0.000002984340     0.000017298277
       9        0.000049149527    -0.000721891278    -0.000007500683
      10       -0.000001212156     0.000008232072    -0.000005297118
      11       -0.000000423834     0.000001564157    -0.000001048958
      12       -0.000001004388    -0.000001006264    -0.000000222953
      13       -0.000000206116     0.000003790414     0.000002373653
      14       -0.000002144719    -0.000001445774     0.000000404253
      15        0.000001386689     0.000001568854    -0.000001211595
      16       -0.000000063360     0.000000094391    -0.000001712457
      17       -0.000040203827    -0.000020958272    -0.000023518423
      18        0.000024688732     0.000020959651     0.000021787266
      19       -0.000027226412    -0.000098159222    -0.000050722304

  **** Optimization is complete! (in 20 steps) ****
    Final optimized geometry and variables:
    Molecular point group: c1

    Geometry (in Angstrom), charge = 0, multiplicity = 1:

    O           -1.955827721104    -0.764443811817     0.796221443847
    C           -1.286003649106     0.204851101426     0.643352671689
    C            0.114493500640     0.293443332928     1.218839473068
    C           -1.806857688420     1.401623983209    -0.120962984874
    C            1.228242796395     0.386967154127     0.167523553065
    H            0.160752462184     1.167214498147     1.862466673835
    H            0.258125423206    -0.582915505471     1.836462100369
    C            1.271770039639    -0.796761391857    -0.796638730194
    H            2.174917767396     0.444748270093     0.694897841342
    H            1.137548638069     1.312380032756    -0.393029767685
    C            2.428950137354    -0.706852845846    -1.785620708600
    H            1.350776844727    -1.717295446183    -0.226493557498
    H            0.336679378048    -0.864245902420    -1.344274325143
    H            3.383512347013    -0.682037609555    -1.270683290419
    H            2.358566758380     0.190161160222    -2.392155064526
    H            2.436845873808    -1.558324302589    -2.455659447132
    H           -2.834616251106     1.231247816826    -0.402333774554
    H           -1.213212812688     1.567877838968    -1.012400949438
    H           -1.734893307485     2.297189599313     0.485920645295

  Mulliken Charges: (a.u.)
   Center  Symbol    Alpha    Beta     Spin     Total
       1     O     4.17571  4.17571  0.00000 -0.35141
       2     C     2.85460  2.85460  0.00000  0.29079
       3     C     3.10696  3.10696  0.00000 -0.21391
       4     C     3.15730  3.15730  0.00000 -0.31461
       5     C     3.11726  3.11726  0.00000 -0.23452
       6     H     0.44035  0.44035  0.00000  0.11930
       7     H     0.43855  0.43855  0.00000  0.12290
       8     C     3.08245  3.08245  0.00000 -0.16490
       9     H     0.44096  0.44096  0.00000  0.11808
      10     H     0.44941  0.44941  0.00000  0.10117
      11     C     3.15006  3.15006  0.00000 -0.30012
      12     H     0.44757  0.44757  0.00000  0.10486
      13     H     0.44992  0.44992  0.00000  0.10016
      14     H     0.45426  0.45426  0.00000  0.09148
      15     H     0.45579  0.45579  0.00000  0.08842
      16     H     0.44588  0.44588  0.00000  0.10823
      17     H     0.43379  0.43379  0.00000  0.13242
      18     H     0.44982  0.44982  0.00000  0.10036
      19     H     0.44936  0.44936  0.00000  0.10128

   Total alpha = 28.00000, Total beta = 28.00000, Total charge = -0.00000

*** Psi4 exiting successfully. Buy a developer a beer!
