  ==> Input File <==

--------------------------------------------------------------------------
set {
	reference rhf
	basis 6-31G*
}

set_num_threads( 1 )
memory 2 gb

molecule MOL {
0 1

O	 0.169884	 1.278546	 -4.242380
C	 -0.363684	 1.228967	 -3.175946
C	 -0.056469	 0.103817	 -2.203340
C	 -1.341099	 2.292227	 -2.727044
C	 1.274704	 0.355511	 -1.476862
H	 0.011367	 -0.815505	 -2.774785
H	 -0.859338	 -0.005978	 -1.479895
C	 1.631333	 -0.777471	 -0.511575
H	 2.050046	 0.478257	 -2.224634
H	 1.219326	 1.292406	 -0.924677
C	 2.915987	 -0.544314	 0.291766
H	 1.720334	 -1.708028	 -1.069132
H	 0.807366	 -0.917005	 0.185173
C	 3.373361	 0.914346	 0.347591
H	 3.708709	 -1.142521	 -0.150311
H	 2.780642	 -0.921148	 1.303579
H	 3.506512	 1.320010	 -0.651625
H	 4.322697	 0.999599	 0.867103
H	 2.660624	 1.545032	 0.868198
H	 -2.333113	 1.858916	 -2.630022
H	 -1.369907	 3.096963	 -3.448400
H	 -1.064847	 2.681005	 -1.751165

	symmetry c1
}
set optking {
	frozen_dihedral = ("
		6 3 2 1,
		6 3 5 8,
		3 5 8 12
	")
}

ee = energy('scf')
oeprop('DIPOLE', 'QUADRUPOLE', 'MULLIKEN_CHARGES')
f=open( 'psi4out.xyz', 'w' )
f.write( "22  " )
f.write( str(ee) + "\n" )
f.write( MOL.save_string_xyz() )
f.close()
--------------------------------------------------------------------------

    Molecular point group: c1

    Geometry (in Angstrom), charge = 0, multiplicity = 1:

       Center              X                  Y                   Z               Mass
    ------------   -----------------  -----------------  -----------------  -----------------
           O         -0.787322844016     0.654994844602    -2.530697334017    15.994914619560
           C         -1.320890844016     0.605415844602    -1.464263334017    12.000000000000
           C         -1.013675844016    -0.519734155398    -0.491657334017    12.000000000000
           C         -2.298305844016     1.668675844602    -1.015361334017    12.000000000000
           C          0.317497155984    -0.268040155398     0.234820665983    12.000000000000
           H         -0.945839844016    -1.439056155398    -1.063102334017     1.007825032070
           H         -1.816544844016    -0.629529155398     0.231787665983     1.007825032070
           C          0.674126155984    -1.401022155398     1.200107665983    12.000000000000
           H          1.092839155984    -0.145294155398    -0.512951334017     1.007825032070
           H          0.262119155984     0.668854844602     0.787005665983     1.007825032070
           C          1.958780155984    -1.167865155398     2.003448665983    12.000000000000
           H          0.763127155984    -2.331579155398     0.642550665983     1.007825032070
           H         -0.149840844016    -1.540556155398     1.896855665983     1.007825032070
           C          2.416154155984     0.290794844602     2.059273665983    12.000000000000
           H          2.751502155984    -1.766072155398     1.561371665983     1.007825032070
           H          1.823435155984    -1.544699155398     3.015261665983     1.007825032070
           H          2.549305155984     0.696458844602     1.060057665983     1.007825032070
           H          3.365490155984     0.376047844602     2.578785665983     1.007825032070
           H          1.703417155984     0.921480844602     2.579880665983     1.007825032070
           H         -3.290319844016     1.235364844602    -0.918339334017     1.007825032070
           H         -2.327113844016     2.473411844602    -1.736717334017     1.007825032070
           H         -2.022053844016     2.057453844602    -0.039482334017     1.007825032070

  Charge       = 0
  Multiplicity = 1
  Basis Set: 6-31G*
  Basis Set:

    Orbital Energies (a.u.)
    -----------------------

    Doubly Occupied:

       1A    -20.547059     2A    -11.324165     3A    -11.228911
       4A    -11.228297     5A    -11.228056     6A    -11.221265
       7A    -11.219576     8A    -11.212025     9A     -1.392820
      10A     -1.096960    11A     -1.043675    12A     -0.998106
      13A     -0.936634    14A     -0.866261    15A     -0.776908
      16A     -0.733203    17A     -0.664738    18A     -0.646399
      19A     -0.630633    20A     -0.617420    21A     -0.594558
      22A     -0.586197    23A     -0.557805    24A     -0.546118
      25A     -0.529996    26A     -0.523286    27A     -0.503693
      28A     -0.485106    29A     -0.468023    30A     -0.463736
      31A     -0.454125    32A     -0.395972

  @DF-RHF Final Energy:  -348.09011794022291

   => Energetics <=

    Nuclear Repulsion Energy =            376.1545243436061696
    One-Electron Energy =               -1217.0459100170214697
    Two-Electron Energy =                 492.8012677331922760
    DFT Exchange-Correlation Energy =       0.0000000000000000
    Empirical Dispersion Energy =           0.0000000000000000
    PCM Polarization Energy =               0.0000000000000000
    EFP Energy =                            0.0000000000000000
    Total Energy =                       -348.0901179402229673

  Mulliken Charges: (a.u.)
   Center  Symbol    Alpha    Beta     Spin     Total
       1     O     4.26273  4.26273  0.00000 -0.52547
       2     C     2.73708  2.73708  0.00000  0.52584
       3     C     3.19846  3.19846  0.00000 -0.39692
       4     C     3.28955  3.28955  0.00000 -0.57910
       5     C     3.16830  3.16830  0.00000 -0.33660
       6     H     0.40164  0.40164  0.00000  0.19673
       7     H     0.41718  0.41718  0.00000  0.16564
       8     C     3.15418  3.15418  0.00000 -0.30837
       9     H     0.40511  0.40511  0.00000  0.18979
      10     H     0.41700  0.41700  0.00000  0.16601
      11     C     3.15413  3.15413  0.00000 -0.30826
      12     H     0.41739  0.41739  0.00000  0.16523
      13     H     0.42245  0.42245  0.00000  0.15510
      14     C     3.24688  3.24688  0.00000 -0.49376
      15     H     0.41933  0.41933  0.00000  0.16134
      16     H     0.41907  0.41907  0.00000  0.16185
      17     H     0.41671  0.41671  0.00000  0.16658
      18     H     0.41692  0.41692  0.00000  0.16616
      19     H     0.42202  0.42202  0.00000  0.15595
      20     H     0.40693  0.40693  0.00000  0.18613
      21     H     0.39714  0.39714  0.00000  0.20572
      22     H     0.40980  0.40980  0.00000  0.18040

   Total alpha = 32.00000, Total beta = 32.00000, Total charge = -0.00000
