  ==> Input File <==

--------------------------------------------------------------------------
set {
	reference rhf
	basis 6-31G*
}

set_num_threads( 1 )
memory 2 gb

molecule MOL {
0 1

O	 1.846825	 1.296220	 0.000415
C	 1.705091	 0.115954	 0.001797
C	 0.381791	 -0.609817	 0.001258
O	 2.721346	 -0.737485	 -0.000216
C	 -0.823008	 0.326187	 0.001381
H	 0.371250	 -1.265087	 -0.865474
H	 0.370908	 -1.265746	 0.867490
C	 -0.555917	 1.616126	 -0.775652
H	 -1.092654	 0.561795	 1.026061
H	 -1.677497	 -0.190709	 -0.424033
C	 -1.753906	 2.567228	 -0.785047
H	 0.304208	 2.127980	 -0.346482
H	 -0.283736	 1.373076	 -1.801677
C	 -1.486852	 3.855377	 -1.562611
H	 -2.025458	 2.813040	 0.239149
H	 -2.613687	 2.057649	 -1.214283
H	 -0.653142	 4.405727	 -1.135696
H	 -2.354095	 4.508224	 -1.551193
H	 -1.245577	 3.644269	 -2.600652
C	 4.024888	 -0.184556	 -0.001949
H	 4.179030	 0.422472	 -0.882452
H	 4.701782	 -1.024608	 -0.003642
H	 4.181981	 0.421185	 0.878906

	symmetry c1
}
set optking {
	frozen_dihedral = ("
		15 11 8 12,
		9 5 8 12,
		1 2 3 6,
		1 2 4 20
	")
}

ee = energy('scf')
oeprop('DIPOLE', 'QUADRUPOLE', 'MULLIKEN_CHARGES')
f=open( 'psi4out.xyz', 'w' )
f.write( "23  " )
f.write( str(ee) + "\n" )
f.write( MOL.save_string_xyz() )
f.close()
--------------------------------------------------------------------------

    Molecular point group: c1

    Geometry (in Angstrom), charge = 0, multiplicity = 1:

       Center              X                  Y                   Z               Mass
    ------------   -----------------  -----------------  -----------------  -----------------
           O          1.130812438453     0.374542775113     0.348778041769    15.994914619560
           C          0.989078438453    -0.805723224887     0.350160041769    12.000000000000
           C         -0.334221561547    -1.531494224887     0.349621041769    12.000000000000
           O          2.005333438453    -1.659162224887     0.348147041769    15.994914619560
           C         -1.539020561547    -0.595490224887     0.349744041769    12.000000000000
           H         -0.344762561547    -2.186764224887    -0.517110958231     1.007825032070
           H         -0.345104561547    -2.187423224887     1.215853041769     1.007825032070
           C         -1.271929561547     0.694448775113    -0.427288958231    12.000000000000
           H         -1.808666561547    -0.359882224887     1.374424041769     1.007825032070
           H         -2.393509561547    -1.112386224887    -0.075669958231     1.007825032070
           C         -2.469918561547     1.645550775113    -0.436683958231    12.000000000000
           H         -0.411804561547     1.206302775113     0.001881041769     1.007825032070
           H         -0.999748561547     0.451398775113    -1.453313958231     1.007825032070
           C         -2.202864561547     2.933699775113    -1.214247958231    12.000000000000
           H         -2.741470561547     1.891362775113     0.587512041769     1.007825032070
           H         -3.329699561547     1.135971775113    -0.865919958231     1.007825032070
           H         -1.369154561547     3.484049775113    -0.787332958231     1.007825032070
           H         -3.070107561547     3.586546775113    -1.202829958231     1.007825032070
           H         -1.961589561547     2.722591775113    -2.252288958231     1.007825032070
           C          3.308875438453    -1.106233224887     0.346414041769    12.000000000000
           H          3.463017438453    -0.499205224887    -0.534088958231     1.007825032070
           H          3.985769438453    -1.946285224887     0.344721041769     1.007825032070
           H          3.465968438453    -0.500492224887     1.227269041769     1.007825032070

  Charge       = 0
  Multiplicity = 1
  Basis Set: 6-31G*
  Basis Set:

    Orbital Energies (a.u.)
    -----------------------

    Doubly Occupied:

       1A    -20.607374     2A    -20.547159     3A    -11.377873
       4A    -11.283436     5A    -11.236901     6A    -11.217354
       7A    -11.201511     8A    -11.198127     9A    -11.188059
      10A     -1.474626    11A     -1.370759    12A     -1.086518
      13A     -1.036218    14A     -0.985552    15A     -0.924591
      16A     -0.839795    17A     -0.787634    18A     -0.773323
      19A     -0.699783    20A     -0.686245    21A     -0.675940
      22A     -0.639341    23A     -0.610076    24A     -0.598083
      25A     -0.560456    26A     -0.552337    27A     -0.549605
      28A     -0.530649    29A     -0.518516    30A     -0.512254
      31A     -0.486434    32A     -0.470716    33A     -0.462790
      34A     -0.451389    35A     -0.442053    36A     -0.402493

  @DF-RHF Final Energy:  -422.95284888204060

   => Energetics <=

    Nuclear Repulsion Energy =            472.1666699341918729
    One-Electron Energy =               -1512.2671337433280314
    Two-Electron Energy =                 617.1476149270966971
    DFT Exchange-Correlation Energy =       0.0000000000000000
    Empirical Dispersion Energy =           0.0000000000000000
    PCM Polarization Energy =               0.0000000000000000
    EFP Energy =                            0.0000000000000000
    Total Energy =                       -422.9528488820395751

  Mulliken Charges: (a.u.)
   Center  Symbol    Alpha    Beta     Spin     Total
       1     O     4.28896  4.28896  0.00000 -0.57791
       2     C     2.60023  2.60023  0.00000  0.79954
       3     C     3.21135  3.21135  0.00000 -0.42271
       4     O     4.30737  4.30737  0.00000 -0.61474
       5     C     3.15534  3.15534  0.00000 -0.31068
       6     H     0.39835  0.39835  0.00000  0.20330
       7     H     0.39715  0.39715  0.00000  0.20569
       8     C     3.17143  3.17143  0.00000 -0.34287
       9     H     0.41802  0.41802  0.00000  0.16395
      10     H     0.41763  0.41763  0.00000  0.16475
      11     C     3.14861  3.14861  0.00000 -0.29721
      12     H     0.37306  0.37306  0.00000  0.25387
      13     H     0.43257  0.43257  0.00000  0.13487
      14     C     3.23803  3.23803  0.00000 -0.47606
      15     H     0.42653  0.42653  0.00000  0.14695
      16     H     0.43040  0.43040  0.00000  0.13921
      17     H     0.42065  0.42065  0.00000  0.15870
      18     H     0.42234  0.42234  0.00000  0.15533
      19     H     0.42368  0.42368  0.00000  0.15263
      20     C     3.09288  3.09288  0.00000 -0.18575
      21     H     0.40879  0.40879  0.00000  0.18242
      22     H     0.40771  0.40771  0.00000  0.18458
      23     H     0.40892  0.40892  0.00000  0.18216

   Total alpha = 36.00000, Total beta = 36.00000, Total charge =  0.00000
