                              Psi4 1.0.54 Driver

  ==> Input File <==

--------------------------------------------------------------------------
set {
	reference rhf
	basis cc-pvtz
}

set_num_threads( 4 )
memory 2 gb

molecule MOL {
0 1

O	 -2.081319	 -0.951530	 -0.502732
N	 -1.613558	 0.006676	 0.014756
C	 -0.329345	 -0.171618	 0.743966
O	 -2.068523	 1.100482	 -0.024385
C	 0.835904	 0.041968	 -0.213982
H	 -0.346048	 -1.174374	 1.137184
H	 -0.333613	 0.555559	 1.538590
C	 0.357065	 0.573383	 -1.562492
H	 1.535036	 0.739542	 0.232294
H	 1.356427	 -0.898915	 -0.350112
C	 1.504117	 0.789310	 -2.543373
H	 -0.172733	 1.509707	 -1.414003
H	 -0.358781	 -0.121921	 -1.990890
H	 2.219613	 1.506157	 -2.156213
H	 2.033570	 -0.137214	 -2.735593
H	 1.137664	 1.164852	 -3.490919

	symmetry c1
}
set optking {
	frozen_dihedral = ("
		9 5 3 2
	")
}

ee,wfn = optimize('scf', return_wfn=True)
oeprop( wfn, 'DIPOLE', 'QUADRUPOLE', 'MULLIKEN_CHARGES')
f=open( 'psi4out.xyz', 'w' )
f.write( "16  " )
f.write( str(ee) + "\n" )
f.write( MOL.save_string_xyz() )
f.close()
--------------------------------------------------------------------------

    Molecular point group: c1
  Charge       = 0
  Multiplicity = 1
  Basis Set: CC-PVTZ
  Basis Set:
  @DF-RHF Final Energy:  -360.89646045076080
    Total Energy =                       -360.8964604507604008
    Molecular point group: c1
  Basis Set: CC-PVTZ
  Basis Set:
  Basis Set: CC-PVTZ
  Basis Set:
  @DF-RHF Final Energy:  -360.89606018732593
    Total Energy =                       -360.8960601873262704
  Basis Set: CC-PVTZ
  Basis Set:
  Basis Set: CC-PVTZ
  Basis Set:
  @DF-RHF Final Energy:  -360.89975037558150
    Total Energy =                       -360.8997503755812204
  Basis Set: CC-PVTZ
  Basis Set:
  Basis Set: CC-PVTZ
  Basis Set:
  @DF-RHF Final Energy:  -360.90132989894238
    Total Energy =                       -360.9013298989424356
  Basis Set: CC-PVTZ
  Basis Set:
  @DF-RHF Final Energy:  -360.90141126945343
    Total Energy =                       -360.9014112694532059
  @DF-RHF Final Energy:  -360.90144701490345
    Total Energy =                       -360.9014470149037379
  Basis Set: CC-PVTZ
  Basis Set:
  @DF-RHF Final Energy:  -360.90145316064144
    Total Energy =                       -360.9014531606416654
  Basis Set: CC-PVTZ
  Basis Set:
  Basis Set: CC-PVTZ
  Basis Set:
  @DF-RHF Final Energy:  -360.90146004511672
    Total Energy =                       -360.9014600451168349
  Basis Set: CC-PVTZ
  Basis Set:
  Basis Set: CC-PVTZ
  Basis Set:
  @DF-RHF Final Energy:  -360.90146205208555
    Total Energy =                       -360.9014620520855487
  Basis Set: CC-PVTZ
  Basis Set:
  Charge       = 0
  Multiplicity = 1
  Basis Set: CC-PVTZ
  Basis Set:

    Orbital Energies (a.u.)
    -----------------------

    Doubly Occupied:

       1A    -20.590786     2A    -20.589342     3A    -15.836369
       4A    -11.296692     5A    -11.252032     6A    -11.231837
       7A    -11.220661     8A     -1.635663     9A     -1.419732
      10A     -1.130348    11A     -1.054853    12A     -0.946871
      13A     -0.857627    14A     -0.814171    15A     -0.748445
      16A     -0.737772    17A     -0.730238    18A     -0.674224
      19A     -0.615504    20A     -0.598310    21A     -0.574507
      22A     -0.540206    23A     -0.506714    24A     -0.497641
      25A     -0.494788    26A     -0.477311    27A     -0.472443
      28A     -0.451912

  @DF-RHF Final Energy:  -360.90146285181658

   => Energetics <=

    Nuclear Repulsion Energy =            322.1788962023777572
    One-Electron Energy =               -1130.1667227484663272
    Two-Electron Energy =                 447.0863636942718813
    DFT Exchange-Correlation Energy =       0.0000000000000000
    Empirical Dispersion Energy =           0.0000000000000000
    PCM Polarization Energy =               0.0000000000000000
    EFP Energy =                            0.0000000000000000
    Total Energy =                       -360.9014628518167456
    Molecular point group: c1
  Basis Set: CC-PVTZ
  Basis Set:

  -Total Gradient:
     Atom            X                  Y                   Z
    ------   -----------------  -----------------  -----------------
       1       -0.000009420177     0.000028657636     0.000010633130
       2        0.000003848982     0.001976011864     0.000581013613
       3       -0.000294146617    -0.002210463015    -0.000930352545
       4        0.000025990260    -0.000098150129    -0.000025876399
       5        0.001669108642    -0.001736893500     0.001304705234
       6       -0.000014425735     0.000001885925     0.000000228668
       7       -0.000023307397     0.000000340889     0.000002461651
       8        0.000039278724     0.000009256248    -0.000038404888
       9       -0.001405520183     0.002027862936    -0.000894910050
      10        0.000003879965     0.000001018973    -0.000004851651
      11       -0.000028722303    -0.000003853122     0.000012057899
      12        0.000004627578    -0.000006147072     0.000001164249
      13        0.000017302811     0.000004392137    -0.000003014948
      14        0.000002586726    -0.000003616529    -0.000001607101
      15        0.000004367512     0.000005733863    -0.000002598507
      16        0.000004551209     0.000003962893    -0.000010648357

  **** Optimization is complete! (in 10 steps) ****
    Final optimized geometry and variables:
    Molecular point group: c1

    Geometry (in Angstrom), charge = 0, multiplicity = 1:

    O           -1.605559449837    -1.168698416220     0.213376503056
    N           -1.099290634956    -0.235924830903     0.742497832798
    C            0.290029383763    -0.410290485993     1.247191528000
    O           -1.605729428362     0.824779356117     0.891858968013
    C            1.359355530647    -0.144258981851     0.161704079229
    H            0.336003311975    -1.422103232913     1.610274710104
    H            0.375544842868     0.284715722659     2.063723812302
    C            0.869422109940     0.451240146333    -1.160652572949
    H            2.079279375191     0.542837953475     0.588549370686
    H            1.878470756346    -1.071822710315    -0.040675456071
    C            2.025241664287     0.689278552729    -2.126182190142
    H            0.356680082530     1.387234628134    -0.973238113440
    H            0.148983246346    -0.214324431284    -1.620406242276
    H            2.751438826994     1.379185821856    -1.709849317103
    H            2.541527086430    -0.236061080276    -2.357976218697
    H            1.666277206069     1.109569375968    -3.057516676122

  Mulliken Charges: (a.u.)
   Center  Symbol    Alpha    Beta     Spin     Total
       1     O     4.17592  4.17592  0.00000 -0.35184
       2     N     3.27335  3.27335  0.00000  0.45331
       3     C     3.03811  3.03811  0.00000 -0.07622
       4     O     4.17533  4.17533  0.00000 -0.35065
       5     C     3.10123  3.10123  0.00000 -0.20246
       6     H     0.43200  0.43200  0.00000  0.13600
       7     H     0.43389  0.43389  0.00000  0.13222
       8     C     3.09718  3.09718  0.00000 -0.19436
       9     H     0.44595  0.44595  0.00000  0.10810
      10     H     0.44394  0.44394  0.00000  0.11212
      11     C     3.15164  3.15164  0.00000 -0.30327
      12     H     0.43957  0.43957  0.00000  0.12087
      13     H     0.43929  0.43929  0.00000  0.12142
      14     H     0.45480  0.45480  0.00000  0.09041
      15     H     0.45416  0.45416  0.00000  0.09167
      16     H     0.44365  0.44365  0.00000  0.11270

   Total alpha = 28.00000, Total beta = 28.00000, Total charge = -0.00000

*** Psi4 exiting successfully. Buy a developer a beer!
