  ==> Input File <==

--------------------------------------------------------------------------
set {
	reference rhf
	basis 6-31G*
}

set_num_threads( 4 )
memory 2 gb

molecule MOL {
0 1

O	 1.846825	 1.296220	 0.000415
C	 1.705091	 0.115954	 0.001797
C	 0.381791	 -0.609817	 0.001258
O	 2.721346	 -0.737485	 -0.000216
C	 -0.823008	 0.326187	 0.001381
H	 0.371250	 -1.265087	 -0.865474
H	 0.370908	 -1.265746	 0.867490
C	 -2.149452	 -0.435131	 -0.000098
H	 -0.770201	 0.977095	 -0.865636
H	 -0.771220	 0.975655	 0.869608
C	 -3.368779	 0.488503	 -0.000883
H	 -2.193746	 -1.087250	 -0.871175
H	 -2.195311	 -1.087803	 0.870418
C	 -3.068938	 1.871833	 -0.576855
H	 -3.740734	 0.593253	 1.015886
H	 -4.170015	 0.025074	 -0.572190
H	 -2.294629	 2.375537	 -0.005067
H	 -3.952266	 2.502721	 -0.564040
H	 -2.726856	 1.802784	 -1.605701
C	 4.024888	 -0.184556	 -0.001949
H	 4.179030	 0.422472	 -0.882452
H	 4.701782	 -1.024608	 -0.003642
H	 4.181981	 0.421185	 0.878906

	symmetry c1
}
set optking {
	frozen_dihedral = ("
		15 11 8 12
	")
}

ee = optimize('scf')
oeprop('DIPOLE', 'QUADRUPOLE', 'MULLIKEN_CHARGES')
f=open( 'psi4out.xyz', 'w' )
f.write( "23  " )
f.write( str(ee) + "\n" )
f.write( MOL.save_string_xyz() )
f.close()
--------------------------------------------------------------------------

    Molecular point group: c1
  Charge       = 0
  Multiplicity = 1
  Basis Set: 6-31G*
  Basis Set:
  @DF-RHF Final Energy:  -422.96651877441656
    Total Energy =                       -422.9665187744162722
    Molecular point group: c1
  Basis Set: 6-31G*
  Basis Set:
  Basis Set: 6-31G*
  Basis Set:
  @DF-RHF Final Energy:  -422.96759826517342
    Total Energy =                       -422.9675982651735922
  Basis Set: 6-31G*
  Basis Set:
  Basis Set: 6-31G*
  Basis Set:
  @DF-RHF Final Energy:  -422.96967179229830
    Total Energy =                       -422.9696717922982998
  Basis Set: 6-31G*
  Basis Set:
  Basis Set: 6-31G*
  Basis Set:
  @DF-RHF Final Energy:  -422.96952127910424
    Total Energy =                       -422.9695212791041286
  Basis Set: 6-31G*
  Basis Set:
  Basis Set: 6-31G*
  Basis Set:
  @DF-RHF Final Energy:  -422.96958597961407
    Total Energy =                       -422.9695859796142940
  Basis Set: 6-31G*
  Basis Set:
  Basis Set: 6-31G*
  Basis Set:
  @DF-RHF Final Energy:  -422.96991871636106
    Total Energy =                       -422.9699187163610077
  Basis Set: 6-31G*
  Basis Set:
  Charge       = 0
  Multiplicity = 1
  Basis Set: 6-31G*
  Basis Set:

    Orbital Energies (a.u.)
    -----------------------

    Doubly Occupied:

       1A    -20.603607     2A    -20.545407     3A    -11.372221
       4A    -11.280837     5A    -11.235456     6A    -11.219106
       7A    -11.218045     8A    -11.216716     9A    -11.207696
      10A     -1.469294    11A     -1.362734    12A     -1.091760
      13A     -1.040452    14A     -0.984934    15A     -0.931276
      16A     -0.860084    17A     -0.779644    18A     -0.765852
      19A     -0.696465    20A     -0.683526    21A     -0.672185
      22A     -0.646299    23A     -0.608495    24A     -0.598310
      25A     -0.591263    26A     -0.557393    27A     -0.536437
      28A     -0.524923    29A     -0.519469    30A     -0.516515
      31A     -0.493236    32A     -0.463664    33A     -0.462305
      34A     -0.457764    35A     -0.450735    36A     -0.435566

  @DF-RHF Final Energy:  -422.96991920420527

   => Energetics <=

    Nuclear Repulsion Energy =            457.9552409933360764
    One-Electron Energy =               -1483.6509786590931981
    Two-Electron Energy =                 602.7258184615518530
    DFT Exchange-Correlation Energy =       0.0000000000000000
    Empirical Dispersion Energy =           0.0000000000000000
    PCM Polarization Energy =               0.0000000000000000
    EFP Energy =                            0.0000000000000000
    Total Energy =                       -422.9699192042053255
    Molecular point group: c1
  Basis Set: 6-31G*
  Basis Set:

  -Total Gradient:
     Atom            X                  Y                   Z
    ------   -----------------  -----------------  -----------------
       1        0.000014311757    -0.000023884638     0.000026222319
       2       -0.000011990069    -0.000005049119    -0.000065074118
       3        0.000006133015    -0.000004966133    -0.000043473785
       4        0.000014049408     0.000020600703     0.000023721387
       5       -0.000055852730     0.000037587591     0.000160261835
       6        0.000006037165    -0.000028845873    -0.000006071362
       7       -0.000002127271     0.000034884586    -0.000011452046
       8        0.002623575860     0.004188173495    -0.004395743032
       9       -0.000076575685     0.000088284370     0.000012085449
      10        0.000048161407    -0.000030284953     0.000009622369
      11        0.003713742485     0.005186613397     0.001706117539
      12       -0.002752125151    -0.004389270333     0.003436932580
      13       -0.000013971782    -0.000008657209    -0.000037397209
      14       -0.000011007991    -0.000059293107    -0.000131190741
      15       -0.003597022775    -0.005036081008    -0.000734430970
      16        0.000005598152     0.000029039715     0.000036384556
      17        0.000115797367    -0.000042785721    -0.000022237670
      18        0.000011386018     0.000009457570     0.000032117113
      19       -0.000059193206     0.000042219383     0.000006954300
      20        0.000007357957    -0.000013235738    -0.000009215735
      21        0.000003191688     0.000000464356     0.000003032492
      22        0.000011183178     0.000004376716     0.000001910497
      23       -0.000000658795     0.000000651949     0.000000924229

  **** Optimization is complete! (in 7 steps) ****
    Final optimized geometry and variables:
    Molecular point group: c1

    Geometry (in Angstrom), charge = 0, multiplicity = 1:

    O            1.728099417747     1.026271717222     0.094788417431
    C            1.555654455109    -0.149751888681     0.075355827305
    C            0.213961881025    -0.840611294102     0.049963425248
    O            2.549315125802    -1.029403669785     0.074202787411
    C           -0.965634660278     0.127368091699     0.052230825949
    H            0.195122216338    -1.481405909037    -0.827500576997
    H            0.177314740425    -1.509823002492     0.905113390090
    C           -2.302815745102    -0.613610447855     0.018268783122
    H           -0.875405958772     0.794707331718    -0.796851157137
    H           -0.909886695239     0.753631317430     0.937298261322
    C           -3.570488629246     0.265422113735     0.096093947882
    H           -2.360637510805    -1.258636471987    -0.856159928687
    H           -2.331423069471    -1.304808723973     0.859121494015
    C           -3.477390739739     1.651040270507    -0.542249672724
    H           -3.893699235527     0.343981519329     1.130847661541
    H           -4.375794382616    -0.278075233790    -0.392904148540
    H           -2.742917949572     2.279561302835    -0.050718017770
    H           -4.435575051470     2.157660293738    -0.481829089588
    H           -3.207382908728     1.585197971829    -1.592446597702
    C            3.866772284303    -0.510916727979     0.097135952302
    H            4.048480438623     0.103873142093    -0.772650456636
    H            4.521564551426    -1.368355309356     0.092370052773
    H            4.027825535606     0.078295980965     0.988433059024

  Mulliken Charges: (a.u.)
   Center  Symbol    Alpha    Beta     Spin     Total
       1     O     4.28623  4.28623  0.00000 -0.57245
       2     C     2.60498  2.60498  0.00000  0.79004
       3     C     3.20805  3.20805  0.00000 -0.41609
       4     O     4.30727  4.30727  0.00000 -0.61454
       5     C     3.15479  3.15479  0.00000 -0.30959
       6     H     0.40060  0.40060  0.00000  0.19880
       7     H     0.40067  0.40067  0.00000  0.19867
       8     C     3.15765  3.15765  0.00000 -0.31529
       9     H     0.40882  0.40882  0.00000  0.18236
      10     H     0.41187  0.41187  0.00000  0.17626
      11     C     3.15317  3.15317  0.00000 -0.30633
      12     H     0.42249  0.42249  0.00000  0.15503
      13     H     0.42273  0.42273  0.00000  0.15454
      14     C     3.24351  3.24351  0.00000 -0.48703
      15     H     0.42082  0.42082  0.00000  0.15835
      16     H     0.42108  0.42108  0.00000  0.15785
      17     H     0.41603  0.41603  0.00000  0.16795
      18     H     0.41889  0.41889  0.00000  0.16223
      19     H     0.42135  0.42135  0.00000  0.15730
      20     C     3.09244  3.09244  0.00000 -0.18487
      21     H     0.40908  0.40908  0.00000  0.18183
      22     H     0.40842  0.40842  0.00000  0.18316
      23     H     0.40908  0.40908  0.00000  0.18183

   Total alpha = 36.00000, Total beta = 36.00000, Total charge = -0.00000
