                              Psi4 1.0.54 Driver

  ==> Input File <==

--------------------------------------------------------------------------
set {
	reference rhf
	basis cc-pvtz
}

set_num_threads( 4 )
memory 2 gb

molecule MOL {
0 1

H	 -2.816458	 -0.841657	 -0.064679
N	 -1.878861	 -0.711874	 0.250184
C	 -1.341419	 0.551458	 -0.220231
H	 -1.333674	 -1.468530	 -0.105118
C	 0.082190	 0.731516	 0.254705
H	 -1.357065	 0.652078	 -1.304747
H	 -1.939897	 1.357530	 0.189797
O	 0.881195	 -0.248324	 -0.336237
H	 0.440901	 1.722476	 -0.020063
H	 0.119896	 0.643586	 1.338114
C	 0.338702	 -0.822123	 -1.478899
H	 1.037353	 -1.561259	 -1.843522
H	 -0.608925	 -1.312475	 -1.266176
H	 0.174965	 -0.080495	 -2.257193

	symmetry c1
}
set optking {
	frozen_dihedral = ("
		11 8 5 3
	")
}

ee,wfn = optimize('scf', return_wfn=True)
oeprop( wfn, 'DIPOLE', 'QUADRUPOLE', 'MULLIKEN_CHARGES')
f=open( 'psi4out.xyz', 'w' )
f.write( "14  " )
f.write( str(ee) + "\n" )
f.write( MOL.save_string_xyz() )
f.close()
--------------------------------------------------------------------------

    Molecular point group: c1
  Charge       = 0
  Multiplicity = 1
  Basis Set: CC-PVTZ
  Basis Set:
  @DF-RHF Final Energy:  -248.18686436205806
    Total Energy =                       -248.1868643620580315
    Molecular point group: c1
  Basis Set: CC-PVTZ
  Basis Set:
  Basis Set: CC-PVTZ
  Basis Set:
  @DF-RHF Final Energy:  -248.16428453114673
    Total Energy =                       -248.1642845311465635
  Basis Set: CC-PVTZ
  Basis Set:
  Basis Set: CC-PVTZ
  Basis Set:
  @DF-RHF Final Energy:  -248.17184791583171
    Total Energy =                       -248.1718479158318473
  Basis Set: CC-PVTZ
  Basis Set:
  Basis Set: CC-PVTZ
  Basis Set:
  @DF-RHF Final Energy:  -248.18855812606640
    Total Energy =                       -248.1885581260663685
  Basis Set: CC-PVTZ
  Basis Set:
  @DF-RHF Final Energy:  -248.21177168001421
    Total Energy =                       -248.2117716800139533
  @DF-RHF Final Energy:  -248.21330920743108
    Total Energy =                       -248.2133092074308820
  Basis Set: CC-PVTZ
  Basis Set:
  @DF-RHF Final Energy:  -248.21358583998273
    Total Energy =                       -248.2135858399829544
  Basis Set: CC-PVTZ
  Basis Set:
  Basis Set: CC-PVTZ
  Basis Set:
  @DF-RHF Final Energy:  -248.21363161384863
    Total Energy =                       -248.2136316138486904
  Basis Set: CC-PVTZ
  Basis Set:
  Basis Set: CC-PVTZ
  Basis Set:
  @DF-RHF Final Energy:  -248.21363494945922
    Total Energy =                       -248.2136349494589354
  Basis Set: CC-PVTZ
  Basis Set:
  Charge       = 0
  Multiplicity = 1
  Basis Set: CC-PVTZ
  Basis Set:

    Orbital Energies (a.u.)
    -----------------------

    Doubly Occupied:

       1A    -20.544885     2A    -15.533643     3A    -11.265292
       4A    -11.264841     5A    -11.247970     6A     -1.374215
       7A     -1.183634     8A     -1.002502     9A     -0.925463
      10A     -0.805800    11A     -0.688446    12A     -0.677401
      13A     -0.648425    14A     -0.615768    15A     -0.606124
      16A     -0.547542    17A     -0.539963    18A     -0.523236
      19A     -0.453760    20A     -0.411441    21A     -0.392028

  @DF-RHF Final Energy:  -248.21363589230117

   => Energetics <=

    Nuclear Repulsion Energy =            196.9502621921370746
    One-Electron Energy =                -727.8230444729218789
    Two-Electron Energy =                 282.6591463884834639
    DFT Exchange-Correlation Energy =       0.0000000000000000
    Empirical Dispersion Energy =           0.0000000000000000
    PCM Polarization Energy =               0.0000000000000000
    EFP Energy =                            0.0000000000000000
    Total Energy =                       -248.2136358923013404
    Molecular point group: c1
  Basis Set: CC-PVTZ
  Basis Set:

  -Total Gradient:
     Atom            X                  Y                   Z
    ------   -----------------  -----------------  -----------------
       1        0.000000372707     0.000003990961     0.000005967081
       2        0.000013301224    -0.000032074364     0.000027632979
       3        0.001338236185     0.002690639943    -0.003777371918
       4       -0.000031602229     0.000010160756     0.000005321784
       5       -0.003457380265    -0.005050749982     0.007554320278
       6       -0.000008162838    -0.000013729061    -0.000009915698
       7       -0.000015384676    -0.000025875647     0.000005408140
       8        0.005285205564     0.004861733604    -0.007439252568
       9       -0.000046063459    -0.000034659633     0.000000279330
      10       -0.000003302164    -0.000003544024     0.000001131926
      11       -0.003085875875    -0.002389025167     0.003645568165
      12       -0.000008090407    -0.000015042094    -0.000005452328
      13        0.000023445995    -0.000010750186    -0.000005044477
      14       -0.000004699761     0.000008924892    -0.000008592694

  **** Optimization is complete! (in 10 steps) ****
    Final optimized geometry and variables:
    Molecular point group: c1

    Geometry (in Angstrom), charge = 0, multiplicity = 1:

    H           -2.051239880448     1.068824763277     1.470398785697
    N           -1.237493262349     0.501791010344     1.363825651666
    C           -0.272266368850     1.121046291090     0.469833522656
    H           -1.533007258458    -0.391349261614     1.034329190677
    C            0.963295744766     0.258534759087     0.276583150904
    H           -0.687529849129     1.402906014935    -0.495198396363
    H            0.067611588120     2.037414075101     0.938520116161
    O            0.851735707522    -0.868127072053    -0.558552415151
    H            1.744652259219     0.895918647437    -0.130953839451
    H            1.295723871985    -0.101697473292     1.240342612717
    C           -0.172594344797    -0.965057201432    -1.491167507914
    H           -0.043174780143    -1.912105594885    -1.995167377108
    H           -1.159792987967    -0.954127332608    -1.041526470376
    H           -0.129658988303    -0.175701732125    -2.237963174485

  Mulliken Charges: (a.u.)
   Center  Symbol    Alpha    Beta     Spin     Total
       1     H     0.42911  0.42911  0.00000  0.14179
       2     N     3.69002  3.69002  0.00000 -0.38003
       3     C     3.06020  3.06020  0.00000 -0.12041
       4     H     0.42443  0.42443  0.00000  0.15113
       5     C     2.96689  2.96689  0.00000  0.06623
       6     H     0.45659  0.45659  0.00000  0.08683
       7     H     0.44576  0.44576  0.00000  0.10849
       8     O     4.18168  4.18168  0.00000 -0.36336
       9     H     0.46632  0.46632  0.00000  0.06736
      10     H     0.45574  0.45574  0.00000  0.08852
      11     C     3.03476  3.03476  0.00000 -0.06952
      12     H     0.44076  0.44076  0.00000  0.11849
      13     H     0.47762  0.47762  0.00000  0.04476
      14     H     0.47013  0.47013  0.00000  0.05974

   Total alpha = 21.00000, Total beta = 21.00000, Total charge =  0.00000

*** Psi4 exiting successfully. Buy a developer a beer!
