  ==> Input File <==

--------------------------------------------------------------------------
set {
	reference rhf
	basis 6-31G*
}

set_num_threads( 4 )
memory 2 gb

molecule MOL {
0 1

O	 -2.042549	 -1.228399	 -0.269030
C	 -1.653912	 -0.146171	 0.050137
C	 -0.332303	 0.024011	 0.778412
C	 -2.438579	 1.106236	 -0.272369
C	 0.845713	 -0.001731	 -0.208243
H	 -0.323783	 0.953829	 1.340327
H	 -0.235459	 -0.796807	 1.480410
C	 2.200309	 0.136118	 0.488247
H	 0.733710	 0.800019	 -0.936072
H	 0.811185	 -0.933796	 -0.764304
C	 3.376067	 0.056316	 -0.484599
H	 2.237004	 1.082377	 1.023666
H	 2.297782	 -0.644851	 1.238683
H	 3.324984	 0.846612	 -1.228155
H	 3.384459	 -0.893232	 -1.011601
H	 4.322866	 0.153953	 0.037000
H	 -3.277823	 0.863061	 -0.908988
H	 -1.806773	 1.843019	 -0.759671
H	 -2.802853	 1.554979	 0.648059

	symmetry c1
}
set optking {
	frozen_dihedral = ("
		11 8 5 9
	")
}

ee = optimize('scf')
oeprop('DIPOLE', 'QUADRUPOLE', 'MULLIKEN_CHARGES')
f=open( 'psi4out.xyz', 'w' )
f.write( "19  " )
f.write( str(ee) + "\n" )
f.write( MOL.save_string_xyz() )
f.close()
--------------------------------------------------------------------------

    Molecular point group: c1
  Charge       = 0
  Multiplicity = 1
  Basis Set: 6-31G*
  Basis Set:
  @DF-RHF Final Energy:  -309.06514876179654
    Total Energy =                       -309.0651487617964790
    Molecular point group: c1
  Basis Set: 6-31G*
  Basis Set:
  Basis Set: 6-31G*
  Basis Set:
  @DF-RHF Final Energy:  -309.06490016047979
    Total Energy =                       -309.0649001604798514
  Basis Set: 6-31G*
  Basis Set:
  Basis Set: 6-31G*
  Basis Set:
  @DF-RHF Final Energy:  -309.06514595135582
    Total Energy =                       -309.0651459513559303
  Basis Set: 6-31G*
  Basis Set:
  Basis Set: 6-31G*
  Basis Set:
  @DF-RHF Final Energy:  -309.06514798948416
    Total Energy =                       -309.0651479894841032
  Basis Set: 6-31G*
  Basis Set:
  Basis Set: 6-31G*
  Basis Set:
  @DF-RHF Final Energy:  -309.06509554698152
    Total Energy =                       -309.0650955469816381
  Basis Set: 6-31G*
  Basis Set:
  Basis Set: 6-31G*
  Basis Set:
  @DF-RHF Final Energy:  -309.06515028048295
    Total Energy =                       -309.0651502804828965
  Basis Set: 6-31G*
  Basis Set:
  Charge       = 0
  Multiplicity = 1
  Basis Set: 6-31G*
  Basis Set:

    Orbital Energies (a.u.)
    -----------------------

    Doubly Occupied:

       1A    -20.547554     2A    -11.324655     3A    -11.230577
       4A    -11.229423     5A    -11.228319     6A    -11.224842
       7A    -11.214868     8A     -1.393301     9A     -1.091353
      10A     -1.029284    11A     -0.983838    12A     -0.889908
      13A     -0.806730    14A     -0.733279    15A     -0.663496
      16A     -0.645552    17A     -0.622507    18A     -0.613110
      19A     -0.582304    20A     -0.573422    21A     -0.552578
      22A     -0.537258    23A     -0.513321    24A     -0.498966
      25A     -0.482287    26A     -0.475947    27A     -0.467176
      28A     -0.396887

  @DF-RHF Final Energy:  -309.06515044219708

   => Energetics <=

    Nuclear Repulsion Energy =            301.2287788980495975
    One-Electron Energy =               -1015.4823768789784708
    Two-Electron Energy =                 405.1884475387319640
    DFT Exchange-Correlation Energy =       0.0000000000000000
    Empirical Dispersion Energy =           0.0000000000000000
    PCM Polarization Energy =               0.0000000000000000
    EFP Energy =                            0.0000000000000000
    Total Energy =                       -309.0651504421968525
    Molecular point group: c1
  Basis Set: 6-31G*
  Basis Set:

  -Total Gradient:
     Atom            X                  Y                   Z
    ------   -----------------  -----------------  -----------------
       1        0.000022279909     0.000005771703    -0.000046430510
       2       -0.000071136409    -0.000015326751     0.000135096022
       3        0.000017749962     0.000000250454    -0.000030989596
       4        0.000025221012     0.000005562048    -0.000043260467
       5        0.000202157712    -0.000331703795    -0.000307622336
       6       -0.000004635537     0.000000174506    -0.000003673120
       7       -0.000007440022    -0.000001864025    -0.000001070379
       8       -0.000048623813     0.000372722401     0.000009960579
       9       -0.000160395947     0.000216611163     0.000252169441
      10        0.000013391430     0.000007317587     0.000005796620
      11        0.000013696519    -0.000241313334     0.000032199972
      12        0.000008535202    -0.000004086377    -0.000006022118
      13       -0.000011739984    -0.000004458823     0.000003745253
      14       -0.000005018195    -0.000011874659    -0.000008900995
      15        0.000007140006    -0.000009537140     0.000013376906
      16       -0.000000314632     0.000013619472    -0.000003293208
      17        0.000000176398     0.000000969319    -0.000001359858
      18       -0.000005027463     0.000006948495    -0.000001697355
      19        0.000003983853    -0.000009782243     0.000001975153

  **** Optimization is complete! (in 7 steps) ****
    Final optimized geometry and variables:
    Molecular point group: c1

    Geometry (in Angstrom), charge = 0, multiplicity = 1:

    O           -2.044900382212    -1.220038437233    -0.270846286506
    C           -1.654433243918    -0.138822125423     0.049530941449
    C           -0.332488708782     0.028279366125     0.777858060913
    C           -2.436462838965     1.115341581015    -0.272605448485
    C            0.845469072943     0.001084193376    -0.209094826134
    H           -0.322177373103     0.957690659708     1.340464955090
    H           -0.237174440621    -0.793222629328     1.479218223301
    C            2.199686079308     0.142505087152     0.487476857530
    H            0.731865291207     0.802526851702    -0.937020190542
    H            0.811369251730    -0.932035314101    -0.763246003674
    C            3.375794900220     0.065449880756    -0.485187138800
    H            2.233287854776     1.088109741603     1.024125572999
    H            2.299755692691    -0.639171869973     1.236902263649
    H            3.319072988185     0.850602829681    -1.233830515635
    H            3.390657222236    -0.887352529886    -1.006044143336
    H            4.321979552943     0.173162767235     0.035558135998
    H           -3.275635345816     0.874287842798    -0.910126137980
    H           -1.802921448901     1.851415729343    -0.758723855977
    H           -2.800693576896     1.563920366827     0.647929063483

  Mulliken Charges: (a.u.)
   Center  Symbol    Alpha    Beta     Spin     Total
       1     O     4.26204  4.26204  0.00000 -0.52407
       2     C     2.73723  2.73723  0.00000  0.52553
       3     C     3.20015  3.20015  0.00000 -0.40030
       4     C     3.28956  3.28956  0.00000 -0.57912
       5     C     3.16096  3.16096  0.00000 -0.32191
       6     H     0.41689  0.41689  0.00000  0.16622
       7     H     0.40105  0.40105  0.00000  0.19791
       8     C     3.15182  3.15182  0.00000 -0.30364
       9     H     0.42096  0.42096  0.00000  0.15809
      10     H     0.40643  0.40643  0.00000  0.18715
      11     C     3.24031  3.24031  0.00000 -0.48062
      12     H     0.42229  0.42229  0.00000  0.15542
      13     H     0.41933  0.41933  0.00000  0.16133
      14     H     0.42118  0.42118  0.00000  0.15764
      15     H     0.41875  0.41875  0.00000  0.16251
      16     H     0.41746  0.41746  0.00000  0.16507
      17     H     0.39700  0.39700  0.00000  0.20599
      18     H     0.40986  0.40986  0.00000  0.18029
      19     H     0.40674  0.40674  0.00000  0.18651

   Total alpha = 28.00000, Total beta = 28.00000, Total charge = -0.00000
