  ==> Input File <==

--------------------------------------------------------------------------
set {
	reference rhf
	basis cc-pvtz
}

set_num_threads( 4 )
memory 2 gb

molecule MOL {
0 1

H	 -3.547847	 0.322501	 -0.497368
O	 -3.097602	 -0.291129	 0.054985
C	 -1.770543	 -0.100993	 0.015462
C	 -1.190304	 0.893518	 -0.762166
C	 -0.980709	 -0.938712	 0.785249
H	 -1.809688	 1.539517	 -1.356705
C	 0.175969	 1.045095	 -0.765999
H	 -1.448243	 -1.699213	 1.377762
C	 0.385890	 -0.773761	 0.770287
H	 0.635828	 1.808533	 -1.361652
C	 0.981121	 0.213562	 0.000000
H	 0.999617	 -1.423111	 1.367113
C	 2.447402	 0.371303	 0.000000
O	 3.227427	 -0.521847	 0.000000
H	 2.796538	 1.409525	 0.000000

	symmetry c1
}
set optking {
	frozen_dihedral = ("
		7 11 13 14
	")
}

ee = optimize('scf')
oeprop('DIPOLE', 'QUADRUPOLE', 'MULLIKEN_CHARGES')
f=open( 'psi4out.xyz', 'w' )
f.write( "15  " )
f.write( str(ee) + "\n" )
f.write( MOL.save_string_xyz() )
f.close()
--------------------------------------------------------------------------

    Molecular point group: c1
  Charge       = 0
  Multiplicity = 1
  Basis Set: CC-PVTZ
  Basis Set:
  @DF-RHF Final Energy:  -418.43605167583723
    Total Energy =                       -418.4360516758373478
    Molecular point group: c1
  Basis Set: CC-PVTZ
  Basis Set:
  Basis Set: CC-PVTZ
  Basis Set:
  @DF-RHF Final Energy:  -418.43550307841372
    Total Energy =                       -418.4355030784137170
  Basis Set: CC-PVTZ
  Basis Set:
  Basis Set: CC-PVTZ
  Basis Set:
  @DF-RHF Final Energy:  -418.43687255223523
    Total Energy =                       -418.4368725522353998
  Basis Set: CC-PVTZ
  Basis Set:
  Basis Set: CC-PVTZ
  Basis Set:
  @DF-RHF Final Energy:  -418.43717516047877
    Total Energy =                       -418.4371751604787733
  Basis Set: CC-PVTZ
  Basis Set:
  Basis Set: CC-PVTZ
  Basis Set:
  @DF-RHF Final Energy:  -418.43718462723371
    Total Energy =                       -418.4371846272337052
  Basis Set: CC-PVTZ
  Basis Set:
  Basis Set: CC-PVTZ
  Basis Set:
  @DF-RHF Final Energy:  -418.43718694105451
    Total Energy =                       -418.4371869410546196
  Basis Set: CC-PVTZ
  Basis Set:
  Charge       = 0
  Multiplicity = 1
  Basis Set: CC-PVTZ
  Basis Set:

    Orbital Energies (a.u.)
    -----------------------

    Doubly Occupied:

       1A    -20.602264     2A    -20.550709     3A    -11.325221
       4A    -11.319111     5A    -11.258716     6A    -11.251432
       7A    -11.241779     8A    -11.238522     9A    -11.235334
      10A     -1.435048    11A     -1.406233    12A     -1.174324
      13A     -1.045211    14A     -1.039449    15A     -0.895579
      16A     -0.861224    17A     -0.806005    18A     -0.760135
      19A     -0.700741    20A     -0.690032    21A     -0.645867
      22A     -0.630811    23A     -0.612860    24A     -0.610384
      25A     -0.591521    26A     -0.562679    27A     -0.546827
      28A     -0.508286    29A     -0.492302    30A     -0.423215
      31A     -0.360407    32A     -0.330678

  @DF-RHF Final Energy:  -418.43718635201827

   => Energetics <=

    Nuclear Repulsion Energy =            402.2497560709873028
    One-Electron Energy =               -1367.0680689382811579
    Two-Electron Energy =                 546.3811265152754686
    DFT Exchange-Correlation Energy =       0.0000000000000000
    Empirical Dispersion Energy =           0.0000000000000000
    PCM Polarization Energy =               0.0000000000000000
    EFP Energy =                            0.0000000000000000
    Total Energy =                       -418.4371863520183297
    Molecular point group: c1
  Basis Set: CC-PVTZ
  Basis Set:

  -Total Gradient:
     Atom            X                  Y                   Z
    ------   -----------------  -----------------  -----------------
       1        0.000085281747    -0.000002317255     0.000013245521
       2       -0.000034586731    -0.000022028536    -0.000010924946
       3       -0.000011747910     0.000034203947     0.000160769206
       4        0.000081028207     0.000052851768     0.000030643127
       5       -0.000101444629    -0.000050232342    -0.000235248439
       6       -0.000012989817     0.000023606480     0.000003593681
       7        0.000012615031    -0.004373997187    -0.004678091268
       8        0.000002528829    -0.000005526627     0.000050533651
       9        0.000114787576    -0.000018233205    -0.000085820488
      10        0.000030581716     0.000040391411    -0.000052847754
      11       -0.000310111669     0.005932805345     0.003376451018
      12       -0.000049863694     0.000053620219     0.000106823783
      13        0.000568470785    -0.001253940090     0.009051723102
      14       -0.000411267375    -0.000432032183    -0.007729623861
      15        0.000036717928     0.000020828253    -0.000001226332

  **** Optimization is complete! (in 7 steps) ****
    Final optimized geometry and variables:
    Molecular point group: c1

    Geometry (in Angstrom), charge = 0, multiplicity = 1:

    H           -3.543712850295     0.314517489257    -0.555587847284
    O           -3.095146654496    -0.292859818236     0.004958241517
    C           -1.769386353119    -0.081660615135    -0.010692375317
    C           -1.186876681839     0.917270309942    -0.768678476152
    C           -0.981161405420    -0.917355977667     0.771264949787
    H           -1.795268345399     1.553938353315    -1.384091368917
    C            0.183355753810     1.089505696882    -0.728018100810
    H           -1.453432228134    -1.689128471673     1.345781444871
    C            0.380618799447    -0.749330131404     0.782296136691
    H            0.631063875551     1.871122551795    -1.314269833816
    C            0.978079382811     0.273533960024     0.052635834148
    H            0.998407445912    -1.408191422534     1.360472171929
    C            2.452647965490     0.390722115722    -0.027990304619
    O            3.199020182014    -0.528511923809    -0.012259108970
    H            2.832400923785     1.407250609888    -0.179648292005

  Mulliken Charges: (a.u.)
   Center  Symbol    Alpha    Beta     Spin     Total
       1     H     0.38603  0.38603  0.00000  0.22794
       2     O     4.16723  4.16723  0.00000 -0.33447
       3     C     2.84808  2.84808  0.00000  0.30384
       4     C     3.13312  3.13312  0.00000 -0.26624
       5     C     3.10197  3.10197  0.00000 -0.20395
       6     H     0.43217  0.43217  0.00000  0.13566
       7     C     3.07779  3.07779  0.00000 -0.15559
       8     H     0.41614  0.41614  0.00000  0.16771
       9     C     3.06538  3.06538  0.00000 -0.13076
      10     H     0.42192  0.42192  0.00000  0.15616
      11     C     2.98587  2.98587  0.00000  0.02826
      12     H     0.41207  0.41207  0.00000  0.17585
      13     C     2.92363  2.92363  0.00000  0.15274
      14     O     4.16922  4.16922  0.00000 -0.33844
      15     H     0.45936  0.45936  0.00000  0.08127

   Total alpha = 32.00000, Total beta = 32.00000, Total charge =  0.00000
