  ==> Input File <==

--------------------------------------------------------------------------
set {
	reference rhf
	basis 6-31G*
}

set_num_threads( 4 )
memory 2 gb

molecule MOL {
0 1

H	 -3.420663	 1.227371	 -1.044276
O	 -3.452007	 0.283848	 -0.965577
C	 -3.181085	 -0.079926	 0.364119
C	 -1.765924	 0.277073	 0.805136
H	 -3.327791	 -1.152017	 0.410903
H	 -3.905698	 0.375695	 1.036898
C	 -0.677594	 -0.417312	 -0.014550
H	 -1.637766	 1.358238	 0.744969
H	 -1.659588	 0.017670	 1.857098
C	 0.038862	 -1.527451	 0.757111
H	 0.044179	 0.322105	 -0.347741
H	 -1.124575	 -0.834732	 -0.915306
C	 1.122774	 -2.221787	 -0.071815
H	 0.474449	 -1.106129	 1.659980
H	 -0.689296	 -2.267780	 1.086206
C	 1.808980	 -3.400634	 0.627897
H	 1.875379	 -1.491071	 -0.363936
H	 0.676274	 -2.582053	 -0.996295
C	 2.639422	 -3.016465	 1.853941
H	 2.457475	 -3.896885	 -0.090072
H	 1.058570	 -4.134371	 0.915505
H	 3.390760	 -2.273773	 1.598917
H	 3.155792	 -3.882544	 2.256567
H	 2.025197	 -2.606326	 2.648723

	symmetry c1
}
set optking {
	frozen_dihedral = ("
		11 7 4 3
	")
}

ee = optimize('scf')
oeprop('DIPOLE', 'QUADRUPOLE', 'MULLIKEN_CHARGES')
f=open( 'psi4out.xyz', 'w' )
f.write( "24  " )
f.write( str(ee) + "\n" )
f.write( MOL.save_string_xyz() )
f.close()
--------------------------------------------------------------------------

    Molecular point group: c1
  Charge       = 0
  Multiplicity = 1
  Basis Set: 6-31G*
  Basis Set:
  @DF-RHF Final Energy:  -349.24292470938337
    Total Energy =                       -349.2429247093834874
    Molecular point group: c1
  Basis Set: 6-31G*
  Basis Set:
  Basis Set: 6-31G*
  Basis Set:
  @DF-RHF Final Energy:  -349.24313284511805
    Total Energy =                       -349.2431328451177706
  Basis Set: 6-31G*
  Basis Set:
  Basis Set: 6-31G*
  Basis Set:
  @DF-RHF Final Energy:  -349.24318659579609
    Total Energy =                       -349.2431865957960326
  Basis Set: 6-31G*
  Basis Set:
  Basis Set: 6-31G*
  Basis Set:
  @DF-RHF Final Energy:  -349.24319188026237
    Total Energy =                       -349.2431918802627706
  Basis Set: 6-31G*
  Basis Set:
  Basis Set: 6-31G*
  Basis Set:
  @DF-RHF Final Energy:  -349.24318848408711
    Total Energy =                       -349.2431884840871703
  Basis Set: 6-31G*
  Basis Set:
  Basis Set: 6-31G*
  Basis Set:
  @DF-RHF Final Energy:  -349.24320360333115
    Total Energy =                       -349.2432036033313807
  Basis Set: 6-31G*
  Basis Set:
  Charge       = 0
  Multiplicity = 1
  Basis Set: 6-31G*
  Basis Set:

    Orbital Energies (a.u.)
    -----------------------

    Doubly Occupied:

       1A    -20.553745     2A    -11.267783     3A    -11.217337
       4A    -11.213656     5A    -11.212454     6A    -11.211089
       7A    -11.210606     8A    -11.207039     9A     -1.360633
      10A     -1.087381    11A     -1.046567    12A     -0.984510
      13A     -0.914308    14A     -0.853548    15A     -0.799533
      16A     -0.776353    17A     -0.678133    18A     -0.647060
      19A     -0.633455    20A     -0.612932    21A     -0.606059
      22A     -0.575943    23A     -0.553014    24A     -0.544885
      25A     -0.521294    26A     -0.508721    27A     -0.492278
      28A     -0.478523    29A     -0.468299    30A     -0.459519
      31A     -0.452031    32A     -0.441629    33A     -0.422452

  @DF-RHF Final Energy:  -349.24320357526733

   => Energetics <=

    Nuclear Repulsion Energy =            386.1770498308504784
    One-Electron Energy =               -1238.8149663546662396
    Two-Electron Energy =                 503.3947129485484311
    DFT Exchange-Correlation Energy =       0.0000000000000000
    Empirical Dispersion Energy =           0.0000000000000000
    PCM Polarization Energy =               0.0000000000000000
    EFP Energy =                            0.0000000000000000
    Total Energy =                       -349.2432035752673301
    Molecular point group: c1
  Basis Set: 6-31G*
  Basis Set:

  -Total Gradient:
     Atom            X                  Y                   Z
    ------   -----------------  -----------------  -----------------
       1       -0.000003010358     0.000008584848    -0.000012131882
       2       -0.000022299124     0.000040684197     0.000018043837
       3        0.000024874952     0.001284653200    -0.001143689754
       4       -0.000325121159    -0.001765182508     0.001092024313
       5       -0.000002505984    -0.000009116957     0.000014876781
       6        0.000007121861     0.000005214606    -0.000010904785
       7        0.001566532680     0.000088631498     0.002041257070
       8        0.000003432372     0.000002750750     0.000002695322
       9       -0.000010374367     0.000008091518     0.000001334108
      10        0.000014450870    -0.000001663792     0.000000503656
      11       -0.001261822588     0.000329551528    -0.002020357582
      12        0.000011219641     0.000003995827     0.000006520167
      13       -0.000005131970    -0.000004538133     0.000006062533
      14        0.000008934966    -0.000004452233     0.000006518813
      15        0.000004101934    -0.000002302236    -0.000001638112
      16       -0.000001845227     0.000000899302    -0.000004850195
      17        0.000002406203    -0.000000459584     0.000004535350
      18       -0.000003993445     0.000002345091     0.000000610142
      19       -0.000002643222     0.000004743556     0.000003138133
      20       -0.000003817519     0.000007488248    -0.000006842484
      21        0.000001023715    -0.000003950953    -0.000000936399
      22        0.000005113886    -0.000003161639     0.000000777648
      23       -0.000004668321    -0.000001009197     0.000002483291
      24       -0.000001979788     0.000008203061    -0.000000029971

  **** Optimization is complete! (in 7 steps) ****
    Final optimized geometry and variables:
    Molecular point group: c1

    Geometry (in Angstrom), charge = 0, multiplicity = 1:

    H           -2.916948301631     2.455221947746    -1.459726425202
    O           -2.961417471399     1.512170294148    -1.381857694912
    C           -2.706812218247     1.143627938152    -0.050987229463
    C           -1.301499022014     1.517909384522     0.408911570781
    H           -2.842365413085     0.069423778614    -0.013776735772
    H           -3.446119202237     1.586652970422     0.614123683579
    C           -0.184766165533     0.829709596597    -0.402508688488
    H           -1.201764792393     2.600323537475     0.342399572396
    H           -1.208359995199     1.277528387390     1.465719210175
    C            0.530051437820    -0.285109309911     0.364545223730
    H            0.541533910061     1.567174253549    -0.734006064002
    H           -0.614406739253     0.423393405981    -1.313261793663
    C            1.598166458857    -0.992138565367    -0.473040356351
    H            0.976435711924     0.133752138928     1.263035991310
    H           -0.203487989034    -1.017462933098     0.700886329167
    C            2.283302385139    -2.172942373923     0.224463970637
    H            2.353466116927    -0.268844578432    -0.777185974836
    H            1.137780360903    -1.352712328539    -1.390449323268
    C            3.133231192506    -1.789220505192     1.437225502053
    H            2.917751238998    -2.678961470984    -0.499127661997
    H            1.530271827053    -2.898311673818     0.525994544447
    H            3.888921071156    -1.056124388227     1.167680826138
    H            3.645761993702    -2.657927464548     1.839117274758
    H            2.533565583369    -1.367278209694     2.236900218501

  Mulliken Charges: (a.u.)
   Center  Symbol    Alpha    Beta     Spin     Total
       1     H     0.28336  0.28336  0.00000  0.43329
       2     O     4.36804  4.36804  0.00000 -0.73608
       3     C     2.99837  2.99837  0.00000  0.00326
       4     C     3.17075  3.17075  0.00000 -0.34150
       5     H     0.41653  0.41653  0.00000  0.16694
       6     H     0.42854  0.42854  0.00000  0.14293
       7     C     3.15851  3.15851  0.00000 -0.31702
       8     H     0.42583  0.42583  0.00000  0.14833
       9     H     0.41969  0.41969  0.00000  0.16062
      10     C     3.15547  3.15547  0.00000 -0.31094
      11     H     0.42167  0.42167  0.00000  0.15667
      12     H     0.40689  0.40689  0.00000  0.18621
      13     C     3.15305  3.15305  0.00000 -0.30610
      14     H     0.42229  0.42229  0.00000  0.15542
      15     H     0.42529  0.42529  0.00000  0.14943
      16     C     3.15228  3.15228  0.00000 -0.30455
      17     H     0.42453  0.42453  0.00000  0.15093
      18     H     0.42077  0.42077  0.00000  0.15846
      19     C     3.24094  3.24094  0.00000 -0.48189
      20     H     0.42109  0.42109  0.00000  0.15783
      21     H     0.42351  0.42351  0.00000  0.15298
      22     H     0.42250  0.42250  0.00000  0.15499
      23     H     0.41955  0.41955  0.00000  0.16091
      24     H     0.42056  0.42056  0.00000  0.15889

   Total alpha = 33.00000, Total beta = 33.00000, Total charge =  0.00000
