  ==> Input File <==

--------------------------------------------------------------------------
set {
	reference rhf
	basis 6-31G*
}

set_num_threads( 1 )
memory 2 gb

molecule MOL {
0 1

H	 2.287376	 -1.918087	 -0.079581
O	 2.826016	 -1.159218	 0.122261
C	 2.077727	 -0.067559	 -0.035091
C	 0.624473	 -0.343591	 0.253101
O	 2.542965	 0.974826	 -0.363729
C	 -0.265902	 0.883932	 0.072916
H	 0.324016	 -1.163849	 -0.390541
H	 0.565024	 -0.726111	 1.268924
C	 -1.728698	 0.646073	 0.462102
H	 -0.209144	 1.219470	 -0.958188
H	 0.135059	 1.692851	 0.673903
C	 -2.482460	 -0.343073	 -0.431425
H	 -2.245265	 1.602650	 0.432430
H	 -1.779332	 0.308348	 1.496285
C	 -3.960546	 -0.461025	 -0.060175
H	 -2.395034	 -0.026811	 -1.468912
H	 -2.024850	 -1.327147	 -0.371646
H	 -4.472726	 -1.168004	 -0.705284
H	 -4.465146	 0.496508	 -0.151489
H	 -4.081218	 -0.800940	 0.964585

	symmetry c1
}
set optking {
	frozen_dihedral = ("
		16 12 9 6,
		7 4 6 10,
		12 9 6 10,
		5 3 4 7
	")
}

ee = energy('scf')
oeprop('DIPOLE', 'QUADRUPOLE', 'MULLIKEN_CHARGES')
f=open( 'psi4out.xyz', 'w' )
f.write( "20  " )
f.write( str(ee) + "\n" )
f.write( MOL.save_string_xyz() )
f.close()
--------------------------------------------------------------------------

    Molecular point group: c1

    Geometry (in Angstrom), charge = 0, multiplicity = 1:

       Center              X                  Y                   Z               Mass
    ------------   -----------------  -----------------  -----------------  -----------------
           H          2.299896243858    -1.909493682164    -0.079502793798     1.007825032070
           O          2.838536243858    -1.150624682164     0.122339206202    15.994914619560
           C          2.090247243858    -0.058965682164    -0.035012793798    12.000000000000
           C          0.636993243858    -0.334997682164     0.253179206202    12.000000000000
           O          2.555485243858     0.983419317836    -0.363650793798    15.994914619560
           C         -0.253381756142     0.892525317836     0.072994206202    12.000000000000
           H          0.336536243858    -1.155255682164    -0.390462793798     1.007825032070
           H          0.577544243858    -0.717517682164     1.269002206202     1.007825032070
           C         -1.716177756142     0.654666317836     0.462180206202    12.000000000000
           H         -0.196623756142     1.228063317836    -0.958109793798     1.007825032070
           H          0.147579243858     1.701444317836     0.673981206202     1.007825032070
           C         -2.469939756142    -0.334479682164    -0.431346793798    12.000000000000
           H         -2.232744756142     1.611243317836     0.432508206202     1.007825032070
           H         -1.766811756142     0.316941317836     1.496363206202     1.007825032070
           C         -3.948025756142    -0.452431682164    -0.060096793798    12.000000000000
           H         -2.382513756142    -0.018217682164    -1.468833793798     1.007825032070
           H         -2.012329756142    -1.318553682164    -0.371567793798     1.007825032070
           H         -4.460205756142    -1.159410682164    -0.705205793798     1.007825032070
           H         -4.452625756142     0.505101317836    -0.151410793798     1.007825032070
           H         -4.068697756142    -0.792346682164     0.964663206202     1.007825032070

  Charge       = 0
  Multiplicity = 1
  Basis Set: 6-31G*
  Basis Set:

    Orbital Energies (a.u.)
    -----------------------

    Doubly Occupied:

       1A    -20.611513     2A    -20.551654     3A    -11.380677
       4A    -11.250727     5A    -11.229026     6A    -11.226398
       7A    -11.225429     8A    -11.217085     9A     -1.470111
      10A     -1.370562    11A     -1.102287    12A     -1.045767
      13A     -0.962512    14A     -0.866495    15A     -0.828138
      16A     -0.793632    17A     -0.720993    18A     -0.673682
      19A     -0.661242    20A     -0.639705    21A     -0.613599
      22A     -0.594947    23A     -0.576837    24A     -0.565646
      25A     -0.540239    26A     -0.518965    27A     -0.500519
      28A     -0.482692    29A     -0.475369    30A     -0.469986
      31A     -0.463074    32A     -0.440669

  @DF-RHF Final Energy:  -383.93315103558587

   => Energetics <=

    Nuclear Repulsion Energy =            376.5766308589007849
    One-Electron Energy =               -1268.8791816308098532
    Two-Electron Energy =                 508.3693997363219523
    DFT Exchange-Correlation Energy =       0.0000000000000000
    Empirical Dispersion Energy =           0.0000000000000000
    PCM Polarization Energy =               0.0000000000000000
    EFP Energy =                            0.0000000000000000
    Total Energy =                       -383.9331510355871160

  Mulliken Charges: (a.u.)
   Center  Symbol    Alpha    Beta     Spin     Total
       1     H     0.26873  0.26873  0.00000  0.46254
       2     O     4.34984  4.34984  0.00000 -0.69967
       3     C     2.60872  2.60872  0.00000  0.78256
       4     C     3.23607  3.23607  0.00000 -0.47213
       5     O     4.26480  4.26480  0.00000 -0.52959
       6     C     3.15366  3.15366  0.00000 -0.30731
       7     H     0.41058  0.41058  0.00000  0.17884
       8     H     0.39765  0.39765  0.00000  0.20471
       9     C     3.15625  3.15625  0.00000 -0.31251
      10     H     0.41045  0.41045  0.00000  0.17910
      11     H     0.40431  0.40431  0.00000  0.19139
      12     C     3.15454  3.15454  0.00000 -0.30909
      13     H     0.41640  0.41640  0.00000  0.16720
      14     H     0.42355  0.42355  0.00000  0.15291
      15     C     3.23928  3.23928  0.00000 -0.47856
      16     H     0.42069  0.42069  0.00000  0.15863
      17     H     0.42593  0.42593  0.00000  0.14813
      18     H     0.41799  0.41799  0.00000  0.16401
      19     H     0.41950  0.41950  0.00000  0.16101
      20     H     0.42107  0.42107  0.00000  0.15785

   Total alpha = 32.00000, Total beta = 32.00000, Total charge =  0.00000
