  ==> Input File <==

--------------------------------------------------------------------------
set {
	reference rhf
	basis 6-31G*
}

set_num_threads( 4 )
memory 2 gb

molecule MOL {
0 1

H	 -2.698709	 -0.000305	 0.034435
C	 -1.693833	 0.000034	 0.434417
O	 -0.828952	 -0.000968	 -0.659236
H	 -1.574200	 0.882896	 1.055746
H	 -1.574147	 -0.881698	 1.057355
C	 0.559449	 -0.000018	 -0.420814
C	 1.202390	 -1.356755	 -0.701544
C	 1.276042	 1.141734	 -1.139046
H	 0.626217	 0.184608	 0.644778
H	 0.638926	 -2.147357	 -0.217803
H	 2.215959	 -1.374465	 -0.313474
H	 1.256117	 -1.574233	 -1.763609
H	 0.763170	 2.080302	 -0.958741
H	 2.292622	 1.232736	 -0.769251
H	 1.332252	 0.981942	 -2.211029

	symmetry c1
}
set optking {
	frozen_dihedral = ("
		9 6 3 2
	")
}

ee = optimize('scf')
oeprop('DIPOLE', 'QUADRUPOLE', 'MULLIKEN_CHARGES')
f=open( 'psi4out.xyz', 'w' )
f.write( "15  " )
f.write( str(ee) + "\n" )
f.write( MOL.save_string_xyz() )
f.close()
--------------------------------------------------------------------------

    Molecular point group: c1
  Charge       = 0
  Multiplicity = 1
  Basis Set: 6-31G*
  Basis Set:
  @DF-RHF Final Energy:  -232.13617231567235
    Total Energy =                       -232.1361723156725247
    Molecular point group: c1
  Basis Set: 6-31G*
  Basis Set:
  Basis Set: 6-31G*
  Basis Set:
  @DF-RHF Final Energy:  -232.13953583018463
    Total Energy =                       -232.1395358301845704
  Basis Set: 6-31G*
  Basis Set:
  Basis Set: 6-31G*
  Basis Set:
  @DF-RHF Final Energy:  -232.14012719485109
    Total Energy =                       -232.1401271948512317
  Basis Set: 6-31G*
  Basis Set:
  Basis Set: 6-31G*
  Basis Set:
  @DF-RHF Final Energy:  -232.14024396490115
    Total Energy =                       -232.1402439649010603
  Basis Set: 6-31G*
  Basis Set:
  Basis Set: 6-31G*
  Basis Set:
  @DF-RHF Final Energy:  -232.14028889662634
    Total Energy =                       -232.1402888966262026
  Basis Set: 6-31G*
  Basis Set:
  Basis Set: 6-31G*
  Basis Set:
  @DF-RHF Final Energy:  -232.14029483372587
    Total Energy =                       -232.1402948337257612
  Basis Set: 6-31G*
  Basis Set:
  Charge       = 0
  Multiplicity = 1
  Basis Set: 6-31G*
  Basis Set:

    Orbital Energies (a.u.)
    -----------------------

    Doubly Occupied:

       1A    -20.548363     2A    -11.273969     3A    -11.264597
       4A    -11.206928     5A    -11.206587     6A     -1.373202
       7A     -1.052158     8A     -0.935916     9A     -0.918183
      10A     -0.795147    11A     -0.668562    12A     -0.641517
      13A     -0.635541    14A     -0.579491    15A     -0.553551
      16A     -0.539287    17A     -0.536540    18A     -0.496933
      19A     -0.486907    20A     -0.457597    21A     -0.404095

  @DF-RHF Final Energy:  -232.14029514109183

   => Energetics <=

    Nuclear Repulsion Energy =            196.8318874400010259
    One-Electron Energy =                -704.7942254039592171
    Two-Electron Energy =                 275.8220428228664787
    DFT Exchange-Correlation Energy =       0.0000000000000000
    Empirical Dispersion Energy =           0.0000000000000000
    PCM Polarization Energy =               0.0000000000000000
    EFP Energy =                            0.0000000000000000
    Total Energy =                       -232.1402951410917126
    Molecular point group: c1
  Basis Set: 6-31G*
  Basis Set:

  -Total Gradient:
     Atom            X                  Y                   Z
    ------   -----------------  -----------------  -----------------
       1       -0.000000278601     0.000000229577    -0.000002271811
       2       -0.000014032600     0.000902122394    -0.000001916432
       3       -0.000018790513    -0.001564701503     0.000052903881
       4        0.000005985963     0.000000420455    -0.000002707615
       5        0.000004042232    -0.000000552464    -0.000001864058
       6        0.000014245160     0.001744833440    -0.000215569205
       7        0.000015812304     0.000017372110    -0.000016361662
       8        0.000016840428    -0.000017137272     0.000000984515
       9       -0.000038418340    -0.001085065562     0.000197527093
      10       -0.000001464264     0.000028108286     0.000003431783
      11        0.000009161173    -0.000000947043    -0.000006672708
      12       -0.000000638146    -0.000019936104    -0.000007926481
      13       -0.000002536798    -0.000013231923     0.000000891596
      14        0.000009105325     0.000010298190     0.000001429378
      15        0.000000966677    -0.000001812579    -0.000001878273

  **** Optimization is complete! (in 7 steps) ****
    Final optimized geometry and variables:
    Molecular point group: c1

    Geometry (in Angstrom), charge = 0, multiplicity = 1:

    H           -2.772941996729     0.012991660734     0.424464693180
    C           -1.776929807478     0.034971321328     0.846012786917
    O           -0.875132678932     0.040819263808    -0.214185602400
    H           -1.678302373056     0.926759753269     1.461777142903
    H           -1.650426682918    -0.838725228439     1.482545277208
    C            0.491026411690     0.052293549983     0.134984376621
    C            1.098899601572    -1.308593675660    -0.183111672822
    C            1.166671701191     1.184921621277    -0.623775328322
    H            0.587177753497     0.232865326461     1.203745243384
    H            0.585393844880    -2.093687063463     0.362313287422
    H            2.150699218897    -1.340020355258     0.085451391583
    H            1.007098843114    -1.520438427484    -1.243228119506
    H            0.712918687063     2.136301183612    -0.368254843139
    H            2.225883779161     1.234190904021    -0.389868125272
    H            1.056751673602     1.035424999807    -1.692764882718

  Mulliken Charges: (a.u.)
   Center  Symbol    Alpha    Beta     Spin     Total
       1     H     0.41306  0.41306  0.00000  0.17388
       2     C     3.07879  3.07879  0.00000 -0.15758
       3     O     4.31026  4.31026  0.00000 -0.62052
       4     H     0.43008  0.43008  0.00000  0.13984
       5     H     0.43108  0.43108  0.00000  0.13783
       6     C     2.91713  2.91713  0.00000  0.16575
       7     C     3.23829  3.23829  0.00000 -0.47659
       8     C     3.23735  3.23735  0.00000 -0.47470
       9     H     0.43006  0.43006  0.00000  0.13988
      10     H     0.41873  0.41873  0.00000  0.16255
      11     H     0.42428  0.42428  0.00000  0.15143
      12     H     0.41507  0.41507  0.00000  0.16985
      13     H     0.41678  0.41678  0.00000  0.16644
      14     H     0.42424  0.42424  0.00000  0.15153
      15     H     0.41479  0.41479  0.00000  0.17041

   Total alpha = 21.00000, Total beta = 21.00000, Total charge = -0.00000
