  ==> Input File <==

--------------------------------------------------------------------------
set {
	reference rhf
	basis 6-31G*
}

set_num_threads( 4 )
memory 2 gb

molecule MOL {
0 1

H	 -4.253242	 0.337035	 0.442448
O	 -3.533260	 -0.224762	 0.193622
C	 -2.315719	 0.429551	 0.442739
C	 -1.185889	 -0.498675	 0.033315
H	 -2.257834	 1.359136	 -0.121910
H	 -2.225958	 0.683080	 1.498204
C	 0.198102	 0.111031	 0.262842
H	 -1.314347	 -0.751618	 -1.015612
H	 -1.285026	 -1.425129	 0.592181
C	 1.331804	 -0.827780	 -0.158768
H	 0.270887	 1.048133	 -0.283707
H	 0.315312	 0.360429	 1.316683
C	 2.723619	 -0.410569	 0.329459
H	 1.342964	 -0.912588	 -1.244120
H	 1.116806	 -1.824343	 0.220779
C	 3.243875	 0.895854	 -0.272975
H	 3.424222	 -1.207124	 0.091250
H	 2.714788	 -0.329854	 1.414619
H	 3.251977	 0.848779	 -1.358681
H	 2.637085	 1.747371	 0.016682
H	 4.259473	 1.094070	 0.055697

	symmetry c1
}
set optking {
	frozen_dihedral = ("
		4 7 10 14
	")
}

ee = optimize('scf')
oeprop('DIPOLE', 'QUADRUPOLE', 'MULLIKEN_CHARGES')
f=open( 'psi4out.xyz', 'w' )
f.write( "21  " )
f.write( str(ee) + "\n" )
f.write( MOL.save_string_xyz() )
f.close()
--------------------------------------------------------------------------

    Molecular point group: c1
  Charge       = 0
  Multiplicity = 1
  Basis Set: 6-31G*
  Basis Set:
  @DF-RHF Final Energy:  -310.21251903544498
    Total Energy =                       -310.2125190354450979
    Molecular point group: c1
  Basis Set: 6-31G*
  Basis Set:
  Basis Set: 6-31G*
  Basis Set:
  @DF-RHF Final Energy:  -310.21235012619786
    Total Energy =                       -310.2123501261975207
  Basis Set: 6-31G*
  Basis Set:
  Basis Set: 6-31G*
  Basis Set:
  @DF-RHF Final Energy:  -310.21257427495175
    Total Energy =                       -310.2125742749516917
  Basis Set: 6-31G*
  Basis Set:
  Basis Set: 6-31G*
  Basis Set:
  @DF-RHF Final Energy:  -310.21257895234538
    Total Energy =                       -310.2125789523454955
  Basis Set: 6-31G*
  Basis Set:
  Basis Set: 6-31G*
  Basis Set:
  @DF-RHF Final Energy:  -310.21258142620354
    Total Energy =                       -310.2125814262034851
  Basis Set: 6-31G*
  Basis Set:
  Charge       = 0
  Multiplicity = 1
  Basis Set: 6-31G*
  Basis Set:

    Orbital Energies (a.u.)
    -----------------------

    Doubly Occupied:

       1A    -20.551849     2A    -11.267044     3A    -11.215778
       4A    -11.214999     5A    -11.213561     6A    -11.210719
       7A    -11.208227     8A     -1.358668     9A     -1.086268
      10A     -1.033204    11A     -0.954035    12A     -0.875804
      13A     -0.807624    14A     -0.778510    15A     -0.692419
      16A     -0.661179    17A     -0.623912    18A     -0.605256
      19A     -0.586088    20A     -0.571032    21A     -0.535507
      22A     -0.519688    23A     -0.511599    24A     -0.486650
      25A     -0.479782    26A     -0.459717    27A     -0.456385
      28A     -0.442938    29A     -0.434020

  @DF-RHF Final Energy:  -310.21258174773777

   => Energetics <=

    Nuclear Repulsion Energy =            312.5199201983165267
    One-Electron Energy =               -1039.7800782119622909
    Two-Electron Energy =                 417.0475762659081624
    DFT Exchange-Correlation Energy =       0.0000000000000000
    Empirical Dispersion Energy =           0.0000000000000000
    PCM Polarization Energy =               0.0000000000000000
    EFP Energy =                            0.0000000000000000
    Total Energy =                       -310.2125817477376017
    Molecular point group: c1
  Basis Set: 6-31G*
  Basis Set:

  -Total Gradient:
     Atom            X                  Y                   Z
    ------   -----------------  -----------------  -----------------
       1       -0.000000158666    -0.000000150327    -0.000000144592
       2       -0.000000622615    -0.000000581471     0.000001369950
       3       -0.000000248365     0.000001919086    -0.000003410400
       4        0.000023659604    -0.000462409643     0.001089499097
       5        0.000000560226     0.000001758204     0.000000663760
       6       -0.000000244195    -0.000001591270    -0.000001208915
       7        0.000208869017     0.000939993319    -0.001534622556
       8        0.000002607414     0.000004888647     0.000004532909
       9        0.000000552449    -0.000005815142     0.000000444605
      10       -0.001241324449    -0.001728846614     0.000546155101
      11       -0.000007073958     0.000007828584    -0.000000804578
      12        0.000002322228    -0.000004115003    -0.000007652240
      13       -0.000000381654    -0.000001871930    -0.000006697578
      14        0.001016859303     0.001260854691    -0.000077287513
      15        0.000003796361    -0.000010486215    -0.000007452236
      16       -0.000001621244    -0.000000269651    -0.000002231951
      17        0.000000999706    -0.000003549084     0.000000917010
      18       -0.000008907716     0.000000148391    -0.000002370893
      19       -0.000001271853     0.000001425923     0.000000338035
      20        0.000000779969     0.000001265916     0.000000080808
      21        0.000000848451    -0.000000396412    -0.000000117821

  **** Optimization is complete! (in 6 steps) ****
    Final optimized geometry and variables:
    Molecular point group: c1

    Geometry (in Angstrom), charge = 0, multiplicity = 1:

    H           -4.240870341624     0.422523404597     0.304332278703
    O           -3.524124264590    -0.149744925484     0.070457117626
    C           -2.302752760101     0.502005047056     0.307239322891
    C           -1.178304504937    -0.442804931356    -0.078148058536
    H           -2.237441205907     1.417989460645    -0.278392271186
    H           -2.213474284680     0.779055787282     1.356869243535
    C            0.209535444925     0.158766584027     0.149853914637
    H           -1.303479001729    -0.715136575433    -1.122816705330
    H           -1.287105197731    -1.357397847419     0.497845531831
    C            1.338841445003    -0.785375593727    -0.275904755485
    H            0.291211317789     1.099430915744    -0.389194380113
    H            0.324757653324     0.399866431097     1.206007825925
    C            2.733594451375    -0.359316791583     0.196509641750
    H            1.346618119008    -0.867090730045    -1.361435061128
    H            1.131965686741    -1.781134323942     0.109036816604
    C            3.220572420314     0.968271815776    -0.386831244286
    H            3.441723756815    -1.139838862290    -0.070956563456
    H            2.742544966986    -0.301005124943     1.283067751199
    H            3.210245466051     0.944474968522    -1.473337392706
    H            2.602609804213     1.801498598463    -0.068433245517
    H            4.237951965186     1.178641877689    -0.071557368556

  Mulliken Charges: (a.u.)
   Center  Symbol    Alpha    Beta     Spin     Total
       1     H     0.28118  0.28118  0.00000  0.43765
       2     O     4.37178  4.37178  0.00000 -0.74356
       3     C     2.98980  2.98980  0.00000  0.02040
       4     C     3.15917  3.15917  0.00000 -0.31833
       5     H     0.43290  0.43290  0.00000  0.13420
       6     H     0.43292  0.43292  0.00000  0.13416
       7     C     3.16213  3.16213  0.00000 -0.32426
       8     H     0.41488  0.41488  0.00000  0.17024
       9     H     0.41463  0.41463  0.00000  0.17075
      10     C     3.15176  3.15176  0.00000 -0.30351
      11     H     0.42125  0.42125  0.00000  0.15751
      12     H     0.42416  0.42416  0.00000  0.15168
      13     C     3.15262  3.15262  0.00000 -0.30523
      14     H     0.42285  0.42285  0.00000  0.15430
      15     H     0.42049  0.42049  0.00000  0.15903
      16     C     3.24138  3.24138  0.00000 -0.48275
      17     H     0.42084  0.42084  0.00000  0.15832
      18     H     0.42351  0.42351  0.00000  0.15297
      19     H     0.42216  0.42216  0.00000  0.15568
      20     H     0.42039  0.42039  0.00000  0.15921
      21     H     0.41923  0.41923  0.00000  0.16154

   Total alpha = 29.00000, Total beta = 29.00000, Total charge =  0.00000
