  ==> Input File <==

--------------------------------------------------------------------------
set {
	reference rhf
	basis cc-pvtz
}

set_num_threads( 4 )
memory 2 gb

molecule MOL {
0 1

H	 -2.123894	 -0.667238	 -0.609809
O	 -2.041679	 -0.058866	 0.103463
C	 -0.959304	 0.780994	 -0.094939
C	 0.354905	 0.037902	 -0.006215
H	 -0.985899	 1.279578	 -1.057596
H	 -0.969809	 1.529522	 0.682889
F	 0.155607	 -1.258866	 0.150198
F	 1.049377	 0.203204	 -1.112552
F	 1.094792	 0.444477	 0.997397

	symmetry c1
}
set optking {
	frozen_dihedral = ("
		7 4 3 5
	")
}

ee = optimize('scf')
oeprop('DIPOLE', 'QUADRUPOLE', 'MULLIKEN_CHARGES')
f=open( 'psi4out.xyz', 'w' )
f.write( "9  " )
f.write( str(ee) + "\n" )
f.write( MOL.save_string_xyz() )
f.close()
--------------------------------------------------------------------------

    Molecular point group: c1
  Charge       = 0
  Multiplicity = 1
  Basis Set: CC-PVTZ
  Basis Set:
  @DF-RHF Final Energy:  -450.83895693076011
    Total Energy =                       -450.8389569307601050
    Molecular point group: c1
  Basis Set: CC-PVTZ
  Basis Set:
  Basis Set: CC-PVTZ
  Basis Set:
  @DF-RHF Final Energy:  -450.83948950499973
    Total Energy =                       -450.8394895049997331
  Basis Set: CC-PVTZ
  Basis Set:
  Basis Set: CC-PVTZ
  Basis Set:
  @DF-RHF Final Energy:  -450.84004455281047
    Total Energy =                       -450.8400445528105251
  Basis Set: CC-PVTZ
  Basis Set:
  Basis Set: CC-PVTZ
  Basis Set:
  @DF-RHF Final Energy:  -450.84007087291775
    Total Energy =                       -450.8400708729178632
  Basis Set: CC-PVTZ
  Basis Set:
  Basis Set: CC-PVTZ
  Basis Set:
  @DF-RHF Final Energy:  -450.84007347493281
    Total Energy =                       -450.8400734749329786
  Basis Set: CC-PVTZ
  Basis Set:
  Charge       = 0
  Multiplicity = 1
  Basis Set: CC-PVTZ
  Basis Set:

    Orbital Energies (a.u.)
    -----------------------

    Doubly Occupied:

       1A    -26.339319     2A    -26.337191     3A    -26.335621
       4A    -20.582853     5A    -11.495637     6A    -11.309929
       7A     -1.747889     8A     -1.644505     9A     -1.641438
      10A     -1.406081    11A     -1.044710    12A     -0.930160
      13A     -0.836319    14A     -0.835019    15A     -0.813790
      16A     -0.729485    17A     -0.719000    18A     -0.705196
      19A     -0.670466    20A     -0.665819    21A     -0.647937
      22A     -0.630924    23A     -0.616079    24A     -0.529146
      25A     -0.483933

  @DF-RHF Final Energy:  -450.84007381988664

   => Energetics <=

    Nuclear Repulsion Energy =            276.5131096362387666
    One-Electron Energy =               -1175.3094692110989854
    Two-Electron Energy =                 447.9562857549733508
    DFT Exchange-Correlation Energy =       0.0000000000000000
    Empirical Dispersion Energy =           0.0000000000000000
    PCM Polarization Energy =               0.0000000000000000
    EFP Energy =                            0.0000000000000000
    Total Energy =                       -450.8400738198868112
    Molecular point group: c1
  Basis Set: CC-PVTZ
  Basis Set:

  -Total Gradient:
     Atom            X                  Y                   Z
    ------   -----------------  -----------------  -----------------
       1       -0.000022255951     0.000002265115    -0.000000974143
       2        0.000028972669    -0.000028230376    -0.000009578238
       3       -0.000953535908    -0.001744336100    -0.000411885946
       4        0.000136838562    -0.000020893864    -0.001862533872
       5        0.000799086471     0.001467834058     0.000757283243
       6        0.000014658650     0.000009731537    -0.000001253347
       7       -0.000014695002     0.000295922030     0.001527772020
       8       -0.000003239497     0.000001114460    -0.000057764256
       9        0.000014169999     0.000016593137     0.000058934533

  **** Optimization is complete! (in 6 steps) ****
    Final optimized geometry and variables:
    Molecular point group: c1

    Geometry (in Angstrom), charge = 0, multiplicity = 1:

    H           -2.151805053279    -0.677899884040    -0.568487797192
    O           -2.082517617869    -0.019709746675     0.099906303958
    C           -0.975323313656     0.783112758758    -0.103441549460
    C            0.359996294110     0.028032339805    -0.011726737809
    H           -0.996137201997     1.293006811660    -1.058982178280
    H           -0.978040274171     1.530072662363     0.674371356205
    F            0.190500701234    -1.266636119485     0.127594173522
    F            1.087762580420     0.214759556828    -1.096872185276
    F            1.082560608245     0.442327906381     1.008469899788

  Mulliken Charges: (a.u.)
   Center  Symbol    Alpha    Beta     Spin     Total
       1     H     0.38812  0.38812  0.00000  0.22375
       2     O     4.18433  4.18433  0.00000 -0.36865
       3     C     3.00840  3.00840  0.00000 -0.01679
       4     C     2.67773  2.67773  0.00000  0.64454
       5     H     0.46111  0.46111  0.00000  0.07777
       6     H     0.44798  0.44798  0.00000  0.10403
       7     F     4.60916  4.60916  0.00000 -0.21831
       8     F     4.61262  4.61262  0.00000 -0.22524
       9     F     4.61055  4.61055  0.00000 -0.22110

   Total alpha = 25.00000, Total beta = 25.00000, Total charge = -0.00000
