                              Psi4 1.0.54 Driver

  ==> Input File <==

--------------------------------------------------------------------------
set {
	reference rhf
	basis cc-pvtz
}

set_num_threads( 4 )
memory 2 gb

molecule MOL {
0 1

H	 -1.826030	 0.893579	 -0.748979
N	 -1.851927	 0.161443	 -0.071573
C	 -0.561396	 -0.500007	 0.035200
H	 -2.559421	 -0.481788	 -0.359742
C	 0.575129	 0.507849	 -0.048832
H	 -0.478089	 -1.200753	 -0.788956
H	 -0.456191	 -1.081816	 0.952176
C	 1.951750	 -0.141983	 0.035101
H	 0.478254	 1.061643	 -0.975981
H	 0.467676	 1.231891	 0.755499
H	 2.101550	 -0.848142	 -0.774949
H	 2.738260	 0.600794	 -0.026526
H	 2.078939	 -0.679792	 0.968824

	symmetry c1
}
set optking {
	frozen_dihedral = ("
		1 2 3 6
	")
}

ee,wfn = optimize('scf', return_wfn=True)
oeprop( wfn, 'DIPOLE', 'QUADRUPOLE', 'MULLIKEN_CHARGES')
f=open( 'psi4out.xyz', 'w' )
f.write( "13  " )
f.write( str(ee) + "\n" )
f.write( MOL.save_string_xyz() )
f.close()
--------------------------------------------------------------------------

    Molecular point group: c1
  Charge       = 0
  Multiplicity = 1
  Basis Set: CC-PVTZ
  Basis Set:
  @DF-RHF Final Energy:  -173.34975785900932
    Total Energy =                       -173.3497578590094008
    Molecular point group: c1
  Basis Set: CC-PVTZ
  Basis Set:
  Basis Set: CC-PVTZ
  Basis Set:
  @DF-RHF Final Energy:  -173.35144122548235
    Total Energy =                       -173.3514412254823469
  Basis Set: CC-PVTZ
  Basis Set:
  Basis Set: CC-PVTZ
  Basis Set:
  @DF-RHF Final Energy:  -173.35166608546362
    Total Energy =                       -173.3516660854637053
  Basis Set: CC-PVTZ
  Basis Set:
  Basis Set: CC-PVTZ
  Basis Set:
  @DF-RHF Final Energy:  -173.35167008967721
    Total Energy =                       -173.3516700896773273
  Basis Set: CC-PVTZ
  Basis Set:
  Charge       = 0
  Multiplicity = 1
  Basis Set: CC-PVTZ
  Basis Set:

    Orbital Energies (a.u.)
    -----------------------

    Doubly Occupied:

       1A    -15.524807     2A    -11.237849     3A    -11.213703
       4A    -11.208562     5A     -1.177284     6A     -1.037637
       7A     -0.899736     8A     -0.803693     9A     -0.654002
      10A     -0.641213    11A     -0.604856    12A     -0.561509
      13A     -0.538734    14A     -0.494624    15A     -0.476811
      16A     -0.470849    17A     -0.381256

  @DF-RHF Final Energy:  -173.35167048591572

   => Energetics <=

    Nuclear Repulsion Energy =            132.0882524270646456
    One-Electron Energy =                -495.0255973581646458
    Two-Electron Energy =                 189.5856744451843383
    DFT Exchange-Correlation Energy =       0.0000000000000000
    Empirical Dispersion Energy =           0.0000000000000000
    PCM Polarization Energy =               0.0000000000000000
    EFP Energy =                            0.0000000000000000
    Total Energy =                       -173.3516704859156903
    Molecular point group: c1
  Basis Set: CC-PVTZ
  Basis Set:

  -Total Gradient:
     Atom            X                  Y                   Z
    ------   -----------------  -----------------  -----------------
       1        0.000704804207     0.001633043349     0.001892179061
       2       -0.001208149443    -0.002554654000    -0.001978012011
       3        0.001538657634     0.002693841509    -0.001230997607
       4       -0.000001203951     0.000002363292    -0.000007202734
       5       -0.000043929937    -0.000047500798    -0.000001491770
       6       -0.001012703624    -0.001732264240     0.001315673760
       7       -0.000005713331     0.000003059852     0.000012794574
       8        0.000023565061     0.000023407817     0.000003025921
       9        0.000004722719    -0.000008016274     0.000008694908
      10       -0.000001420045    -0.000018506198    -0.000008677725
      11       -0.000011469521     0.000004025118     0.000000211966
      12        0.000020729072    -0.000004634240     0.000001468778
      13       -0.000007888845     0.000005834812    -0.000007667121

  **** Optimization is complete! (in 5 steps) ****
    Final optimized geometry and variables:
    Molecular point group: c1

    Geometry (in Angstrom), charge = 0, multiplicity = 1:

    H           -1.824517027953     0.903439241989    -0.792562471715
    N           -1.851193405149     0.157270062029    -0.130881269225
    C           -0.561057776663    -0.505504322956    -0.028207398831
    H           -2.575037209662    -0.472556106543    -0.400467694837
    C            0.572519195213     0.506317943732     0.018342822030
    H           -0.385855430739    -1.216609290315    -0.836323622402
    H           -0.553200889057    -1.085936277813     0.889593605618
    C            1.939953786509    -0.141946479430     0.201692492057
    H            0.569265613784     1.087569241543    -0.900913463670
    H            0.381173644201     1.203835572219     0.827035473419
    H            2.163044838219    -0.827263051251    -0.609183882326
    H            2.724924372053     0.604539556161     0.227648845668
    H            1.986165137322    -0.701739444915     1.129621284710

  Mulliken Charges: (a.u.)
   Center  Symbol    Alpha    Beta     Spin     Total
       1     H     0.43017  0.43017  0.00000  0.13965
       2     N     3.69233  3.69233  0.00000 -0.38467
       3     C     3.01497  3.01497  0.00000 -0.02994
       4     H     0.42946  0.42946  0.00000  0.14108
       5     C     3.08231  3.08231  0.00000 -0.16463
       6     H     0.47063  0.47063  0.00000  0.05875
       7     H     0.46059  0.46059  0.00000  0.07882
       8     C     3.15201  3.15201  0.00000 -0.30403
       9     H     0.46066  0.46066  0.00000  0.07867
      10     H     0.44857  0.44857  0.00000  0.10286
      11     H     0.45636  0.45636  0.00000  0.08728
      12     H     0.44781  0.44781  0.00000  0.10438
      13     H     0.45411  0.45411  0.00000  0.09178

   Total alpha = 17.00000, Total beta = 17.00000, Total charge =  0.00000

*** Psi4 exiting successfully. Buy a developer a beer!
