  ==> Input File <==

--------------------------------------------------------------------------
set {
	reference rhf
	basis 6-31G*
}

set_num_threads( 1 )
memory 2 gb

molecule MOL {
0 1

O	 -2.042549	 -1.228399	 -0.269030
C	 -1.653912	 -0.146171	 0.050137
C	 -0.332303	 0.024011	 0.778412
C	 -2.438579	 1.106236	 -0.272369
C	 0.845713	 -0.001731	 -0.208243
H	 -0.323783	 0.953829	 1.340327
H	 -0.235459	 -0.796807	 1.480410
C	 0.547241	 -0.827769	 -1.460284
H	 1.729419	 -0.403829	 0.284163
H	 1.083956	 1.019652	 -0.489594
C	 1.713701	 -0.847722	 -2.447290
H	 0.300474	 -1.846945	 -1.170780
H	 -0.335853	 -0.426177	 -1.951644
H	 2.603668	 -1.276019	 -1.994992
H	 1.962314	 0.155750	 -2.779973
H	 1.472837	 -1.437730	 -3.325870
H	 -3.277823	 0.863061	 -0.908988
H	 -1.806773	 1.843019	 -0.759671
H	 -2.802853	 1.554979	 0.648059

	symmetry c1
}
set optking {
	frozen_dihedral = ("
		11 8 5 9,
		5 3 2 4
	")
}

ee = energy('scf')
oeprop('DIPOLE', 'QUADRUPOLE', 'MULLIKEN_CHARGES')
f=open( 'psi4out.xyz', 'w' )
f.write( "19  " )
f.write( str(ee) + "\n" )
f.write( MOL.save_string_xyz() )
f.close()
--------------------------------------------------------------------------

    Molecular point group: c1

    Geometry (in Angstrom), charge = 0, multiplicity = 1:

       Center              X                  Y                   Z               Mass
    ------------   -----------------  -----------------  -----------------  -----------------
           O         -1.561825508299    -0.951030151752     0.297693190934    15.994914619560
           C         -1.173188508299     0.131197848248     0.616860190934    12.000000000000
           C          0.148420491701     0.301379848248     1.345135190934    12.000000000000
           C         -1.957855508299     1.383604848248     0.294354190934    12.000000000000
           C          1.326436491701     0.275637848248     0.358480190934    12.000000000000
           H          0.156940491701     1.231197848248     1.907050190934     1.007825032070
           H          0.245264491701    -0.519438151752     2.047133190934     1.007825032070
           C          1.027964491701    -0.550400151752    -0.893560809066    12.000000000000
           H          2.210142491701    -0.126460151752     0.850886190934     1.007825032070
           H          1.564679491701     1.297020848248     0.077129190934     1.007825032070
           C          2.194424491701    -0.570353151752    -1.880566809066    12.000000000000
           H          0.781197491701    -1.569576151752    -0.604056809066     1.007825032070
           H          0.144870491701    -0.148808151752    -1.384920809066     1.007825032070
           H          3.084391491701    -0.998650151752    -1.428268809066     1.007825032070
           H          2.443037491701     0.433118848248    -2.213249809066     1.007825032070
           H          1.953560491701    -1.160361151752    -2.759146809066     1.007825032070
           H         -2.797099508299     1.140429848248    -0.342264809066     1.007825032070
           H         -1.326049508299     2.120387848248    -0.192947809066     1.007825032070
           H         -2.322129508299     1.832347848248     1.214782190934     1.007825032070

  Charge       = 0
  Multiplicity = 1
  Basis Set: 6-31G*
  Basis Set:

    Orbital Energies (a.u.)
    -----------------------

    Doubly Occupied:

       1A    -20.546513     2A    -11.324943     3A    -11.229131
       4A    -11.229053     5A    -11.228487     6A    -11.214129
       7A    -11.208418     8A     -1.394418     9A     -1.089752
      10A     -1.025482    11A     -0.982772    12A     -0.886255
      13A     -0.808532    14A     -0.727698    15A     -0.658383
      16A     -0.644847    17A     -0.623192    18A     -0.611108
      19A     -0.579252    20A     -0.572962    21A     -0.559288
      22A     -0.540234    23A     -0.508754    24A     -0.491910
      25A     -0.479868    26A     -0.465347    27A     -0.459958
      28A     -0.396489

  @DF-RHF Final Energy:  -309.05602005855962

   => Energetics <=

    Nuclear Repulsion Energy =            313.4136719096348997
    One-Electron Energy =               -1039.9649989601630296
    Two-Electron Energy =                 417.4953069919675954
    DFT Exchange-Correlation Energy =       0.0000000000000000
    Empirical Dispersion Energy =           0.0000000000000000
    PCM Polarization Energy =               0.0000000000000000
    EFP Energy =                            0.0000000000000000
    Total Energy =                       -309.0560200585605344

  Mulliken Charges: (a.u.)
   Center  Symbol    Alpha    Beta     Spin     Total
       1     O     4.26293  4.26293  0.00000 -0.52585
       2     C     2.74177  2.74177  0.00000  0.51647
       3     C     3.19684  3.19684  0.00000 -0.39368
       4     C     3.28853  3.28853  0.00000 -0.57705
       5     C     3.16133  3.16133  0.00000 -0.32265
       6     H     0.41481  0.41481  0.00000  0.17038
       7     H     0.40028  0.40028  0.00000  0.19944
       8     C     3.15879  3.15879  0.00000 -0.31759
       9     H     0.41363  0.41363  0.00000  0.17273
      10     H     0.42016  0.42016  0.00000  0.15968
      11     C     3.23949  3.23949  0.00000 -0.47897
      12     H     0.40567  0.40567  0.00000  0.18866
      13     H     0.41891  0.41891  0.00000  0.16217
      14     H     0.42242  0.42242  0.00000  0.15516
      15     H     0.42414  0.42414  0.00000  0.15172
      16     H     0.41675  0.41675  0.00000  0.16650
      17     H     0.39716  0.39716  0.00000  0.20568
      18     H     0.41028  0.41028  0.00000  0.17944
      19     H     0.40612  0.40612  0.00000  0.18776

   Total alpha = 28.00000, Total beta = 28.00000, Total charge =  0.00000
