  ==> Input File <==

--------------------------------------------------------------------------
set {
	reference rhf
	basis 6-31G*
}

set_num_threads( 4 )
memory 2 gb

molecule MOL {
0 1

H	 -1.731265	 -0.912134	 0.385567
O	 -2.035884	 -0.060112	 0.102722
C	 -0.955155	 0.788182	 -0.092531
C	 0.353668	 0.040312	 -0.004810
H	 -0.985057	 1.290372	 -1.054184
H	 -0.974469	 1.533190	 0.688632
F	 0.394464	 -0.937475	 -0.903053
F	 1.368604	 0.853376	 -0.249821
F	 0.546173	 -0.502608	 1.179981

	symmetry c1
}
set optking {
	frozen_dihedral = ("
		1 2 3 5
	")
}

ee = optimize('scf')
oeprop('DIPOLE', 'QUADRUPOLE', 'MULLIKEN_CHARGES')
f=open( 'psi4out.xyz', 'w' )
f.write( "9  " )
f.write( str(ee) + "\n" )
f.write( MOL.save_string_xyz() )
f.close()
--------------------------------------------------------------------------

    Molecular point group: c1
  Charge       = 0
  Multiplicity = 1
  Basis Set: 6-31G*
  Basis Set:
  @DF-RHF Final Energy:  -450.65724428373665
    Total Energy =                       -450.6572442837367589
    Molecular point group: c1
  Basis Set: 6-31G*
  Basis Set:
  Basis Set: 6-31G*
  Basis Set:
  @DF-RHF Final Energy:  -450.65829596129657
    Total Energy =                       -450.6582959612966306
  Basis Set: 6-31G*
  Basis Set:
  Basis Set: 6-31G*
  Basis Set:
  @DF-RHF Final Energy:  -450.65857691408701
    Total Energy =                       -450.6585769140870070
  Basis Set: 6-31G*
  Basis Set:
  Basis Set: 6-31G*
  Basis Set:
  @DF-RHF Final Energy:  -450.65860548288742
    Total Energy =                       -450.6586054828876513
  Basis Set: 6-31G*
  Basis Set:
  Charge       = 0
  Multiplicity = 1
  Basis Set: 6-31G*
  Basis Set:

    Orbital Energies (a.u.)
    -----------------------

    Doubly Occupied:

       1A    -26.351137     2A    -26.350412     3A    -26.347842
       4A    -20.586429     5A    -11.508766     6A    -11.309670
       7A     -1.748301     8A     -1.647552     9A     -1.643836
      10A     -1.398176    11A     -1.052108    12A     -0.929563
      13A     -0.837693    14A     -0.836771    15A     -0.815872
      16A     -0.721290    17A     -0.719868    18A     -0.680831
      19A     -0.672929    20A     -0.671215    21A     -0.650390
      22A     -0.643585    23A     -0.620741    24A     -0.524657
      25A     -0.476849

  @DF-RHF Final Energy:  -450.65860827417117

   => Energetics <=

    Nuclear Repulsion Energy =            277.3716136832888992
    One-Electron Energy =               -1176.5674710006492205
    Two-Electron Energy =                 448.5372490431888082
    DFT Exchange-Correlation Energy =       0.0000000000000000
    Empirical Dispersion Energy =           0.0000000000000000
    PCM Polarization Energy =               0.0000000000000000
    EFP Energy =                            0.0000000000000000
    Total Energy =                       -450.6586082741715700
    Molecular point group: c1
  Basis Set: 6-31G*
  Basis Set:

  -Total Gradient:
     Atom            X                  Y                   Z
    ------   -----------------  -----------------  -----------------
       1        0.000141527216    -0.000721879235    -0.002005232776
       2        0.000044223170     0.000499338496     0.002344645708
       3       -0.001189665662     0.001666917861     0.000405636045
       4       -0.000074466187    -0.000008498057     0.000090542324
       5        0.000997169573    -0.001435226830    -0.000657343544
       6       -0.000003943798     0.000035240249     0.000002134572
       7        0.000095638664    -0.000083794927    -0.000119391439
       8       -0.000012379910    -0.000055405683     0.000012860545
       9        0.000001896939     0.000103308126    -0.000073851439

  **** Optimization is complete! (in 5 steps) ****
    Final optimized geometry and variables:
    Molecular point group: c1

    Geometry (in Angstrom), charge = 0, multiplicity = 1:

    H           -1.783594567294    -0.906820197068     0.436545496960
    O           -2.051646725875    -0.056681443839     0.116694474986
    C           -0.961150628385     0.781286146659    -0.099822416404
    C            0.353754122423     0.045085172195    -0.031292811215
    H           -1.031449232019     1.214055453357    -1.088828520071
    H           -0.932318647593     1.575567779320     0.636163464670
    F            0.445696839556    -0.885461748532    -0.967146580366
    F            1.364254386965     0.879246960653    -0.183777734626
    F            0.499788041683    -0.567905935461     1.136349946042

  Mulliken Charges: (a.u.)
   Center  Symbol    Alpha    Beta     Spin     Total
       1     H     0.27006  0.27006  0.00000  0.45988
       2     O     4.37185  4.37185  0.00000 -0.74369
       3     C     3.02264  3.02264  0.00000 -0.04528
       4     C     2.48780  2.48780  0.00000  1.02440
       5     H     0.40277  0.40277  0.00000  0.19446
       6     H     0.40637  0.40637  0.00000  0.18725
       7     F     4.67830  4.67830  0.00000 -0.35660
       8     F     4.67776  4.67776  0.00000 -0.35552
       9     F     4.68245  4.68245  0.00000 -0.36490

   Total alpha = 25.00000, Total beta = 25.00000, Total charge =  0.00000
