  ==> Input File <==

--------------------------------------------------------------------------
set {
	reference rhf
	basis 6-31G*
}

set_num_threads( 4 )
memory 2 gb

molecule MOL {
0 1

H	 -3.420663	 1.227371	 -1.044276
O	 -3.452007	 0.283848	 -0.965577
C	 -3.181085	 -0.079926	 0.364119
C	 -1.765924	 0.277073	 0.805136
H	 -3.327791	 -1.152017	 0.410903
H	 -3.905698	 0.375695	 1.036898
C	 -0.747467	 0.256024	 -0.335398
H	 -1.777340	 1.263609	 1.269442
H	 -1.463967	 -0.420761	 1.584283
C	 0.664636	 0.637577	 0.113558
H	 -1.077163	 0.929818	 -1.120262
H	 -0.729306	 -0.739528	 -0.775784
C	 1.679630	 0.608503	 -1.032316
H	 0.637833	 1.628246	 0.561081
H	 0.991438	 -0.043287	 0.898561
C	 3.126321	 0.897388	 -0.615437
H	 1.378110	 1.321658	 -1.797947
H	 1.645543	 -0.372175	 -1.502342
C	 3.368687	 2.318197	 -0.102634
H	 3.772921	 0.721454	 -1.471735
H	 3.430901	 0.181873	 0.145792
H	 3.061293	 3.056231	 -0.838809
H	 4.422309	 2.478744	 0.104588
H	 2.823520	 2.518129	 0.813873

	symmetry c1
}
set optking {
	frozen_dihedral = ("
		7 4 3 2
	")
}

ee = optimize('scf')
oeprop('DIPOLE', 'QUADRUPOLE', 'MULLIKEN_CHARGES')
f=open( 'psi4out.xyz', 'w' )
f.write( "24  " )
f.write( str(ee) + "\n" )
f.write( MOL.save_string_xyz() )
f.close()
--------------------------------------------------------------------------

    Molecular point group: c1
  Charge       = 0
  Multiplicity = 1
  Basis Set: 6-31G*
  Basis Set:
  @DF-RHF Final Energy:  -349.24294607823708
    Total Energy =                       -349.2429460782373098
    Molecular point group: c1
  Basis Set: 6-31G*
  Basis Set:
  Basis Set: 6-31G*
  Basis Set:
  @DF-RHF Final Energy:  -349.24334495690329
    Total Energy =                       -349.2433449569034565
  Basis Set: 6-31G*
  Basis Set:
  Basis Set: 6-31G*
  Basis Set:
  @DF-RHF Final Energy:  -349.24366169418721
    Total Energy =                       -349.2436616941866987
  Basis Set: 6-31G*
  Basis Set:
  Basis Set: 6-31G*
  Basis Set:
  @DF-RHF Final Energy:  -349.24366775049862
    Total Energy =                       -349.2436677504983891
  Basis Set: 6-31G*
  Basis Set:
  Basis Set: 6-31G*
  Basis Set:
  @DF-RHF Final Energy:  -349.24367477921709
    Total Energy =                       -349.2436747792172582
  Basis Set: 6-31G*
  Basis Set:
  Charge       = 0
  Multiplicity = 1
  Basis Set: 6-31G*
  Basis Set:

    Orbital Energies (a.u.)
    -----------------------

    Doubly Occupied:

       1A    -20.554433     2A    -11.267910     3A    -11.216463
       4A    -11.213944     5A    -11.212123     6A    -11.211602
       7A    -11.211246     8A    -11.207404     9A     -1.360473
      10A     -1.087791    11A     -1.046527    12A     -0.984680
      13A     -0.916345    14A     -0.851363    15A     -0.796421
      16A     -0.776273    17A     -0.683197    18A     -0.651472
      19A     -0.626240    20A     -0.615720    21A     -0.598371
      22A     -0.585897    23A     -0.554075    24A     -0.544603
      25A     -0.512775    26A     -0.507431    27A     -0.500098
      28A     -0.474776    29A     -0.460384    30A     -0.459967
      31A     -0.453894    32A     -0.449492    33A     -0.421150

  @DF-RHF Final Energy:  -349.24367514319289

   => Energetics <=

    Nuclear Repulsion Energy =            385.2133374488414006
    One-Electron Energy =               -1236.8849427298716819
    Two-Electron Energy =                 502.4279301378370519
    DFT Exchange-Correlation Energy =       0.0000000000000000
    Empirical Dispersion Energy =           0.0000000000000000
    PCM Polarization Energy =               0.0000000000000000
    EFP Energy =                            0.0000000000000000
    Total Energy =                       -349.2436751431931725
    Molecular point group: c1
  Basis Set: 6-31G*
  Basis Set:

  -Total Gradient:
     Atom            X                  Y                   Z
    ------   -----------------  -----------------  -----------------
       1        0.000008776732    -0.000005898506     0.000015803264
       2        0.001706649894    -0.004412980575    -0.001278300410
       3       -0.002733661576     0.007840907729     0.001322855193
       4        0.002030767938    -0.007662180155     0.000998006097
       5       -0.000005279348     0.000005626975     0.000011768564
       6       -0.000015867883     0.000012421355    -0.000021527708
       7       -0.001006328761     0.004254355666    -0.001061974731
       8       -0.000014559243     0.000003872525     0.000021315681
       9        0.000012645812    -0.000006298595    -0.000012393668
      10        0.000021684803    -0.000038910589    -0.000020157190
      11       -0.000022363184    -0.000007933484     0.000001034892
      12        0.000013385165    -0.000005584661     0.000022513322
      13        0.000004834319     0.000039552430     0.000000207668
      14       -0.000028175406    -0.000021897543    -0.000008995640
      15        0.000018757952    -0.000008128185    -0.000000330196
      16       -0.000007263316    -0.000008639905     0.000015646101
      17       -0.000001900820     0.000010499689     0.000000774699
      18        0.000000549751     0.000007232264    -0.000000256859
      19        0.000008889470     0.000006583516    -0.000004708724
      20       -0.000005628118    -0.000010628691    -0.000001025469
      21        0.000000827723     0.000002600096     0.000009310574
      22       -0.000000480665     0.000005426162    -0.000000815513
      23       -0.000000118317     0.000000419756    -0.000001992966
      24        0.000013857083    -0.000000417275    -0.000006756979

  **** Optimization is complete! (in 6 steps) ****
    Final optimized geometry and variables:
    Molecular point group: c1

    Geometry (in Angstrom), charge = 0, multiplicity = 1:

    H           -3.489825085327     0.446846923508    -0.856191633075
    O           -3.420726540800    -0.487981825665    -0.719355857055
    C           -3.084800760159    -0.748695763085     0.619049302729
    C           -1.665672619373    -0.313496220188     1.014514773451
    H           -3.171045616452    -1.823734720050     0.716032660630
    H           -3.814740330931    -0.307929462376     1.294206874507
    C           -0.648895247315    -0.359666882047    -0.128121149913
    H           -1.692442385504     0.703730028960     1.405072839332
    H           -1.335360048359    -0.939795791064     1.839768897887
    C            0.767598357252    -0.007294346852     0.331567511114
    H           -0.954582476388     0.325081857220    -0.912553665063
    H           -0.649782425789    -1.349317313325    -0.579233308294
    C            1.782227482052    -0.016523822473    -0.815026246589
    H            0.753683412961     0.970449987893     0.807440280862
    H            1.085994197275    -0.714241151348     1.096493554166
    C            3.233081115928     0.237061458856    -0.389782157895
    H            1.492380016481     0.724676830877    -1.558350397689
    H            1.732881786229    -0.981404043221    -1.315282136794
    C            3.498009893904     1.638637276271     0.163196729562
    H            3.877405439956     0.074914082293    -1.250461234563
    H            3.525349055787    -0.504543837679     0.350999993842
    H            3.203722358635     2.402185672164    -0.552066358410
    H            4.553864196360     1.776051935241     0.375646331530
    H            2.954980757348     1.821459975968     1.084499976437

  Mulliken Charges: (a.u.)
   Center  Symbol    Alpha    Beta     Spin     Total
       1     H     0.28317  0.28317  0.00000  0.43366
       2     O     4.36751  4.36751  0.00000 -0.73502
       3     C     2.99353  2.99353  0.00000  0.01295
       4     C     3.18023  3.18023  0.00000 -0.36046
       5     H     0.41607  0.41607  0.00000  0.16786
       6     H     0.42765  0.42765  0.00000  0.14469
       7     C     3.14305  3.14305  0.00000 -0.28609
       8     H     0.42591  0.42591  0.00000  0.14818
       9     H     0.41930  0.41930  0.00000  0.16141
      10     C     3.15466  3.15466  0.00000 -0.30931
      11     H     0.42318  0.42318  0.00000  0.15364
      12     H     0.41857  0.41857  0.00000  0.16285
      13     C     3.15214  3.15214  0.00000 -0.30428
      14     H     0.42348  0.42348  0.00000  0.15304
      15     H     0.42486  0.42486  0.00000  0.15027
      16     C     3.15228  3.15228  0.00000 -0.30455
      17     H     0.42470  0.42470  0.00000  0.15061
      18     H     0.42139  0.42139  0.00000  0.15721
      19     C     3.24101  3.24101  0.00000 -0.48201
      20     H     0.42111  0.42111  0.00000  0.15778
      21     H     0.42359  0.42359  0.00000  0.15281
      22     H     0.42268  0.42268  0.00000  0.15465
      23     H     0.41951  0.41951  0.00000  0.16097
      24     H     0.42043  0.42043  0.00000  0.15914

   Total alpha = 33.00000, Total beta = 33.00000, Total charge = -0.00000
