  ==> Input File <==

--------------------------------------------------------------------------
set {
	reference rhf
	basis cc-pvtz
}

set_num_threads( 4 )
memory 2 gb

molecule MOL {
0 1

H	 2.036848	 -1.331116	 1.980615
O	 1.525408	 -1.409448	 1.189396
C	 0.546255	 -0.510441	 1.230252
C	 -0.318151	 -0.570512	 0.000144
O	 0.407828	 0.228313	 2.142966
C	 -1.454884	 0.441630	 -0.000560
H	 0.333796	 -0.431398	 -0.856304
H	 -0.694384	 -1.585572	 -0.077334
C	 -2.822577	 -0.232186	 0.000063
H	 -1.359760	 1.084704	 -0.867077
H	 -1.359641	 1.085996	 0.864983
H	 -2.954352	 -0.858985	 -0.875745
H	 -3.615886	 0.505352	 0.000019
H	 -2.953878	 -0.858359	 0.876394

	symmetry c1
}
set optking {
	frozen_dihedral = ("
		7 4 6 10
	")
}

ee = optimize('scf')
oeprop('DIPOLE', 'QUADRUPOLE', 'MULLIKEN_CHARGES')
f=open( 'psi4out.xyz', 'w' )
f.write( "14  " )
f.write( str(ee) + "\n" )
f.write( MOL.save_string_xyz() )
f.close()
--------------------------------------------------------------------------

    Molecular point group: c1
  Charge       = 0
  Multiplicity = 1
  Basis Set: CC-PVTZ
  Basis Set:
  @DF-RHF Final Energy:  -305.99598920190016
    Total Energy =                       -305.9959892018999881
    Molecular point group: c1
  Basis Set: CC-PVTZ
  Basis Set:
  Basis Set: CC-PVTZ
  Basis Set:
  @DF-RHF Final Energy:  -305.99629060207315
    Total Energy =                       -305.9962906020730884
  Basis Set: CC-PVTZ
  Basis Set:
  Basis Set: CC-PVTZ
  Basis Set:
  @DF-RHF Final Energy:  -305.99616545666345
    Total Energy =                       -305.9961654566637321
  Basis Set: CC-PVTZ
  Basis Set:
  Basis Set: CC-PVTZ
  Basis Set:
  @DF-RHF Final Energy:  -305.99638264914495
    Total Energy =                       -305.9963826491452323
  Basis Set: CC-PVTZ
  Basis Set:
  Basis Set: CC-PVTZ
  Basis Set:
  @DF-RHF Final Energy:  -305.99638555756650
    Total Energy =                       -305.9963855575663843
  Basis Set: CC-PVTZ
  Basis Set:
  Basis Set: CC-PVTZ
  Basis Set:
  @DF-RHF Final Energy:  -305.99638719131622
    Total Energy =                       -305.9963871913160460
  Basis Set: CC-PVTZ
  Basis Set:
  Charge       = 0
  Multiplicity = 1
  Basis Set: CC-PVTZ
  Basis Set:

    Orbital Energies (a.u.)
    -----------------------

    Doubly Occupied:

       1A    -20.604749     2A    -20.541931     3A    -11.375035
       4A    -11.239739     5A    -11.222146     6A    -11.213727
       7A     -1.478783     8A     -1.370232     9A     -1.080939
      10A     -0.980470    11A     -0.860287    12A     -0.791718
      13A     -0.705723    14A     -0.696207    15A     -0.661791
      16A     -0.615015    17A     -0.599009    18A     -0.568573
      19A     -0.558220    20A     -0.495704    21A     -0.490975
      22A     -0.487222    23A     -0.478365    24A     -0.450014

  @DF-RHF Final Energy:  -305.99638791443567

   => Energetics <=

    Nuclear Repulsion Energy =            241.4592197714874828
    One-Electron Energy =                -895.7780696869920121
    Two-Electron Energy =                 348.3224620010690273
    DFT Exchange-Correlation Energy =       0.0000000000000000
    Empirical Dispersion Energy =           0.0000000000000000
    PCM Polarization Energy =               0.0000000000000000
    EFP Energy =                            0.0000000000000000
    Total Energy =                       -305.9963879144355019
    Molecular point group: c1
  Basis Set: CC-PVTZ
  Basis Set:

  -Total Gradient:
     Atom            X                  Y                   Z
    ------   -----------------  -----------------  -----------------
       1        0.000002053953    -0.000003284840    -0.000006774190
       2        0.000078344701    -0.000064676152     0.000013718495
       3       -0.000117147570     0.000139392426     0.000056317001
       4        0.000799310840     0.001006270950     0.000826411233
       5        0.000023213254    -0.000051375493    -0.000060711478
       6       -0.000817214538    -0.000980652532    -0.000823852528
       7       -0.000567667649    -0.000645863190    -0.000547315367
       8       -0.000001474073    -0.000023618188    -0.000011451473
       9        0.000019847395    -0.000030484613     0.000004089988
      10        0.000563493905     0.000633482929     0.000532194350
      11        0.000010188093     0.000003287287     0.000013472175
      12       -0.000004600232     0.000011821908     0.000010438051
      13        0.000012347247     0.000013544703     0.000005104521
      14       -0.000000695318    -0.000007845193    -0.000011640775

  **** Optimization is complete! (in 7 steps) ****
    Final optimized geometry and variables:
    Molecular point group: c1

    Geometry (in Angstrom), charge = 0, multiplicity = 1:

    H            2.381409672191    -0.966798353479     1.175243730605
    O            1.873580507870    -1.026103352514     0.380116296047
    C            0.873078428522    -0.152798088221     0.454062428518
    C            0.011613526590    -0.200990709230    -0.781333737469
    O            0.719170111737     0.545507537476     1.395526434605
    C           -1.146647094443     0.805830331025    -0.800712507330
    H            0.672959006031    -0.076043400515    -1.630299043170
    H           -0.349206241961    -1.221727931979    -0.854275093698
    C           -2.520119172896     0.142241975042    -0.793803067230
    H           -1.053751359690     1.438286576673    -1.675614511622
    H           -1.058368432365     1.457044210489     0.057154023021
    H           -2.655344302650    -0.497659844755    -1.659584325453
    H           -3.308513067886     0.885368788672    -0.804838690458
    H           -2.652336898600    -0.467097627300     0.093862411685

  Mulliken Charges: (a.u.)
   Center  Symbol    Alpha    Beta     Spin     Total
       1     H     0.38246  0.38246  0.00000  0.23508
       2     O     4.16005  4.16005  0.00000 -0.32010
       3     C     2.80097  2.80097  0.00000  0.39806
       4     C     3.11488  3.11488  0.00000 -0.22977
       5     O     4.19106  4.19106  0.00000 -0.38213
       6     C     3.08955  3.08955  0.00000 -0.17911
       7     H     0.43143  0.43143  0.00000  0.13714
       8     H     0.43790  0.43790  0.00000  0.12419
       9     C     3.14854  3.14854  0.00000 -0.29709
      10     H     0.45016  0.45016  0.00000  0.09969
      11     H     0.43654  0.43654  0.00000  0.12691
      12     H     0.45603  0.45603  0.00000  0.08794
      13     H     0.44777  0.44777  0.00000  0.10446
      14     H     0.45265  0.45265  0.00000  0.09471

   Total alpha = 24.00000, Total beta = 24.00000, Total charge = -0.00000
