  ==> Input File <==

--------------------------------------------------------------------------
set {
	reference rhf
	basis 6-31G*
}

set_num_threads( 1 )
memory 2 gb

molecule MOL {
0 1

H	 3.463771	 0.168298	 -0.756243
C	 2.752674	 -0.045734	 0.033351
C	 1.322923	 0.120767	 -0.479465
H	 2.934561	 -1.059086	 0.377456
H	 2.958358	 0.631174	 0.856809
C	 0.306652	 -0.176050	 0.621399
H	 1.144658	 -0.551717	 -1.312180
H	 1.166477	 1.131798	 -0.836680
N	 -1.068537	 -0.011044	 0.085269
H	 0.372515	 -1.192590	 0.973735
H	 0.391664	 0.520566	 1.441230
O	 -1.969804	 -0.028777	 0.865510
O	 -1.178573	 0.096196	 -1.098123

	symmetry c1
}
set optking {
	frozen_dihedral = ("
		7 3 6 9
	")
}

ee = energy('scf')
oeprop('DIPOLE', 'QUADRUPOLE', 'MULLIKEN_CHARGES')
f=open( 'psi4out.xyz', 'w' )
f.write( "13  " )
f.write( str(ee) + "\n" )
f.write( MOL.save_string_xyz() )
f.close()
--------------------------------------------------------------------------

    Molecular point group: c1

    Geometry (in Angstrom), charge = 0, multiplicity = 1:

       Center              X                  Y                   Z               Mass
    ------------   -----------------  -----------------  -----------------  -----------------
           H          3.466068097090     0.175516613179    -0.759912639301     1.007825032070
           C          2.754971097090    -0.038515386821     0.029681360699    12.000000000000
           C          1.325220097090     0.127985613179    -0.483134639301    12.000000000000
           H          2.936858097090    -1.051867386821     0.373786360699     1.007825032070
           H          2.960655097090     0.638392613179     0.853139360699     1.007825032070
           C          0.308949097090    -0.168831386821     0.617729360699    12.000000000000
           H          1.146955097090    -0.544498386821    -1.315849639301     1.007825032070
           H          1.168774097090     1.139016613179    -0.840349639301     1.007825032070
           N         -1.066239902910    -0.003825386821     0.081599360699    14.003074004780
           H          0.374812097090    -1.185371386821     0.970065360699     1.007825032070
           H          0.393961097090     0.527784613179     1.437560360699     1.007825032070
           O         -1.967506902910    -0.021558386821     0.861840360699    15.994914619560
           O         -1.176275902910     0.103414613179    -1.101792639301    15.994914619560

  Charge       = 0
  Multiplicity = 1
  Basis Set: 6-31G*
  Basis Set:

    Orbital Energies (a.u.)
    -----------------------

    Doubly Occupied:

       1A    -20.602962     2A    -20.600513     3A    -15.848928
       4A    -11.300719     5A    -11.246701     6A    -11.234616
       7A     -1.632236     8A     -1.418092     9A     -1.133469
      10A     -1.025615    11A     -0.882650    12A     -0.822756
      13A     -0.762351    14A     -0.751758    15A     -0.726772
      16A     -0.655538    17A     -0.604703    18A     -0.579617
      19A     -0.550991    20A     -0.518364    21A     -0.509830
      22A     -0.484373    23A     -0.473059    24A     -0.448721

  @DF-RHF Final Energy:  -321.73302533634796

   => Energetics <=

    Nuclear Repulsion Energy =            248.2908313761625720
    One-Electron Energy =                -930.4171012413461312
    Two-Electron Energy =                 360.3932445288354529
    DFT Exchange-Correlation Energy =       0.0000000000000000
    Empirical Dispersion Energy =           0.0000000000000000
    PCM Polarization Energy =               0.0000000000000000
    EFP Energy =                            0.0000000000000000
    Total Energy =                       -321.7330253363480779

  Mulliken Charges: (a.u.)
   Center  Symbol    Alpha    Beta     Spin     Total
       1     H     0.40831  0.40831  0.00000  0.18338
       2     C     3.24877  3.24877  0.00000 -0.49753
       3     C     3.16516  3.16516  0.00000 -0.33032
       4     H     0.41760  0.41760  0.00000  0.16479
       5     H     0.41792  0.41792  0.00000  0.16417
       6     C     3.09140  3.09140  0.00000 -0.18280
       7     H     0.39815  0.39815  0.00000  0.20369
       8     H     0.40383  0.40383  0.00000  0.19234
       9     N     3.22291  3.22291  0.00000  0.55419
      10     H     0.38402  0.38402  0.00000  0.23195
      11     H     0.38599  0.38599  0.00000  0.22801
      12     O     4.22911  4.22911  0.00000 -0.45822
      13     O     4.22682  4.22682  0.00000 -0.45364

   Total alpha = 24.00000, Total beta = 24.00000, Total charge = -0.00000
