  ==> Input File <==

--------------------------------------------------------------------------
set {
	reference rhf
	basis 6-31G*
}

set_num_threads( 4 )
memory 2 gb

molecule MOL {
0 1

H	 -3.420663	 1.227371	 -1.044276
O	 -3.452007	 0.283848	 -0.965577
C	 -3.181085	 -0.079926	 0.364119
C	 -1.765924	 0.277073	 0.805136
H	 -3.327791	 -1.152017	 0.410903
H	 -3.905698	 0.375695	 1.036898
C	 -0.677594	 -0.417312	 -0.014550
H	 -1.637766	 1.358238	 0.744969
H	 -1.659588	 0.017670	 1.857098
C	 0.344783	 -1.157763	 0.850120
H	 -0.171349	 0.318968	 -0.631249
H	 -1.145780	 -1.120458	 -0.701413
C	 1.427594	 -1.855211	 0.022368
H	 0.801403	 -0.452224	 1.540143
H	 -0.168013	 -1.897015	 1.464246
C	 2.425038	 -2.684607	 0.839291
H	 1.970952	 -1.111563	 -0.558534
H	 0.945144	 -2.509983	 -0.700358
C	 3.315052	 -1.866340	 1.776691
H	 3.059896	 -3.236153	 0.150057
H	 1.883827	 -3.431935	 1.416173
H	 3.859659	 -1.101924	 1.228778
H	 4.044976	 -2.502442	 2.268040
H	 2.741073	 -1.371344	 2.553023

	symmetry c1
}
set optking {
	frozen_dihedral = ("
		11 7 4 3
	")
}

ee = optimize('scf')
oeprop('DIPOLE', 'QUADRUPOLE', 'MULLIKEN_CHARGES')
f=open( 'psi4out.xyz', 'w' )
f.write( "24  " )
f.write( str(ee) + "\n" )
f.write( MOL.save_string_xyz() )
f.close()
--------------------------------------------------------------------------

    Molecular point group: c1
  Charge       = 0
  Multiplicity = 1
  Basis Set: 6-31G*
  Basis Set:
  @DF-RHF Final Energy:  -349.24253622555011
    Total Energy =                       -349.2425362255501113
    Molecular point group: c1
  Basis Set: 6-31G*
  Basis Set:
  Basis Set: 6-31G*
  Basis Set:
  @DF-RHF Final Energy:  -349.24276423527732
    Total Energy =                       -349.2427642352771500
  Basis Set: 6-31G*
  Basis Set:
  Basis Set: 6-31G*
  Basis Set:
  @DF-RHF Final Energy:  -349.24285988752297
    Total Energy =                       -349.2428598875227408
  Basis Set: 6-31G*
  Basis Set:
  Charge       = 0
  Multiplicity = 1
  Basis Set: 6-31G*
  Basis Set:

    Orbital Energies (a.u.)
    -----------------------

    Doubly Occupied:

       1A    -20.553063     2A    -11.267577     3A    -11.217238
       4A    -11.213896     5A    -11.212546     6A    -11.211500
       7A    -11.211244     8A    -11.207248     9A     -1.359851
      10A     -1.087562    11A     -1.046768    12A     -0.985294
      13A     -0.914614    14A     -0.851559    15A     -0.800565
      16A     -0.776644    17A     -0.677816    18A     -0.648509
      19A     -0.631582    20A     -0.614187    21A     -0.604854
      22A     -0.578082    23A     -0.550764    24A     -0.548353
      25A     -0.518426    26A     -0.506792    27A     -0.495168
      28A     -0.475500    29A     -0.468844    30A     -0.460014
      31A     -0.452376    32A     -0.446171    33A     -0.420085

  @DF-RHF Final Energy:  -349.24286064726687

   => Energetics <=

    Nuclear Repulsion Energy =            384.7214922672817465
    One-Electron Energy =               -1235.8993244858015714
    Two-Electron Energy =                 501.9349715712527882
    DFT Exchange-Correlation Energy =       0.0000000000000000
    Empirical Dispersion Energy =           0.0000000000000000
    PCM Polarization Energy =               0.0000000000000000
    EFP Energy =                            0.0000000000000000
    Total Energy =                       -349.2428606472670367
    Molecular point group: c1
  Basis Set: 6-31G*
  Basis Set:

  -Total Gradient:
     Atom            X                  Y                   Z
    ------   -----------------  -----------------  -----------------
       1        0.000021304607    -0.000060802271     0.000056048844
       2        0.000033688552    -0.000168425919    -0.000161858526
       3       -0.000009691117    -0.000704369106     0.000731510696
       4        0.000208987423     0.001288574186    -0.000701813688
       5       -0.000024596792     0.000039514605    -0.000015449122
       6        0.000037676564     0.000017713678     0.000044888011
       7       -0.001309401755    -0.000571705041    -0.001335864351
       8       -0.000000876677    -0.000084819051     0.000006094978
       9        0.000127699921    -0.000085009308     0.000035570479
      10       -0.000067842299    -0.000089072327     0.000115099706
      11        0.001074597524     0.000332868187     0.001111890912
      12       -0.000088190321     0.000069990251     0.000080267530
      13        0.000001607052     0.000085318647    -0.000016317397
      14       -0.000052601863    -0.000020341508    -0.000032172595
      15        0.000022255087    -0.000061952643     0.000073988111
      16       -0.000036977007     0.000017908739     0.000048000747
      17        0.000013077823     0.000016896049    -0.000007758119
      18        0.000032299674    -0.000011594015    -0.000009161195
      19        0.000022557014    -0.000004088374    -0.000010002695
      20       -0.000016896220    -0.000011864087    -0.000003423142
      21       -0.000013423042     0.000024172085     0.000012342247
      22       -0.000005081082     0.000015342277     0.000001001732
      23        0.000007545975    -0.000001786365    -0.000018323221
      24        0.000022280966    -0.000032468692    -0.000004559939

  **** Optimization is complete! (in 4 steps) ****
    Final optimized geometry and variables:
    Molecular point group: c1

    Geometry (in Angstrom), charge = 0, multiplicity = 1:

    H           -3.110503583103     2.108079957024    -1.533906369902
    O           -3.194266333558     1.172265214777    -1.413604707471
    C           -2.948701185922     0.853380908007    -0.067889997628
    C           -1.529662288699     1.189740288679     0.374255553105
    H           -3.119590383676    -0.212852753596     0.015307210844
    H           -3.669627262491     1.349805201597     0.579729749881
    C           -0.440624527942     0.477967693656    -0.455811796936
    H           -1.391025217460     2.268777040168     0.336020477273
    H           -1.438683552414     0.917692759148     1.424029685625
    C            0.589199358767    -0.258536320821     0.406058598411
    H            0.082490384361     1.202184659531    -1.074391132909
    H           -0.905997349451    -0.222724120121    -1.142021231131
    C            1.680348566238    -0.938672322370    -0.423967868894
    H            1.035510863287     0.446279475384     1.103517901613
    H            0.080364098903    -1.007195139874     1.012565970473
    C            2.681321079922    -1.768135120534     0.388612328414
    H            2.220492985498    -0.185086066171    -0.995287113779
    H            1.205870653247    -1.589723629456    -1.155366619078
    C            3.566614324109    -0.951163293684     1.331561158101
    H            3.319240939949    -2.312446159620    -0.303449903924
    H            2.143258808637    -2.521501915141     0.960492202786
    H            4.106182322740    -0.179326411593     0.789072606887
    H            4.300798484519    -1.586248642129     1.817855817840
    H            2.989875171601    -0.465408848190     2.111625682523

  Mulliken Charges: (a.u.)
   Center  Symbol    Alpha    Beta     Spin     Total
       1     H     0.28347  0.28347  0.00000  0.43306
       2     O     4.36833  4.36833  0.00000 -0.73666
       3     C     2.99813  2.99813  0.00000  0.00373
       4     C     3.17252  3.17252  0.00000 -0.34503
       5     H     0.41656  0.41656  0.00000  0.16689
       6     H     0.42884  0.42884  0.00000  0.14233
       7     C     3.15255  3.15255  0.00000 -0.30510
       8     H     0.42496  0.42496  0.00000  0.15008
       9     H     0.41952  0.41952  0.00000  0.16096
      10     C     3.15667  3.15667  0.00000 -0.31334
      11     H     0.42160  0.42160  0.00000  0.15679
      12     H     0.41009  0.41009  0.00000  0.17982
      13     C     3.15309  3.15309  0.00000 -0.30617
      14     H     0.42237  0.42237  0.00000  0.15526
      15     H     0.42526  0.42526  0.00000  0.14948
      16     C     3.15223  3.15223  0.00000 -0.30446
      17     H     0.42445  0.42445  0.00000  0.15110
      18     H     0.42120  0.42120  0.00000  0.15760
      19     C     3.24094  3.24094  0.00000 -0.48188
      20     H     0.42109  0.42109  0.00000  0.15783
      21     H     0.42360  0.42360  0.00000  0.15280
      22     H     0.42251  0.42251  0.00000  0.15498
      23     H     0.41953  0.41953  0.00000  0.16093
      24     H     0.42050  0.42050  0.00000  0.15900

   Total alpha = 33.00000, Total beta = 33.00000, Total charge = -0.00000
