  ==> Input File <==

--------------------------------------------------------------------------
set {
	reference rhf
	basis 6-31G*
}

set_num_threads( 1 )
memory 2 gb

molecule MOL {
0 1

H	 2.733608	 -1.172823	 1.100570
O	 3.442541	 -1.129668	 0.475572
C	 3.207807	 -2.038079	 -0.570250
C	 2.097691	 -1.592518	 -1.515683
H	 4.142040	 -2.110881	 -1.112083
H	 2.986841	 -3.027996	 -0.172735
C	 0.718604	 -1.502685	 -0.857719
H	 2.367011	 -0.625408	 -1.932253
H	 2.057103	 -2.295476	 -2.346086
C	 -0.382755	 -1.105696	 -1.844749
H	 0.756299	 -0.780882	 -0.046581
H	 0.467520	 -2.464530	 -0.410336
C	 -1.798052	 -1.084181	 -1.255841
H	 -0.152468	 -0.127830	 -2.263786
H	 -0.367710	 -1.803698	 -2.679174
C	 -2.037799	 -0.007733	 -0.193645
H	 -2.504364	 -0.931843	 -2.069311
H	 -2.027645	 -2.062484	 -0.836261
C	 -3.489788	 0.042957	 0.286558
H	 -1.760270	 0.964399	 -0.598674
H	 -1.390334	 -0.176827	 0.663385
C	 -4.216917	 1.317354	 -0.141063
H	 -4.025645	 -0.823308	 -0.095450
H	 -3.513059	 -0.038752	 1.371301
H	 -4.239342	 1.411634	 -1.223113
H	 -5.243387	 1.322503	 0.212445
H	 -3.726170	 2.201406	 0.256408

	symmetry c1
}
set optking {
	frozen_dihedral = ("
		14 10 7 4,
		14 10 13 16,
		10 7 4 8,
		8 4 3 2,
		10 13 16 20,
		4 3 2 1
	")
}

ee = energy('scf')
oeprop('DIPOLE', 'QUADRUPOLE', 'MULLIKEN_CHARGES')
f=open( 'psi4out.xyz', 'w' )
f.write( "27  " )
f.write( str(ee) + "\n" )
f.write( MOL.save_string_xyz() )
f.close()
--------------------------------------------------------------------------

    Molecular point group: c1

    Geometry (in Angstrom), charge = 0, multiplicity = 1:

       Center              X                  Y                   Z               Mass
    ------------   -----------------  -----------------  -----------------  -----------------
           H          2.958730577166    -0.386283966441     1.698246025542     1.007825032070
           O          3.667663577166    -0.343128966441     1.073248025542    15.994914619560
           C          3.432929577166    -1.251539966441     0.027426025542    12.000000000000
           C          2.322813577166    -0.805978966441    -0.918006974458    12.000000000000
           H          4.367162577166    -1.324341966441    -0.514406974458     1.007825032070
           H          3.211963577166    -2.241456966441     0.424941025542     1.007825032070
           C          0.943726577166    -0.716145966441    -0.260042974458    12.000000000000
           H          2.592133577166     0.161131033559    -1.334576974458     1.007825032070
           H          2.282225577166    -1.508936966441    -1.748409974458     1.007825032070
           C         -0.157632422834    -0.319156966441    -1.247072974458    12.000000000000
           H          0.981421577166     0.005657033559     0.551095025542     1.007825032070
           H          0.692642577166    -1.677990966441     0.187340025542     1.007825032070
           C         -1.572929422834    -0.297641966441    -0.658164974458    12.000000000000
           H          0.072654577166     0.658709033559    -1.666109974458     1.007825032070
           H         -0.142587422834    -1.017158966441    -2.081497974458     1.007825032070
           C         -1.812676422834     0.778806033559     0.404031025542    12.000000000000
           H         -2.279241422834    -0.145303966441    -1.471634974458     1.007825032070
           H         -1.802522422834    -1.275944966441    -0.238584974458     1.007825032070
           C         -3.264665422834     0.829496033559     0.884234025542    12.000000000000
           H         -1.535147422834     1.750938033559    -0.000997974458     1.007825032070
           H         -1.165211422834     0.609712033559     1.261061025542     1.007825032070
           C         -3.991794422834     2.103893033559     0.456613025542    12.000000000000
           H         -3.800522422834    -0.036768966441     0.502226025542     1.007825032070
           H         -3.287936422834     0.747787033559     1.968977025542     1.007825032070
           H         -4.014219422834     2.198173033559    -0.625436974458     1.007825032070
           H         -5.018264422834     2.109042033559     0.810121025542     1.007825032070
           H         -3.501047422834     2.987945033559     0.854084025542     1.007825032070

  Charge       = 0
  Multiplicity = 1
  Basis Set: 6-31G*
  Basis Set:

    Orbital Energies (a.u.)
    -----------------------

    Doubly Occupied:

       1A    -20.552277     2A    -11.267009     3A    -11.219690
       4A    -11.216931     5A    -11.216099     6A    -11.215139
       7A    -11.214451     8A    -11.212712     9A    -11.209403
      10A     -1.359015    11A     -1.095358    12A     -1.061578
      13A     -1.010668    14A     -0.947543    15A     -0.889525
      16A     -0.822420    17A     -0.800010    18A     -0.777479
      19A     -0.693691    20A     -0.647381    21A     -0.635447
      22A     -0.615811    23A     -0.600562    24A     -0.590553
      25A     -0.579415    26A     -0.554256    27A     -0.540042
      28A     -0.527824    29A     -0.510225    30A     -0.490478
      31A     -0.484838    32A     -0.476592    33A     -0.468947
      34A     -0.459802    35A     -0.448647    36A     -0.439905
      37A     -0.422691

  @DF-RHF Final Energy:  -388.27604968785289

   => Energetics <=

    Nuclear Repulsion Energy =            460.2210288476546225
    One-Electron Energy =               -1438.4452495791720139
    Two-Electron Energy =                 589.9481710436641606
    DFT Exchange-Correlation Energy =       0.0000000000000000
    Empirical Dispersion Energy =           0.0000000000000000
    PCM Polarization Energy =               0.0000000000000000
    EFP Energy =                            0.0000000000000000
    Total Energy =                       -388.2760496878531740

  Mulliken Charges: (a.u.)
   Center  Symbol    Alpha    Beta     Spin     Total
       1     H     0.27992  0.27992  0.00000  0.44017
       2     O     4.37096  4.37096  0.00000 -0.74193
       3     C     2.99738  2.99738  0.00000  0.00525
       4     C     3.16087  3.16087  0.00000 -0.32174
       5     H     0.41445  0.41445  0.00000  0.17110
       6     H     0.43206  0.43206  0.00000  0.13587
       7     C     3.16315  3.16315  0.00000 -0.32630
       8     H     0.41498  0.41498  0.00000  0.17003
       9     H     0.42435  0.42435  0.00000  0.15129
      10     C     3.15257  3.15257  0.00000 -0.30514
      11     H     0.42293  0.42293  0.00000  0.15414
      12     H     0.42551  0.42551  0.00000  0.14898
      13     C     3.15593  3.15593  0.00000 -0.31186
      14     H     0.42158  0.42158  0.00000  0.15683
      15     H     0.42168  0.42168  0.00000  0.15665
      16     C     3.15579  3.15579  0.00000 -0.31157
      17     H     0.42106  0.42106  0.00000  0.15789
      18     H     0.42361  0.42361  0.00000  0.15278
      19     C     3.15457  3.15457  0.00000 -0.30914
      20     H     0.42068  0.42068  0.00000  0.15864
      21     H     0.42125  0.42125  0.00000  0.15750
      22     C     3.24019  3.24019  0.00000 -0.48038
      23     H     0.42022  0.42022  0.00000  0.15956
      24     H     0.42085  0.42085  0.00000  0.15831
      25     H     0.42196  0.42196  0.00000  0.15609
      26     H     0.42036  0.42036  0.00000  0.15927
      27     H     0.42114  0.42114  0.00000  0.15771

   Total alpha = 37.00000, Total beta = 37.00000, Total charge = -0.00000
