  ==> Input File <==

--------------------------------------------------------------------------
set {
	reference rhf
	basis 6-31G*
}

set_num_threads( 1 )
memory 2 gb

molecule MOL {
0 1

O	 -2.340347	 -0.551823	 -0.971448
C	 -1.921153	 0.064240	 -0.045697
C	 -2.765918	 0.840431	 0.928082
O	 -0.632575	 0.154573	 0.251549
H	 -2.472016	 1.883722	 0.917383
H	 -3.807494	 0.746757	 0.659418
H	 -2.605992	 0.464671	 1.932066
C	 0.160891	 -1.019931	 0.106212
C	 1.589627	 -0.672828	 0.480843
H	 0.089836	 -1.367806	 -0.916050
H	 -0.238459	 -1.792301	 0.749618
C	 2.246377	 0.346236	 -0.452210
H	 2.163194	 -1.597435	 0.473358
H	 1.604769	 -0.303424	 1.502885
C	 3.691736	 0.652107	 -0.061850
H	 2.219579	 -0.032311	 -1.472055
H	 1.666466	 1.263317	 -0.447249
H	 4.134505	 1.377213	 -0.737283
H	 4.305508	 -0.243868	 -0.089969
H	 3.748266	 1.059562	 0.943567

	symmetry c1
}
set optking {
	frozen_dihedral = ("
		16 12 9 8,
		2 4 8 10,
		12 9 8 10
	")
}

ee = energy('scf')
oeprop('DIPOLE', 'QUADRUPOLE', 'MULLIKEN_CHARGES')
f=open( 'psi4out.xyz', 'w' )
f.write( "20  " )
f.write( str(ee) + "\n" )
f.write( MOL.save_string_xyz() )
f.close()
--------------------------------------------------------------------------

    Molecular point group: c1

    Geometry (in Angstrom), charge = 0, multiplicity = 1:

       Center              X                  Y                   Z               Mass
    ------------   -----------------  -----------------  -----------------  -----------------
           O         -2.334832210387    -0.531480673091    -1.001538662583    15.994914619560
           C         -1.915638210387     0.084582326909    -0.075787662583    12.000000000000
           C         -2.760403210387     0.860773326909     0.897991337417    12.000000000000
           O         -0.627060210387     0.174915326909     0.221458337417    15.994914619560
           H         -2.466501210387     1.904064326909     0.887292337417     1.007825032070
           H         -3.801979210387     0.767099326909     0.629327337417     1.007825032070
           H         -2.600477210387     0.485013326909     1.901975337417     1.007825032070
           C          0.166405789613    -0.999588673091     0.076121337417    12.000000000000
           C          1.595141789613    -0.652485673091     0.450752337417    12.000000000000
           H          0.095350789613    -1.347463673091    -0.946140662583     1.007825032070
           H         -0.232944210387    -1.771958673091     0.719527337417     1.007825032070
           C          2.251891789613     0.366578326909    -0.482300662583    12.000000000000
           H          2.168708789613    -1.577092673091     0.443267337417     1.007825032070
           H          1.610283789613    -0.283081673091     1.472794337417     1.007825032070
           C          3.697250789613     0.672449326909    -0.091940662583    12.000000000000
           H          2.225093789613    -0.011968673091    -1.502145662583     1.007825032070
           H          1.671980789613     1.283659326909    -0.477339662583     1.007825032070
           H          4.140019789613     1.397555326909    -0.767373662583     1.007825032070
           H          4.311022789613    -0.223525673091    -0.120059662583     1.007825032070
           H          3.753780789613     1.079904326909     0.913476337417     1.007825032070

  Charge       = 0
  Multiplicity = 1
  Basis Set: 6-31G*
  Basis Set:

    Orbital Energies (a.u.)
    -----------------------

    Doubly Occupied:

       1A    -20.594117     2A    -20.547111     3A    -11.374955
       4A    -11.286318     5A    -11.233342     6A    -11.226618
       7A    -11.219780     8A    -11.212915     9A     -1.465620
      10A     -1.362971    11A     -1.085785    12A     -1.026316
      13A     -0.983215    14A     -0.881334    15A     -0.810708
      16A     -0.776130    17A     -0.693446    18A     -0.680701
      19A     -0.663751    20A     -0.630865    21A     -0.604975
      22A     -0.592307    23A     -0.574545    24A     -0.551723
      25A     -0.542094    26A     -0.537348    27A     -0.502767
      28A     -0.484718    29A     -0.475092    30A     -0.473811
      31A     -0.448228    32A     -0.435725

  @DF-RHF Final Energy:  -383.93743722680608

   => Energetics <=

    Nuclear Repulsion Energy =            384.8688123347328656
    One-Electron Energy =               -1285.6536865605112325
    Two-Electron Energy =                 516.8474369989719435
    DFT Exchange-Correlation Energy =       0.0000000000000000
    Empirical Dispersion Energy =           0.0000000000000000
    PCM Polarization Energy =               0.0000000000000000
    EFP Energy =                            0.0000000000000000
    Total Energy =                       -383.9374372268064235

  Mulliken Charges: (a.u.)
   Center  Symbol    Alpha    Beta     Spin     Total
       1     O     4.27493  4.27493  0.00000 -0.54986
       2     C     2.61925  2.61925  0.00000  0.76151
       3     C     3.28297  3.28297  0.00000 -0.56593
       4     O     4.31120  4.31120  0.00000 -0.62239
       5     H     0.39962  0.39962  0.00000  0.20075
       6     H     0.39806  0.39806  0.00000  0.20388
       7     H     0.40352  0.40352  0.00000  0.19296
       8     C     3.00495  3.00495  0.00000 -0.00990
       9     C     3.16439  3.16439  0.00000 -0.32877
      10     H     0.40423  0.40423  0.00000  0.19153
      11     H     0.41630  0.41630  0.00000  0.16741
      12     C     3.15492  3.15492  0.00000 -0.30983
      13     H     0.41872  0.41872  0.00000  0.16257
      14     H     0.41508  0.41508  0.00000  0.16983
      15     C     3.24060  3.24060  0.00000 -0.48121
      16     H     0.42116  0.42116  0.00000  0.15768
      17     H     0.41017  0.41017  0.00000  0.17965
      18     H     0.41702  0.41702  0.00000  0.16596
      19     H     0.42200  0.42200  0.00000  0.15600
      20     H     0.42092  0.42092  0.00000  0.15816

   Total alpha = 32.00000, Total beta = 32.00000, Total charge =  0.00000
