                              Psi4 1.0.54 Driver

  ==> Input File <==

--------------------------------------------------------------------------
set {
	reference rhf
	basis cc-pvtz
}

set_num_threads( 4 )
memory 2 gb

molecule MOL {
0 1

H	 -2.772828	 0.956438	 -1.171660
O	 -1.958300	 0.479674	 -1.226053
C	 -1.605397	 0.107680	 0.001145
C	 -0.310616	 -0.658853	 0.000791
O	 -2.258412	 0.371951	 0.950725
C	 0.926581	 0.227233	 0.000178
H	 -0.327628	 -1.313681	 -0.864448
H	 -0.327041	 -1.313334	 0.866298
C	 2.220156	 -0.582071	 -0.000088
H	 0.899945	 0.878221	 -0.866390
H	 0.900542	 0.878581	 0.866486
C	 3.466689	 0.296012	 -0.000457
H	 2.239073	 -1.234095	 -0.869382
H	 2.239505	 -1.233985	 0.869270
H	 3.493549	 0.935857	 -0.875887
H	 4.368821	 -0.304526	 -0.001199
H	 3.494559	 0.935166	 0.875458

	symmetry c1
}
set optking {
	frozen_dihedral = ("
		2 3 4 7
	")
}

ee,wfn = optimize('scf', return_wfn=True)
oeprop( wfn, 'DIPOLE', 'QUADRUPOLE', 'MULLIKEN_CHARGES')
f=open( 'psi4out.xyz', 'w' )
f.write( "17  " )
f.write( str(ee) + "\n" )
f.write( MOL.save_string_xyz() )
f.close()
--------------------------------------------------------------------------

    Molecular point group: c1
  Charge       = 0
  Multiplicity = 1
  Basis Set: CC-PVTZ
  Basis Set:
  @DF-RHF Final Energy:  -345.04696615025165
    Total Energy =                       -345.0469661502517056
    Molecular point group: c1
  Basis Set: CC-PVTZ
  Basis Set:
  Basis Set: CC-PVTZ
  Basis Set:
  @DF-RHF Final Energy:  -345.04751353636232
    Total Energy =                       -345.0475135363625441
  Basis Set: CC-PVTZ
  Basis Set:
  Basis Set: CC-PVTZ
  Basis Set:
  @DF-RHF Final Energy:  -345.04645022378776
    Total Energy =                       -345.0464502237879287
  Basis Set: CC-PVTZ
  Basis Set:
  Basis Set: CC-PVTZ
  Basis Set:
  @DF-RHF Final Energy:  -345.04762427137484
    Total Energy =                       -345.0476242713750707
  Basis Set: CC-PVTZ
  Basis Set:
  Basis Set: CC-PVTZ
  Basis Set:
  @DF-RHF Final Energy:  -345.04765480775131
    Total Energy =                       -345.0476548077513144
  Basis Set: CC-PVTZ
  Basis Set:
  Charge       = 0
  Multiplicity = 1
  Basis Set: CC-PVTZ
  Basis Set:

    Orbital Energies (a.u.)
    -----------------------

    Doubly Occupied:

       1A    -20.604788     2A    -20.538593     3A    -11.372249
       4A    -11.237455     5A    -11.231359     6A    -11.224829
       7A    -11.214269     8A     -1.476986     9A     -1.367748
      10A     -1.096594    11A     -1.021215    12A     -0.912255
      13A     -0.824984    14A     -0.806738    15A     -0.705875
      16A     -0.685177    17A     -0.652582    18A     -0.643371
      19A     -0.589277    20A     -0.587928    21A     -0.582272
      22A     -0.538871    23A     -0.517348    24A     -0.496493
      25A     -0.486469    26A     -0.479800    27A     -0.473456
      28A     -0.438338

  @DF-RHF Final Energy:  -345.04765625426256

   => Energetics <=

    Nuclear Repulsion Energy =            305.4664372280417979
    One-Electron Energy =               -1075.4135477005163466
    Two-Electron Energy =                 424.8994542182118721
    DFT Exchange-Correlation Energy =       0.0000000000000000
    Empirical Dispersion Energy =           0.0000000000000000
    PCM Polarization Energy =               0.0000000000000000
    EFP Energy =                            0.0000000000000000
    Total Energy =                       -345.0476562542627335
    Molecular point group: c1
  Basis Set: CC-PVTZ
  Basis Set:

  -Total Gradient:
     Atom            X                  Y                   Z
    ------   -----------------  -----------------  -----------------
       1        0.000002901601    -0.000009192696     0.000036321073
       2        0.000019283350    -0.000194836682    -0.000088636417
       3       -0.000013905584     0.000279453355    -0.000153177980
       4       -0.000144231150    -0.000180328792     0.000188721124
       5        0.000075485615    -0.000037352233     0.000150933797
       6       -0.000065377854    -0.000039275727    -0.000001381729
       7        0.000076624803     0.000145831035    -0.000137910226
       8       -0.000013418808     0.000001126494     0.000004942693
       9        0.000019229951    -0.000006835675     0.000004930448
      10        0.000005432734     0.000025384204    -0.000021523301
      11        0.000018932995     0.000016898951     0.000008936873
      12        0.000010104302     0.000000826127     0.000008428006
      13       -0.000009272201    -0.000004499091    -0.000005699287
      14        0.000001943710    -0.000013457673     0.000011832578
      15        0.000001238911     0.000009531911    -0.000014373174
      16        0.000008975351     0.000000831206     0.000002328099
      17        0.000006052264     0.000005895287     0.000005327421

  **** Optimization is complete! (in 6 steps) ****
    Final optimized geometry and variables:
    Molecular point group: c1

    Geometry (in Angstrom), charge = 0, multiplicity = 1:

    H           -2.832676023847     0.824058338773    -1.020733522150
    O           -2.029054052288     0.332537917517    -1.101854273163
    C           -1.626183604567    -0.017843251845     0.116229542650
    C           -0.322639064771    -0.766946351882     0.099460526349
    O           -2.238889320633     0.265516845660     1.087685294168
    C            0.869399083266     0.192187842849    -0.004398561328
    H           -0.320228371990    -1.449032254574    -0.741469517534
    H           -0.266619183858    -1.337550898695     1.015357518821
    C            2.206328415161    -0.542888527373    -0.001161152447
    H            0.779717454456     0.779747909781    -0.912106862532
    H            0.836311186100     0.889202012928     0.827077442005
    C            3.400085861898     0.400889752433    -0.096972322716
    H            2.232161435074    -1.243841426419    -0.830709846257
    H            2.286846976311    -1.136819271243     0.904686031187
    H            3.364490107230     0.985509287552    -1.010021100351
    H            4.333735828021    -0.149111009716    -0.092496872504
    H            3.419516480693     1.093036953287     0.737935400879

  Mulliken Charges: (a.u.)
   Center  Symbol    Alpha    Beta     Spin     Total
       1     H     0.38041  0.38041  0.00000  0.23917
       2     O     4.16421  4.16421  0.00000 -0.32843
       3     C     2.80518  2.80518  0.00000  0.38964
       4     C     3.08633  3.08633  0.00000 -0.17266
       5     O     4.19746  4.19746  0.00000 -0.39492
       6     C     3.10003  3.10003  0.00000 -0.20007
       7     H     0.44290  0.44290  0.00000  0.11420
       8     H     0.43734  0.43734  0.00000  0.12531
       9     C     3.08739  3.08739  0.00000 -0.17479
      10     H     0.44524  0.44524  0.00000  0.10953
      11     H     0.44459  0.44459  0.00000  0.11082
      12     C     3.14929  3.14929  0.00000 -0.29858
      13     H     0.45302  0.45302  0.00000  0.09395
      14     H     0.45208  0.45208  0.00000  0.09583
      15     H     0.45410  0.45410  0.00000  0.09181
      16     H     0.44710  0.44710  0.00000  0.10580
      17     H     0.45332  0.45332  0.00000  0.09336

   Total alpha = 28.00000, Total beta = 28.00000, Total charge =  0.00000

*** Psi4 exiting successfully. Buy a developer a beer!
