  ==> Input File <==

--------------------------------------------------------------------------
set {
	reference rhf
	basis cc-pvtz
}

set_num_threads( 4 )
memory 2 gb

molecule MOL {
0 1

H	 2.637202	 0.388489	 0.470481
O	 2.063695	 -0.083403	 -0.105237
C	 0.742924	 0.005675	 0.350750
H	 0.731380	 0.039219	 1.440080
C	 -0.064076	 -1.193495	 -0.124425
C	 -0.047832	 1.190568	 -0.194462
H	 0.194729	 -1.376165	 -1.161308
H	 0.163013	 -2.094508	 0.429933
C	 -1.533112	 -0.752002	 0.006102
H	 0.148003	 1.266545	 -1.259275
H	 0.226235	 2.136493	 0.259722
C	 -1.506634	 0.799189	 0.067162
H	 -2.124360	 -1.110499	 -0.826089
H	 -1.983103	 -1.158030	 0.903403
H	 -2.183808	 1.252169	 -0.644677
H	 -1.813926	 1.138698	 1.049457

	symmetry c1
}
set optking {
	frozen_dihedral = ("
		1 2 3 6
	")
}

ee = optimize('scf')
oeprop('DIPOLE', 'QUADRUPOLE', 'MULLIKEN_CHARGES')
f=open( 'psi4out.xyz', 'w' )
f.write( "16  " )
f.write( str(ee) + "\n" )
f.write( MOL.save_string_xyz() )
f.close()
--------------------------------------------------------------------------

    Molecular point group: c1
  Charge       = 0
  Multiplicity = 1
  Basis Set: CC-PVTZ
  Basis Set:
  @DF-RHF Final Energy:  -270.11634543447349
    Total Energy =                       -270.1163454344737715
    Molecular point group: c1
  Basis Set: CC-PVTZ
  Basis Set:
  Basis Set: CC-PVTZ
  Basis Set:
  @DF-RHF Final Energy:  -270.11637775320685
    Total Energy =                       -270.1163777532069616
  Basis Set: CC-PVTZ
  Basis Set:
  Basis Set: CC-PVTZ
  Basis Set:
  @DF-RHF Final Energy:  -270.11638116151039
    Total Energy =                       -270.1163811615101622
  Basis Set: CC-PVTZ
  Basis Set:
  Charge       = 0
  Multiplicity = 1
  Basis Set: CC-PVTZ
  Basis Set:

    Orbital Energies (a.u.)
    -----------------------

    Doubly Occupied:

       1A    -20.545682     2A    -11.267869     3A    -11.213454
       4A    -11.212358     5A    -11.207406     6A    -11.206357
       7A     -1.365411     8A     -1.113978     9A     -0.964964
      10A     -0.949180    11A     -0.785491    12A     -0.776882
      13A     -0.714363    14A     -0.654921    15A     -0.620676
      16A     -0.582894    17A     -0.560738    18A     -0.526123
      19A     -0.516736    20A     -0.479975    21A     -0.469710
      22A     -0.456536    23A     -0.451933    24A     -0.416491

  @DF-RHF Final Energy:  -270.11638151998477

   => Energetics <=

    Nuclear Repulsion Energy =            255.4585717996392304
    One-Electron Energy =                -873.0296464879462519
    Two-Electron Energy =                 347.4546931683223647
    DFT Exchange-Correlation Energy =       0.0000000000000000
    Empirical Dispersion Energy =           0.0000000000000000
    PCM Polarization Energy =               0.0000000000000000
    EFP Energy =                            0.0000000000000000
    Total Energy =                       -270.1163815199846567
    Molecular point group: c1
  Basis Set: CC-PVTZ
  Basis Set:

  -Total Gradient:
     Atom            X                  Y                   Z
    ------   -----------------  -----------------  -----------------
       1        0.000181627744    -0.001153983977     0.000730722121
       2       -0.000361886636     0.001212375370    -0.001190145009
       3        0.000479069075     0.000439588240     0.001155367310
       4        0.000008625773    -0.000010756775    -0.000014361927
       5       -0.000036314098     0.000019213327     0.000004785114
       6       -0.000273714299    -0.000500353143    -0.000712438151
       7        0.000007180105     0.000001467978    -0.000011613168
       8        0.000002267060    -0.000004985227    -0.000004550307
       9        0.000027839696     0.000008510592    -0.000038021446
      10        0.000019360327    -0.000012144515     0.000017812390
      11        0.000003356641    -0.000009114144     0.000001892501
      12       -0.000036124402     0.000018931172     0.000044332487
      13       -0.000009225377    -0.000007807118     0.000015007634
      14        0.000007638710     0.000009653212     0.000016151936
      15        0.000004343162    -0.000005025837    -0.000009360049
      16       -0.000024043483    -0.000005569153    -0.000005581435

  **** Optimization is complete! (in 4 steps) ****
    Final optimized geometry and variables:
    Molecular point group: c1

    Geometry (in Angstrom), charge = 0, multiplicity = 1:

    H            2.641334933912     0.400825633085     0.451113287769
    O            2.062669364391    -0.073012319052    -0.116038375807
    C            0.743819332613     0.006318830606     0.352532156397
    H            0.739396103615     0.038415500670     1.440896606293
    C           -0.066923671543    -1.192875780595    -0.121353788606
    C           -0.047752697252     1.190605559441    -0.193220039573
    H            0.197676994795    -1.379421508264    -1.156173039544
    H            0.156689835522    -2.092945785985     0.436334128993
    C           -1.535837346972    -0.749823041458    -0.000947219716
    H            0.152585457919     1.263902731603    -1.257033687948
    H            0.227875684216     2.136606831953     0.258747454442
    C           -1.506898998585     0.801132261170     0.064891985703
    H           -2.121225030220    -1.104391433599    -0.838972201174
    H           -1.993845831536    -1.158012341108     0.891410386026
    H           -2.183079322061     1.256938737778    -0.646137959921
    H           -1.815225572862     1.137703932805     1.048085571058

  Mulliken Charges: (a.u.)
   Center  Symbol    Alpha    Beta     Spin     Total
       1     H     0.39415  0.39415  0.00000  0.21171
       2     O     4.20168  4.20168  0.00000 -0.40337
       3     C     2.92223  2.92223  0.00000  0.15555
       4     H     0.46833  0.46833  0.00000  0.06335
       5     C     3.10186  3.10186  0.00000 -0.20372
       6     C     3.09662  3.09662  0.00000 -0.19323
       7     H     0.45123  0.45123  0.00000  0.09753
       8     H     0.44528  0.44528  0.00000  0.10944
       9     C     3.10966  3.10966  0.00000 -0.21933
      10     H     0.45373  0.45373  0.00000  0.09254
      11     H     0.45108  0.45108  0.00000  0.09785
      12     C     3.11503  3.11503  0.00000 -0.23005
      13     H     0.44560  0.44560  0.00000  0.10879
      14     H     0.44900  0.44900  0.00000  0.10199
      15     H     0.44355  0.44355  0.00000  0.11290
      16     H     0.45097  0.45097  0.00000  0.09805

   Total alpha = 24.00000, Total beta = 24.00000, Total charge = -0.00000
