  ==> Input File <==

--------------------------------------------------------------------------
set {
	reference rhf
	basis cc-pvtz
}

set_num_threads( 4 )
memory 2 gb

molecule MOL {
0 1

H	 -0.418464	 -1.454358	 0.557199
N	 -0.625934	 -0.663929	 -0.000707
C	 -1.978635	 -0.158664	 0.001017
C	 0.376397	 -0.115060	 -0.722274
H	 -2.519057	 -0.493535	 -0.876362
H	 -1.938890	 0.917202	 -0.004137
H	 -2.514266	 -0.485137	 0.884506
C	 1.713930	 -0.805331	 -0.569459
O	 0.231853	 0.842334	 -1.423400
H	 1.644409	 -1.839189	 -0.887112
H	 2.443376	 -0.292282	 -1.174237
H	 2.030767	 -0.792744	 0.466916

	symmetry c1
}
set optking {
	frozen_dihedral = ("
		4 2 3 5
	")
}

ee = optimize('scf')
oeprop('DIPOLE', 'QUADRUPOLE', 'MULLIKEN_CHARGES')
f=open( 'psi4out.xyz', 'w' )
f.write( "12  " )
f.write( str(ee) + "\n" )
f.write( MOL.save_string_xyz() )
f.close()
--------------------------------------------------------------------------

    Molecular point group: c1
  Charge       = 0
  Multiplicity = 1
  Basis Set: CC-PVTZ
  Basis Set:
  @DF-RHF Final Energy:  -247.10077658770726
    Total Energy =                       -247.1007765877071165
    Molecular point group: c1
  Basis Set: CC-PVTZ
  Basis Set:
  Basis Set: CC-PVTZ
  Basis Set:
  @DF-RHF Final Energy:  -247.10112279652807
    Total Energy =                       -247.1011227965279886
  Basis Set: CC-PVTZ
  Basis Set:
  Basis Set: CC-PVTZ
  Basis Set:
  @DF-RHF Final Energy:  -247.10095544319191
    Total Energy =                       -247.1009554431918218
  Basis Set: CC-PVTZ
  Basis Set:
  Basis Set: CC-PVTZ
  Basis Set:
  @DF-RHF Final Energy:  -247.10119833625973
    Total Energy =                       -247.1011983362597562
  Basis Set: CC-PVTZ
  Basis Set:
  @DF-RHF Final Energy:  -247.10120875585744
    Total Energy =                       -247.1012087558574422
  @DF-RHF Final Energy:  -247.10123044687532
    Total Energy =                       -247.1012304468754337
  @DF-RHF Final Energy:  -247.10123866703046
    Total Energy =                       -247.1012386670303158
  @DF-RHF Final Energy:  -247.10124286680633
    Total Energy =                       -247.1012428668065581
  @DF-RHF Final Energy:  -247.10124562642144
    Total Energy =                       -247.1012456264214734
  @DF-RHF Final Energy:  -247.10128274454914
    Total Energy =                       -247.1012827445491666
  @DF-RHF Final Energy:  -247.10127352299540
    Total Energy =                       -247.1012735229953705
  @DF-RHF Final Energy:  -247.10059804229721
    Total Energy =                       -247.1005980422971220
  @DF-RHF Final Energy:  -247.01337554195720
    Total Energy =                       -247.0133755419573163
  @DF-RHF Final Energy:  -247.09207015425446
    Total Energy =                       -247.0920701542545430
  @DF-RHF Final Energy:  -247.10100917247149
    Total Energy =                       -247.1010091724713789
  @DF-RHF Final Energy:  -247.10123152453866
    Total Energy =                       -247.1012315245386617
  @DF-RHF Final Energy:  -247.10129321216576
    Total Energy =                       -247.1012932121659560
  @DF-RHF Final Energy:  -247.10130138789791
    Total Energy =                       -247.1013013878978200
  @DF-RHF Final Energy:  -247.10130691788495
    Total Energy =                       -247.1013069178848127
  @DF-RHF Final Energy:  -247.10131262922107
    Total Energy =                       -247.1013126292211837
  @DF-RHF Final Energy:  -247.10132319633999
    Total Energy =                       -247.1013231963398766
  @DF-RHF Final Energy:  -247.10133336834596
    Total Energy =                       -247.1013333683459336
  @DF-RHF Final Energy:  -247.10134947789669
    Total Energy =                       -247.1013494778967470
  @DF-RHF Final Energy:  -247.10138001167536
    Total Energy =                       -247.1013800116753600
  Basis Set: CC-PVTZ
  Basis Set:
  @DF-RHF Final Energy:  -247.10139463303526
    Total Energy =                       -247.1013946330352837
  Basis Set: CC-PVTZ
  Basis Set:
  Basis Set: CC-PVTZ
  Basis Set:
  @DF-RHF Final Energy:  -247.10140354291380
    Total Energy =                       -247.1014035429138858
  Basis Set: CC-PVTZ
  Basis Set:
  Basis Set: CC-PVTZ
  Basis Set:
  @DF-RHF Final Energy:  -247.10140785739557
    Total Energy =                       -247.1014078573955430
  Basis Set: CC-PVTZ
  Basis Set:
  Charge       = 0
  Multiplicity = 1
  Basis Set: CC-PVTZ
  Basis Set:

    Orbital Energies (a.u.)
    -----------------------

    Doubly Occupied:

       1A    -20.505135     2A    -15.576339     3A    -11.335751
       4A    -11.253760     5A    -11.228402     6A     -1.387963
       7A     -1.231486     8A     -1.016203     9A     -0.933888
      10A     -0.789619    11A     -0.690794    12A     -0.651869
      13A     -0.635815    14A     -0.585959    15A     -0.582956
      16A     -0.555860    17A     -0.547568    18A     -0.506716
      19A     -0.417147    20A     -0.390764

  @DF-RHF Final Energy:  -247.10140879719211

   => Energetics <=

    Nuclear Repulsion Energy =            181.8253809197587998
    One-Electron Energy =                -696.2055950341120933
    Two-Electron Energy =                 267.2788053171611864
    DFT Exchange-Correlation Energy =       0.0000000000000000
    Empirical Dispersion Energy =           0.0000000000000000
    PCM Polarization Energy =               0.0000000000000000
    EFP Energy =                            0.0000000000000000
    Total Energy =                       -247.1014087971921072
    Molecular point group: c1
  Basis Set: CC-PVTZ
  Basis Set:

  -Total Gradient:
     Atom            X                  Y                   Z
    ------   -----------------  -----------------  -----------------
       1        0.000001470622     0.000001008153     0.000000472334
       2       -0.000072202354    -0.000285109772    -0.000165626906
       3        0.000092511558     0.000264703590    -0.000125710331
       4        0.000031779107     0.000143880295     0.000141755235
       5       -0.000065193772    -0.000153800426     0.000146602948
       6        0.000003822091     0.000002969809    -0.000003771303
       7       -0.000001839179    -0.000000911944    -0.000001991827
       8        0.000002469050     0.000020843440     0.000012949456
       9        0.000013082631     0.000023598063     0.000014950798
      10       -0.000010079954    -0.000023042614     0.000008148085
      11       -0.000000127120    -0.000011414362    -0.000028401733
      12        0.000004307322     0.000017275768     0.000000623244

  **** Optimization is complete! (in 28 steps) ****
    Final optimized geometry and variables:
    Molecular point group: c1

    Geometry (in Angstrom), charge = 0, multiplicity = 1:

    H           -0.313938504601    -1.128319726078     1.271478759443
    N           -0.521705394403    -0.380652337543     0.658798252794
    C           -1.888983979427     0.075863424742     0.563148410962
    C            0.439625022217     0.046001423355    -0.186756897757
    H           -2.438569820002    -0.444105651181    -0.213382396658
    H           -1.902087404259     1.130669356611     0.339806177877
    H           -2.383190189699    -0.090189262017     1.510441525997
    C            1.792295613593    -0.609775190369    -0.024927517639
    O            0.240932935834     0.878518071648    -1.022084834018
    H            1.874148801031    -1.413098556103    -0.747800838870
    H            2.558314100238     0.118377060040    -0.243142878274
    H            1.947011954690    -1.017670776452     0.965432410853

  Mulliken Charges: (a.u.)
   Center  Symbol    Alpha    Beta     Spin     Total
       1     H     0.41109  0.41109  0.00000  0.17783
       2     N     3.61530  3.61530  0.00000 -0.23061
       3     C     3.07881  3.07881  0.00000 -0.15762
       4     C     2.84109  2.84109  0.00000  0.31782
       5     H     0.45676  0.45676  0.00000  0.08647
       6     H     0.43806  0.43806  0.00000  0.12388
       7     H     0.45540  0.45540  0.00000  0.08921
       8     C     3.14639  3.14639  0.00000 -0.29277
       9     O     4.21896  4.21896  0.00000 -0.43792
      10     H     0.44424  0.44424  0.00000  0.11151
      11     H     0.43627  0.43627  0.00000  0.12746
      12     H     0.45763  0.45763  0.00000  0.08474

   Total alpha = 20.00000, Total beta = 20.00000, Total charge =  0.00000
