  ==> Input File <==

--------------------------------------------------------------------------
set {
	reference rhf
	basis 6-31G*
}

set_num_threads( 4 )
memory 2 gb

molecule MOL {
0 1

O	 1.214711	 1.306902	 -0.000018
C	 1.122059	 0.121804	 -0.000188
C	 -0.170150	 -0.657997	 -0.000612
O	 2.172624	 -0.688929	 0.000216
C	 -1.412532	 0.227344	 -0.000452
H	 -0.153702	 -1.313099	 -0.867402
H	 -0.153924	 -1.313811	 0.865644
C	 -2.449123	 -0.225289	 -1.030000
H	 -1.120950	 1.254091	 -0.198630
H	 -1.853801	 0.225426	 0.991405
C	 -3.697758	 0.655552	 -1.035697
H	 -2.001588	 -0.222309	 -2.021857
H	 -2.735837	 -1.255441	 -0.828375
H	 -3.448345	 1.686701	 -1.268462
H	 -4.416059	 0.313488	 -1.774149
H	 -4.188171	 0.645695	 -0.066657
C	 3.452279	 -0.082609	 0.000533
H	 3.583069	 0.529321	 -0.880332
H	 4.163299	 -0.894027	 0.001117
H	 3.582335	 0.529955	 0.881077

	symmetry c1
}
set optking {
	frozen_dihedral = ("
		9 5 3 6
	")
}

ee = optimize('scf')
oeprop('DIPOLE', 'QUADRUPOLE', 'MULLIKEN_CHARGES')
f=open( 'psi4out.xyz', 'w' )
f.write( "20  " )
f.write( str(ee) + "\n" )
f.write( MOL.save_string_xyz() )
f.close()
--------------------------------------------------------------------------

    Molecular point group: c1
  Charge       = 0
  Multiplicity = 1
  Basis Set: 6-31G*
  Basis Set:
  @DF-RHF Final Energy:  -383.93721696306864
    Total Energy =                       -383.9372169630688632
    Molecular point group: c1
  Basis Set: 6-31G*
  Basis Set:
  Basis Set: 6-31G*
  Basis Set:
  @DF-RHF Final Energy:  -383.93748458941690
    Total Energy =                       -383.9374845894167265
  Basis Set: 6-31G*
  Basis Set:
  Basis Set: 6-31G*
  Basis Set:
  @DF-RHF Final Energy:  -383.93746214638958
    Total Energy =                       -383.9374621463896347
  Basis Set: 6-31G*
  Basis Set:
  Basis Set: 6-31G*
  Basis Set:
  @DF-RHF Final Energy:  -383.93757620642128
    Total Energy =                       -383.9375762064214541
  Basis Set: 6-31G*
  Basis Set:
  Basis Set: 6-31G*
  Basis Set:
  @DF-RHF Final Energy:  -383.93757976212436
    Total Energy =                       -383.9375797621241873
  Basis Set: 6-31G*
  Basis Set:
  Basis Set: 6-31G*
  Basis Set:
  @DF-RHF Final Energy:  -383.93758427142944
    Total Energy =                       -383.9375842714291593
  Basis Set: 6-31G*
  Basis Set:
  Basis Set: 6-31G*
  Basis Set:
  @DF-RHF Final Energy:  -383.93758590416451
    Total Energy =                       -383.9375859041642798
  Basis Set: 6-31G*
  Basis Set:
  Charge       = 0
  Multiplicity = 1
  Basis Set: 6-31G*
  Basis Set:

    Orbital Energies (a.u.)
    -----------------------

    Doubly Occupied:

       1A    -20.604030     2A    -20.546332     3A    -11.373380
       4A    -11.281124     5A    -11.235436     6A    -11.219703
       7A    -11.217650     8A    -11.209878     9A     -1.470040
      10A     -1.363389    11A     -1.086173    12A     -1.024271
      13A     -0.968319    14A     -0.886153    15A     -0.804807
      16A     -0.767383    17A     -0.700628    18A     -0.681406
      19A     -0.672696    20A     -0.637960    21A     -0.600660
      22A     -0.591917    23A     -0.579060    24A     -0.545027
      25A     -0.530248    26A     -0.520668    27A     -0.504610
      28A     -0.478202    29A     -0.469878    30A     -0.464468
      31A     -0.457272    32A     -0.439220

  @DF-RHF Final Energy:  -383.93758605662867

   => Energetics <=

    Nuclear Repulsion Energy =            381.6122797849749304
    One-Electron Energy =               -1279.2357533644844807
    Two-Electron Energy =                 513.6858875228812167
    DFT Exchange-Correlation Energy =       0.0000000000000000
    Empirical Dispersion Energy =           0.0000000000000000
    PCM Polarization Energy =               0.0000000000000000
    EFP Energy =                            0.0000000000000000
    Total Energy =                       -383.9375860566283336
    Molecular point group: c1
  Basis Set: 6-31G*
  Basis Set:

  -Total Gradient:
     Atom            X                  Y                   Z
    ------   -----------------  -----------------  -----------------
       1        0.000004325248     0.000006611792     0.000011310195
       2        0.000000421764     0.000003849237     0.000004624143
       3        0.001532420949     0.002187901064    -0.001056384073
       4       -0.000013737772    -0.000004738571    -0.000006697217
       5       -0.000637794305    -0.000890944263    -0.002516940153
       6       -0.001158870872    -0.001669189312     0.001249908678
       7        0.000001836403    -0.000000148297     0.000007669104
       8       -0.000004055880    -0.000005198064    -0.000009894227
       9        0.000261831129     0.000371629945     0.002303184577
      10        0.000002651654     0.000004449623     0.000009822364
      11        0.000006847790    -0.000000466922     0.000006176249
      12        0.000000863145    -0.000003033553    -0.000005270234
      13       -0.000001641033     0.000000562826    -0.000000104842
      14       -0.000000201816     0.000001817070    -0.000002020902
      15        0.000005273820    -0.000003260290     0.000002050814
      16       -0.000001638968     0.000001342296     0.000002073055
      17        0.000000708173    -0.000001961583    -0.000002810905
      18       -0.000000341498    -0.000000191404     0.000001970247
      19        0.000002719811     0.000000916915     0.000001144262
      20       -0.000001617750     0.000000051494     0.000000188863

  **** Optimization is complete! (in 8 steps) ****
    Final optimized geometry and variables:
    Molecular point group: c1

    Geometry (in Angstrom), charge = 0, multiplicity = 1:

    O            1.193525755595     1.227449375303     0.230941893596
    C            1.075637991599     0.044767264994     0.246553110391
    C           -0.226087811207    -0.721612910949     0.227114379050
    O            2.110397247455    -0.785288277379     0.282942612391
    C           -1.487601964300     0.154622186946     0.224106425508
    H           -0.197560239434    -1.381846632295    -0.635242912360
    H           -0.208216668059    -1.388525684812     1.083639700036
    C           -2.544072903719    -0.315892105877    -0.777128424734
    H           -1.209812140894     1.181860405411     0.022107715129
    H           -1.920351492937     0.158328232534     1.221039922755
    C           -3.810037653508     0.538169965940    -0.743287763822
    H           -2.121042187220    -0.296140108478    -1.779322377767
    H           -2.802576569286    -1.353470715023    -0.574602560791
    H           -3.587139979947     1.576205956611    -0.972145285559
    H           -4.539432626249     0.187938776994    -1.466915712982
    H           -4.276416712121     0.509203260242     0.237407506769
    C            3.401256816290    -0.203508569643     0.301119427421
    H            3.562719261517     0.391147431980    -0.586452801697
    H            4.096078572343    -1.028334636384     0.330071951963
    H            3.524392029702     0.420758756252     1.174378011874

  Mulliken Charges: (a.u.)
   Center  Symbol    Alpha    Beta     Spin     Total
       1     O     4.28486  4.28486  0.00000 -0.56972
       2     C     2.61179  2.61179  0.00000  0.77643
       3     C     3.21039  3.21039  0.00000 -0.42078
       4     O     4.30535  4.30535  0.00000 -0.61070
       5     C     3.15935  3.15935  0.00000 -0.31870
       6     H     0.39821  0.39821  0.00000  0.20357
       7     H     0.39786  0.39786  0.00000  0.20428
       8     C     3.15562  3.15562  0.00000 -0.31124
       9     H     0.39559  0.39559  0.00000  0.20881
      10     H     0.41893  0.41893  0.00000  0.16214
      11     C     3.24038  3.24038  0.00000 -0.48077
      12     H     0.42128  0.42128  0.00000  0.15744
      13     H     0.42326  0.42326  0.00000  0.15348
      14     H     0.41874  0.41874  0.00000  0.16252
      15     H     0.41870  0.41870  0.00000  0.16260
      16     H     0.42115  0.42115  0.00000  0.15769
      17     C     3.09207  3.09207  0.00000 -0.18414
      18     H     0.40908  0.40908  0.00000  0.18185
      19     H     0.40843  0.40843  0.00000  0.18313
      20     H     0.40895  0.40895  0.00000  0.18210

   Total alpha = 32.00000, Total beta = 32.00000, Total charge = -0.00000
