  ==> Input File <==

--------------------------------------------------------------------------
set {
	reference rhf
	basis 6-31G*
}

set_num_threads( 4 )
memory 2 gb

molecule MOL {
0 1

O	 1.367933	 2.130805	 -0.108640
C	 0.291449	 2.579603	 -0.338600
C	 -1.003031	 1.803608	 -0.333975
O	 0.084993	 3.857061	 -0.632899
C	 -0.823008	 0.326187	 0.001381
H	 -1.670225	 2.289368	 0.372852
H	 -1.462396	 1.932650	 -1.310218
C	 -2.149452	 -0.435131	 -0.000098
H	 -0.346562	 0.235419	 0.972436
H	 -0.139470	 -0.121968	 -0.712931
C	 -3.368779	 0.488503	 -0.000883
H	 -2.193746	 -1.087250	 -0.871175
H	 -2.195311	 -1.087803	 0.870418
C	 -4.693822	 -0.272754	 -0.001129
H	 -3.325798	 1.139422	 -0.871284
H	 -3.326423	 1.139959	 0.869145
H	 -4.781274	 -0.907928	 -0.878124
H	 -5.538651	 0.408946	 -0.001420
H	 -4.781694	 -0.907783	 0.875984
C	 1.222042	 4.700138	 -0.668914
H	 1.711371	 4.719587	 0.294261
H	 0.853410	 5.682190	 -0.921023
H	 1.923767	 4.360130	 -1.416900

	symmetry c1
}
set optking {
	frozen_dihedral = ("
		9 5 8 12
	")
}

ee = optimize('scf')
oeprop('DIPOLE', 'QUADRUPOLE', 'MULLIKEN_CHARGES')
f=open( 'psi4out.xyz', 'w' )
f.write( "23  " )
f.write( str(ee) + "\n" )
f.write( MOL.save_string_xyz() )
f.close()
--------------------------------------------------------------------------

    Molecular point group: c1
  Charge       = 0
  Multiplicity = 1
  Basis Set: 6-31G*
  Basis Set:
  @DF-RHF Final Energy:  -422.96269509060244
    Total Energy =                       -422.9626950906024376
    Molecular point group: c1
  Basis Set: 6-31G*
  Basis Set:
  Basis Set: 6-31G*
  Basis Set:
  @DF-RHF Final Energy:  -422.96316552278239
    Total Energy =                       -422.9631655227824467
  Basis Set: 6-31G*
  Basis Set:
  Basis Set: 6-31G*
  Basis Set:
  @DF-RHF Final Energy:  -422.96701066426931
    Total Energy =                       -422.9670106642694236
  Basis Set: 6-31G*
  Basis Set:
  Basis Set: 6-31G*
  Basis Set:
  @DF-RHF Final Energy:  -422.96768855358181
    Total Energy =                       -422.9676885535827751
  Basis Set: 6-31G*
  Basis Set:
  Basis Set: 6-31G*
  Basis Set:
  @DF-RHF Final Energy:  -422.96775412946965
    Total Energy =                       -422.9677541294693128
  Basis Set: 6-31G*
  Basis Set:
  Basis Set: 6-31G*
  Basis Set:
  @DF-RHF Final Energy:  -422.96779329372004
    Total Energy =                       -422.9677932937196374
  Basis Set: 6-31G*
  Basis Set:
  Basis Set: 6-31G*
  Basis Set:
  @DF-RHF Final Energy:  -422.96779829588655
    Total Energy =                       -422.9677982958870643
  Basis Set: 6-31G*
  Basis Set:
  Charge       = 0
  Multiplicity = 1
  Basis Set: 6-31G*
  Basis Set:

    Orbital Energies (a.u.)
    -----------------------

    Doubly Occupied:

       1A    -20.603407     2A    -20.545353     3A    -11.372103
       4A    -11.280714     5A    -11.235262     6A    -11.219725
       7A    -11.219106     8A    -11.217727     9A    -11.211325
      10A     -1.469167    11A     -1.362648    12A     -1.090944
      13A     -1.042046    14A     -0.986279    15A     -0.933003
      16A     -0.854087    17A     -0.792615    18A     -0.759377
      19A     -0.699485    20A     -0.683113    21A     -0.670910
      22A     -0.647197    23A     -0.609544    24A     -0.601143
      25A     -0.578446    26A     -0.558721    27A     -0.551332
      28A     -0.525495    29A     -0.521508    30A     -0.512697
      31A     -0.494797    32A     -0.467280    33A     -0.458178
      34A     -0.457957    35A     -0.449337    36A     -0.437711

  @DF-RHF Final Energy:  -422.96779871617184

   => Energetics <=

    Nuclear Repulsion Energy =            458.0949961576535543
    One-Electron Energy =               -1483.8861097171711663
    Two-Electron Energy =                 602.8233148433456563
    DFT Exchange-Correlation Energy =       0.0000000000000000
    Empirical Dispersion Energy =           0.0000000000000000
    PCM Polarization Energy =               0.0000000000000000
    EFP Energy =                            0.0000000000000000
    Total Energy =                       -422.9677987161720694
    Molecular point group: c1
  Basis Set: 6-31G*
  Basis Set:

  -Total Gradient:
     Atom            X                  Y                   Z
    ------   -----------------  -----------------  -----------------
       1       -0.000045437087     0.000005820019     0.000105969558
       2        0.000095405727    -0.000056182817    -0.000269103656
       3       -0.000075943283    -0.000078350865     0.000076744928
       4       -0.000032040775     0.000038133982     0.000060273620
       5       -0.002876669684     0.004369379018     0.002761661452
       6       -0.000048875224    -0.000007795323     0.000037124367
       7        0.000004477777     0.000002237682     0.000002153701
       8       -0.002081313466     0.003845048276    -0.003820436987
       9        0.002696791897    -0.004232364678    -0.001698899740
      10        0.000023543476    -0.000005893507     0.000001154653
      11        0.000118757222    -0.000000684695     0.000043492899
      12        0.002241945362    -0.003866678931     0.002767766967
      13       -0.000032625961    -0.000043472557    -0.000020086752
      14       -0.000013134195    -0.000006850804    -0.000003067128
      15        0.000006324799     0.000003645451    -0.000046134385
      16        0.000027978156     0.000034654630    -0.000009153831
      17       -0.000000894751     0.000004051743    -0.000000541068
      18       -0.000014915841    -0.000004662289     0.000004108365
      19        0.000015282568     0.000011898184    -0.000005882835
      20        0.000001140736    -0.000005727398     0.000014017772
      21        0.000004290778     0.000003228495     0.000000041773
      22       -0.000008189475    -0.000004808698    -0.000000142003
      23       -0.000005898763    -0.000004624922    -0.000001061670

  **** Optimization is complete! (in 8 steps) ****
    Final optimized geometry and variables:
    Molecular point group: c1

    Geometry (in Angstrom), charge = 0, multiplicity = 1:

    O            2.363293542196     0.394511843341     0.181533380434
    C            1.323452494864     0.895233439037    -0.103065603632
    C           -0.013903396878     0.194786221423    -0.136609205926
    O            1.201037491062     2.174377645806    -0.435722677194
    C            0.084875011647    -1.280588477554     0.242109758610
    H           -0.677031515500     0.744078273899     0.523263220774
    H           -0.416436388445     0.324089633832    -1.137001212850
    C           -1.236007934514    -2.088292849416     0.188948229561
    H            0.540959400386    -1.379228021939     1.220625067392
    H            0.798846949167    -1.747122909382    -0.428309485392
    C           -2.547982537630    -1.303484750911     0.268720155848
    H           -1.237748212294    -2.718729748689    -0.696834175094
    H           -1.222377350499    -2.793097050159     1.017307455850
    C           -3.768515026570    -2.223775647296     0.273792075022
    H           -2.628602515645    -0.614829865110    -0.567872065416
    H           -2.557647158219    -0.694975236967     1.170307680738
    H           -3.806914801354    -2.827857848352    -0.628273802020
    H           -4.690332033428    -1.653120364848     0.329273143503
    H           -3.746114330625    -2.900537723565     1.123087611678
    C            2.384078698002     2.952301066769    -0.443550453025
    H            2.833956377589     2.969964812097     0.538703616730
    H            2.081671007565     3.946303231492    -0.734242079472
    H            3.095653996668     2.554880144242    -1.152954031941

  Mulliken Charges: (a.u.)
   Center  Symbol    Alpha    Beta     Spin     Total
       1     O     4.28588  4.28588  0.00000 -0.57176
       2     C     2.60434  2.60434  0.00000  0.79132
       3     C     3.21098  3.21098  0.00000 -0.42196
       4     O     4.30771  4.30771  0.00000 -0.61542
       5     C     3.15778  3.15778  0.00000 -0.31555
       6     H     0.39879  0.39879  0.00000  0.20242
       7     H     0.40022  0.40022  0.00000  0.19955
       8     C     3.15620  3.15620  0.00000 -0.31240
       9     H     0.40952  0.40952  0.00000  0.18095
      10     H     0.40950  0.40950  0.00000  0.18100
      11     C     3.15652  3.15652  0.00000 -0.31304
      12     H     0.42018  0.42018  0.00000  0.15964
      13     H     0.41936  0.41936  0.00000  0.16128
      14     C     3.23913  3.23913  0.00000 -0.47827
      15     H     0.42199  0.42199  0.00000  0.15603
      16     H     0.42241  0.42241  0.00000  0.15519
      17     H     0.42100  0.42100  0.00000  0.15801
      18     H     0.41862  0.41862  0.00000  0.16276
      19     H     0.42080  0.42080  0.00000  0.15841
      20     C     3.09236  3.09236  0.00000 -0.18473
      21     H     0.40910  0.40910  0.00000  0.18180
      22     H     0.40848  0.40848  0.00000  0.18304
      23     H     0.40913  0.40913  0.00000  0.18173

   Total alpha = 36.00000, Total beta = 36.00000, Total charge = -0.00000
