  ==> Input File <==

--------------------------------------------------------------------------
set {
	reference rhf
	basis 6-31G*
}

set_num_threads( 4 )
memory 2 gb

molecule MOL {
0 1

H	 -1.542074	 0.875215	 -2.855241
O	 -1.833288	 0.487439	 -2.042091
C	 -0.950724	 0.837147	 -1.009728
C	 0.350477	 0.061001	 -1.110419
H	 -0.741068	 1.903158	 -1.005031
H	 -1.444291	 0.594869	 -0.079060
O	 1.171513	 0.459272	 -0.058250
H	 0.832362	 0.260446	 -2.069580
H	 0.143466	 -1.006574	 -1.065543
C	 2.397842	 -0.198080	 -0.002151
H	 2.508049	 -0.905315	 -0.822092
H	 3.173794	 0.550865	 -0.078850
H	 2.517602	 -0.735921	 0.936026

	symmetry c1
}
set optking {
	frozen_dihedral = ("
		4 7 10 13
	")
}

ee = optimize('scf')
oeprop('DIPOLE', 'QUADRUPOLE', 'MULLIKEN_CHARGES')
f=open( 'psi4out.xyz', 'w' )
f.write( "13  " )
f.write( str(ee) + "\n" )
f.write( MOL.save_string_xyz() )
f.close()
--------------------------------------------------------------------------

    Molecular point group: c1
  Charge       = 0
  Multiplicity = 1
  Basis Set: 6-31G*
  Basis Set:
  @DF-RHF Final Energy:  -267.94623778910170
    Total Energy =                       -267.9462377891017013
    Molecular point group: c1
  Basis Set: 6-31G*
  Basis Set:
  Basis Set: 6-31G*
  Basis Set:
  @DF-RHF Final Energy:  -267.94665068342010
    Total Energy =                       -267.9466506834201027
  Basis Set: 6-31G*
  Basis Set:
  Basis Set: 6-31G*
  Basis Set:
  @DF-RHF Final Energy:  -267.94675014496136
    Total Energy =                       -267.9467501449613565
  Basis Set: 6-31G*
  Basis Set:
  Charge       = 0
  Multiplicity = 1
  Basis Set: 6-31G*
  Basis Set:

    Orbital Energies (a.u.)
    -----------------------

    Doubly Occupied:

       1A    -20.559767     2A    -20.558393     3A    -11.271305
       4A    -11.269803     5A    -11.268335     6A     -1.383896
       7A     -1.364173     8A     -1.018190     9A     -0.913647
      10A     -0.841406    11A     -0.708508    12A     -0.670997
      13A     -0.657939    14A     -0.636042    15A     -0.596383
      16A     -0.568576    17A     -0.548786    18A     -0.489279
      19A     -0.481348    20A     -0.437761    21A     -0.416175

  @DF-RHF Final Energy:  -267.94675082683591

   => Energetics <=

    Nuclear Repulsion Energy =            189.8835500148714175
    One-Electron Energy =                -742.3391859227374425
    Two-Electron Energy =                 284.5088850810305985
    DFT Exchange-Correlation Energy =       0.0000000000000000
    Empirical Dispersion Energy =           0.0000000000000000
    PCM Polarization Energy =               0.0000000000000000
    EFP Energy =                            0.0000000000000000
    Total Energy =                       -267.9467508268354550
    Molecular point group: c1
  Basis Set: 6-31G*
  Basis Set:

  -Total Gradient:
     Atom            X                  Y                   Z
    ------   -----------------  -----------------  -----------------
       1       -0.000022666804    -0.000004331598    -0.000020772303
       2       -0.000072829361     0.000036098309    -0.000074732193
       3        0.000014681762    -0.000049386734    -0.000031343970
       4       -0.000070181904    -0.000015274927     0.000087452670
       5       -0.000012166430     0.000007533709     0.000010181117
       6        0.000043194493    -0.000002599121    -0.000000962253
       7        0.000137285893    -0.000036258846     0.000009409790
       8        0.000013677832     0.000018603397     0.000039488877
       9       -0.000011653647     0.000014404087    -0.000018587873
      10       -0.000038561024     0.000016545761    -0.000005779069
      11        0.000004225703    -0.000006378790    -0.000002825899
      12        0.000005668576     0.000000588906    -0.000001041311
      13        0.000009324911     0.000020455846     0.000009512417

  **** Optimization is complete! (in 4 steps) ****
    Final optimized geometry and variables:
    Molecular point group: c1

    Geometry (in Angstrom), charge = 0, multiplicity = 1:

    H           -1.780304245680     0.562944487090    -1.974026683742
    O           -2.062812288965     0.167109100247    -1.161710951049
    C           -1.168760592138     0.505933901877    -0.135085652351
    C            0.128588015709    -0.273846874162    -0.253952389012
    H           -0.955124881558     1.571025970885    -0.124804715199
    H           -1.653532417851     0.258807864118     0.798883050808
    O            0.958304290049     0.118764171262     0.795279802501
    H            0.599143645043    -0.068465718425    -1.216790868658
    H           -0.084363216250    -1.339710132135    -0.213702224226
    C            2.198904474239    -0.521944700578     0.878154724737
    H            2.333638645665    -1.247402526393     0.082066434653
    H            2.993051374402     0.213565739007     0.810811364250
    H            2.280012363179    -1.036496302694     1.829263326830

  Mulliken Charges: (a.u.)
   Center  Symbol    Alpha    Beta     Spin     Total
       1     H     0.28131  0.28131  0.00000  0.43739
       2     O     4.37098  4.37098  0.00000 -0.74196
       3     C     3.00494  3.00494  0.00000 -0.00989
       4     C     2.99622  2.99622  0.00000  0.00757
       5     H     0.42232  0.42232  0.00000  0.15535
       6     H     0.40852  0.40852  0.00000  0.18295
       7     O     4.31258  4.31258  0.00000 -0.62515
       8     H     0.43745  0.43745  0.00000  0.12509
       9     H     0.42311  0.42311  0.00000  0.15378
      10     C     3.07661  3.07661  0.00000 -0.15321
      11     H     0.42784  0.42784  0.00000  0.14432
      12     H     0.41954  0.41954  0.00000  0.16092
      13     H     0.41858  0.41858  0.00000  0.16284

   Total alpha = 21.00000, Total beta = 21.00000, Total charge = -0.00000
