  ==> Input File <==

--------------------------------------------------------------------------
set {
	reference rhf
	basis cc-pvtz
}

set_num_threads( 4 )
memory 2 gb

molecule MOL {
0 1

H	 1.252159	 -1.993370	 1.421171
C	 1.419722	 -0.912325	 1.515604
C	 0.183720	 -0.062959	 1.407561
O	 2.513148	 -0.496034	 1.685180
C	 -0.554654	 -0.292621	 0.086567
H	 0.469009	 0.974231	 1.524535
H	 -0.468294	 -0.330164	 2.236631
C	 -1.846385	 0.513195	 -0.016346
H	 0.100922	 -0.030606	 -0.738967
H	 -0.781517	 -1.349994	 -0.023743
C	 -3.089953	 -0.365049	 -0.098564
H	 -1.798267	 1.154820	 -0.891143
H	 -1.925398	 1.173265	 0.842889
H	 -3.055079	 -1.012299	 -0.968245
H	 -3.988403	 0.236438	 -0.170014
H	 -3.183055	 -0.995885	 0.779079

	symmetry c1
}
set optking {
	frozen_dihedral = ("
		9 5 8 12
	")
}

ee = optimize('scf')
oeprop('DIPOLE', 'QUADRUPOLE', 'MULLIKEN_CHARGES')
f=open( 'psi4out.xyz', 'w' )
f.write( "16  " )
f.write( str(ee) + "\n" )
f.write( MOL.save_string_xyz() )
f.close()
--------------------------------------------------------------------------

    Molecular point group: c1
  Charge       = 0
  Multiplicity = 1
  Basis Set: CC-PVTZ
  Basis Set:
  @DF-RHF Final Energy:  -270.11318441284175
    Total Energy =                       -270.1131844128417470
    Molecular point group: c1
  Basis Set: CC-PVTZ
  Basis Set:
  Basis Set: CC-PVTZ
  Basis Set:
  @DF-RHF Final Energy:  -270.11344176104001
    Total Energy =                       -270.1134417610400078
  Basis Set: CC-PVTZ
  Basis Set:
  Basis Set: CC-PVTZ
  Basis Set:
  @DF-RHF Final Energy:  -270.11328632317259
    Total Energy =                       -270.1132863231727583
  Basis Set: CC-PVTZ
  Basis Set:
  Basis Set: CC-PVTZ
  Basis Set:
  @DF-RHF Final Energy:  -270.11350954150384
    Total Energy =                       -270.1135095415041860
  Basis Set: CC-PVTZ
  Basis Set:
  Basis Set: CC-PVTZ
  Basis Set:
  @DF-RHF Final Energy:  -270.11351511868185
    Total Energy =                       -270.1135151186817325
  Basis Set: CC-PVTZ
  Basis Set:
  Charge       = 0
  Multiplicity = 1
  Basis Set: CC-PVTZ
  Basis Set:

    Orbital Energies (a.u.)
    -----------------------

    Doubly Occupied:

       1A    -20.552233     2A    -11.321144     3A    -11.234846
       4A    -11.234102     5A    -11.227265     6A    -11.218140
       7A     -1.406893     8A     -1.095604     9A     -1.019347
      10A     -0.907906    11A     -0.812796    12A     -0.794703
      13A     -0.681717    14A     -0.642056    15A     -0.632576
      16A     -0.613176    17A     -0.576788    18A     -0.556681
      19A     -0.532472    20A     -0.511350    21A     -0.488173
      22A     -0.484210    23A     -0.472332    24A     -0.411210

  @DF-RHF Final Energy:  -270.11351529474848

   => Energetics <=

    Nuclear Repulsion Energy =            229.9336160398923141
    One-Electron Energy =                -821.2388219418058952
    Two-Electron Energy =                 321.1916906071651852
    DFT Exchange-Correlation Energy =       0.0000000000000000
    Empirical Dispersion Energy =           0.0000000000000000
    PCM Polarization Energy =               0.0000000000000000
    EFP Energy =                            0.0000000000000000
    Total Energy =                       -270.1135152947484244
    Molecular point group: c1
  Basis Set: CC-PVTZ
  Basis Set:

  -Total Gradient:
     Atom            X                  Y                   Z
    ------   -----------------  -----------------  -----------------
       1       -0.000001137012     0.000006147370    -0.000014008942
       2        0.000020019045     0.000037607053     0.000022843904
       3       -0.000011205440     0.000000364193    -0.000082125021
       4        0.000012748983    -0.000013660287     0.000010542949
       5        0.000609323769     0.001065452094     0.000828185461
       6       -0.000019575596     0.000002301363     0.000029401802
       7        0.000015423261    -0.000026407671     0.000021422748
       8       -0.000614319480    -0.000998693443    -0.000859492240
       9       -0.000413325710    -0.000750569683    -0.000518397135
      10       -0.000035199373     0.000000051471    -0.000008984189
      11       -0.000004226363    -0.000038063483    -0.000001156452
      12        0.000395911570     0.000707083923     0.000568964126
      13        0.000023042000    -0.000002907557    -0.000007320327
      14        0.000004922659    -0.000006877797     0.000004297300
      15        0.000016630835     0.000022620059     0.000003756887
      16        0.000000966856    -0.000004447606     0.000002069128

  **** Optimization is complete! (in 6 steps) ****
    Final optimized geometry and variables:
    Molecular point group: c1

    Geometry (in Angstrom), charge = 0, multiplicity = 1:

    H            1.479656129933    -1.724215581203     0.669721548584
    C            1.652879370736    -0.643507004814     0.758039775517
    C            0.421264149023     0.211809376069     0.645828696756
    O            2.748608197588    -0.231776734768     0.924239175546
    C           -0.311250831385    -0.009898300489    -0.680695129961
    H            0.709342144451     1.247611304529     0.767500304944
    H           -0.237798723535    -0.055361541179     1.469599807974
    C           -1.625741459601     0.790572603714    -0.789987409499
    H            0.352190139575     0.248461570773    -1.498305499853
    H           -0.523013674656    -1.069013527572    -0.794394771751
    C           -2.869639902335    -0.089605738644    -0.860827310304
    H           -1.589483971610     1.432759176148    -1.662234340544
    H           -1.714391160992     1.458262698357     0.060647397874
    H           -2.843067552304    -0.733874954479    -1.732968065412
    H           -3.770499328641     0.510136270669    -0.918304919132
    H           -2.950066197536    -0.724585737573     0.015659079257

  Mulliken Charges: (a.u.)
   Center  Symbol    Alpha    Beta     Spin     Total
       1     H     0.46528  0.46528  0.00000  0.06945
       2     C     2.90981  2.90981  0.00000  0.18039
       3     C     3.07897  3.07897  0.00000 -0.15793
       4     O     4.16352  4.16352  0.00000 -0.32703
       5     C     3.10865  3.10865  0.00000 -0.21730
       6     H     0.44168  0.44168  0.00000  0.11665
       7     H     0.45003  0.45003  0.00000  0.09994
       8     C     3.08937  3.08937  0.00000 -0.17873
       9     H     0.43971  0.43971  0.00000  0.12058
      10     H     0.45209  0.45209  0.00000  0.09583
      11     C     3.14678  3.14678  0.00000 -0.29355
      12     H     0.44605  0.44605  0.00000  0.10789
      13     H     0.45206  0.45206  0.00000  0.09588
      14     H     0.45324  0.45324  0.00000  0.09352
      15     H     0.44731  0.44731  0.00000  0.10538
      16     H     0.45547  0.45547  0.00000  0.08905

   Total alpha = 24.00000, Total beta = 24.00000, Total charge = -0.00000
