  ==> Input File <==

--------------------------------------------------------------------------
set {
	reference rhf
	basis 6-31G*
}

set_num_threads( 1 )
memory 2 gb

molecule MOL {
0 1

O	 -2.806376	 1.288647	 -0.335232
C	 -2.660508	 0.118854	 -0.177367
C	 -3.794422	 -0.873683	 -0.157888
O	 -1.481751	 -0.454642	 0.000584
H	 -4.328615	 -0.810143	 -1.098347
H	 -3.443656	 -1.883220	 -0.002209
H	 -4.484701	 -0.597866	 0.630350
C	 -0.334255	 0.388708	 0.000906
C	 0.891947	 -0.504646	 0.000751
H	 -0.365390	 1.025305	 -0.873475
H	 -0.365484	 1.024911	 0.875569
C	 2.191998	 0.301789	 0.000897
H	 0.855148	 -1.151283	 -0.871571
H	 0.855132	 -1.151660	 0.872805
C	 3.441114	 -0.581407	 0.000108
H	 2.215074	 0.954890	 -0.869742
H	 2.215465	 0.953923	 0.872248
C	 4.739576	 0.224112	 -0.001102
H	 3.419457	 -1.233487	 -0.870178
H	 3.420834	 -1.233096	 0.870717
H	 4.804918	 0.861552	 -0.878265
H	 5.606527	 -0.429058	 -0.001824
H	 4.806469	 0.861674	 0.875853

	symmetry c1
}
set optking {
	frozen_dihedral = ("
		13 9 8 10,
		16 12 9 13,
		19 15 12 16,
		1 2 4 8
	")
}

ee = energy('scf')
oeprop('DIPOLE', 'QUADRUPOLE', 'MULLIKEN_CHARGES')
f=open( 'psi4out.xyz', 'w' )
f.write( "23  " )
f.write( str(ee) + "\n" )
f.write( MOL.save_string_xyz() )
f.close()
--------------------------------------------------------------------------

    Molecular point group: c1

    Geometry (in Angstrom), charge = 0, multiplicity = 1:

       Center              X                  Y                   Z               Mass
    ------------   -----------------  -----------------  -----------------  -----------------
           O         -2.809814761306     1.293297018052    -0.259684077588    15.994914619560
           C         -2.663946761306     0.123504018052    -0.101819077588    12.000000000000
           C         -3.797860761306    -0.869032981948    -0.082340077588    12.000000000000
           O         -1.485189761306    -0.449991981948     0.076131922412    15.994914619560
           H         -4.332053761306    -0.805492981948    -1.022799077588     1.007825032070
           H         -3.447094761306    -1.878569981948     0.073338922412     1.007825032070
           H         -4.488139761306    -0.593215981948     0.705897922412     1.007825032070
           C         -0.337693761306     0.393358018052     0.076453922412    12.000000000000
           C          0.888508238694    -0.499995981948     0.076298922412    12.000000000000
           H         -0.368828761306     1.029955018052    -0.797927077588     1.007825032070
           H         -0.368922761306     1.029561018052     0.951116922412     1.007825032070
           C          2.188559238694     0.306439018052     0.076444922412    12.000000000000
           H          0.851709238694    -1.146632981948    -0.796023077588     1.007825032070
           H          0.851693238694    -1.147009981948     0.948352922412     1.007825032070
           C          3.437675238694    -0.576756981948     0.075655922412    12.000000000000
           H          2.211635238694     0.959540018052    -0.794194077588     1.007825032070
           H          2.212026238694     0.958573018052     0.947795922412     1.007825032070
           C          4.736137238694     0.228762018052     0.074445922412    12.000000000000
           H          3.416018238694    -1.228836981948    -0.794630077588     1.007825032070
           H          3.417395238694    -1.228445981948     0.946264922412     1.007825032070
           H          4.801479238694     0.866202018052    -0.802717077588     1.007825032070
           H          5.603088238694    -0.424407981948     0.073723922412     1.007825032070
           H          4.803030238694     0.866324018052     0.951400922412     1.007825032070

  Charge       = 0
  Multiplicity = 1
  Basis Set: 6-31G*
  Basis Set:

    Orbital Energies (a.u.)
    -----------------------

    Doubly Occupied:

       1A    -20.603038     2A    -20.540489     3A    -11.374191
       4A    -11.281290     5A    -11.232448     6A    -11.224359
       7A    -11.223758     8A    -11.221682     9A    -11.212934
      10A     -1.468032    11A     -1.360779    12A     -1.094201
      13A     -1.042263    14A     -1.003461    15A     -0.930913
      16A     -0.841716    17A     -0.802640    18A     -0.774415
      19A     -0.692787    20A     -0.684635    21A     -0.667760
      22A     -0.646735    23A     -0.606017    24A     -0.588427
      25A     -0.582256    26A     -0.566982    27A     -0.558327
      28A     -0.537274    29A     -0.523300    30A     -0.505074
      31A     -0.490868    32A     -0.477947    33A     -0.471165
      34A     -0.466013    35A     -0.450980    36A     -0.435175

  @DF-RHF Final Energy:  -422.97939093516675

   => Energetics <=

    Nuclear Repulsion Energy =            449.6977020454146441
    One-Electron Energy =               -1466.9853449674094463
    Two-Electron Energy =                 594.3082519868277132
    DFT Exchange-Correlation Energy =       0.0000000000000000
    Empirical Dispersion Energy =           0.0000000000000000
    PCM Polarization Energy =               0.0000000000000000
    EFP Energy =                            0.0000000000000000
    Total Energy =                       -422.9793909351670891

  Mulliken Charges: (a.u.)
   Center  Symbol    Alpha    Beta     Spin     Total
       1     O     4.28391  4.28391  0.00000 -0.56782
       2     C     2.61539  2.61539  0.00000  0.76922
       3     C     3.28781  3.28781  0.00000 -0.57562
       4     O     4.31262  4.31262  0.00000 -0.62524
       5     H     0.39752  0.39752  0.00000  0.20496
       6     H     0.39984  0.39984  0.00000  0.20032
       7     H     0.39745  0.39745  0.00000  0.20511
       8     C     2.99622  2.99622  0.00000  0.00757
       9     C     3.16466  3.16466  0.00000 -0.32933
      10     H     0.40789  0.40789  0.00000  0.18422
      11     H     0.41272  0.41272  0.00000  0.17456
      12     C     3.16005  3.16005  0.00000 -0.32010
      13     H     0.41436  0.41436  0.00000  0.17127
      14     H     0.41426  0.41426  0.00000  0.17148
      15     C     3.15142  3.15142  0.00000 -0.30284
      16     H     0.42058  0.42058  0.00000  0.15883
      17     H     0.42097  0.42097  0.00000  0.15805
      18     C     3.23986  3.23986  0.00000 -0.47972
      19     H     0.42138  0.42138  0.00000  0.15725
      20     H     0.42140  0.42140  0.00000  0.15720
      21     H     0.42079  0.42079  0.00000  0.15842
      22     H     0.41800  0.41800  0.00000  0.16400
      23     H     0.42090  0.42090  0.00000  0.15821

   Total alpha = 36.00000, Total beta = 36.00000, Total charge =  0.00000
