  ==> Input File <==

--------------------------------------------------------------------------
set {
	reference rhf
	basis 6-31G*
}

set_num_threads( 4 )
memory 2 gb

molecule MOL {
0 1

H	 -3.420663	 1.227371	 -1.044276
O	 -3.452007	 0.283848	 -0.965577
C	 -3.181085	 -0.079926	 0.364119
C	 -1.765924	 0.277073	 0.805136
H	 -3.327791	 -1.152017	 0.410903
H	 -3.905698	 0.375695	 1.036898
C	 -0.677594	 -0.417312	 -0.014550
H	 -1.637766	 1.358238	 0.744969
H	 -1.659588	 0.017670	 1.857098
C	 0.659814	 -0.513392	 0.722529
H	 -0.542523	 0.114865	 -0.951168
H	 -1.016774	 -1.417699	 -0.278323
C	 1.742524	 -1.214887	 -0.101928
H	 0.988003	 0.487763	 0.991604
H	 0.519097	 -1.050696	 1.659603
C	 3.075936	 -1.414602	 0.627648
H	 1.916259	 -0.653880	 -1.018871
H	 1.368655	 -2.189180	 -0.409808
C	 3.817294	 -0.119226	 0.963496
H	 3.719260	 -2.032565	 0.005920
H	 2.904645	 -1.979977	 1.541549
H	 3.991534	 0.473436	 0.069331
H	 4.783422	 -0.332789	 1.410514
H	 3.263751	 0.495715	 1.665352

	symmetry c1
}
set optking {
	frozen_dihedral = ("
		11 7 4 3
	")
}

ee = optimize('scf')
oeprop('DIPOLE', 'QUADRUPOLE', 'MULLIKEN_CHARGES')
f=open( 'psi4out.xyz', 'w' )
f.write( "24  " )
f.write( str(ee) + "\n" )
f.write( MOL.save_string_xyz() )
f.close()
--------------------------------------------------------------------------

    Molecular point group: c1
  Charge       = 0
  Multiplicity = 1
  Basis Set: 6-31G*
  Basis Set:
  @DF-RHF Final Energy:  -349.24590719577208
    Total Energy =                       -349.2459071957724746
    Molecular point group: c1
  Basis Set: 6-31G*
  Basis Set:
  Basis Set: 6-31G*
  Basis Set:
  @DF-RHF Final Energy:  -349.24606511457813
    Total Energy =                       -349.2460651145781867
  Basis Set: 6-31G*
  Basis Set:
  Basis Set: 6-31G*
  Basis Set:
  @DF-RHF Final Energy:  -349.24614697445827
    Total Energy =                       -349.2461469744583837
  Basis Set: 6-31G*
  Basis Set:
  Basis Set: 6-31G*
  Basis Set:
  @DF-RHF Final Energy:  -349.24614956471760
    Total Energy =                       -349.2461495647178253
  Basis Set: 6-31G*
  Basis Set:
  Basis Set: 6-31G*
  Basis Set:
  @DF-RHF Final Energy:  -349.24615066500155
    Total Energy =                       -349.2461506650017782
  Basis Set: 6-31G*
  Basis Set:
  Charge       = 0
  Multiplicity = 1
  Basis Set: 6-31G*
  Basis Set:

    Orbital Energies (a.u.)
    -----------------------

    Doubly Occupied:

       1A    -20.552800     2A    -11.267478     3A    -11.217482
       4A    -11.214125     5A    -11.212621     6A    -11.212047
       7A    -11.211569     8A    -11.207459     9A     -1.359417
      10A     -1.088577    11A     -1.048095    12A     -0.985695
      13A     -0.915148    14A     -0.850551    15A     -0.800622
      16A     -0.776441    17A     -0.678145    18A     -0.652737
      19A     -0.627883    20A     -0.617302    21A     -0.600407
      22A     -0.582620    23A     -0.553858    24A     -0.545575
      25A     -0.515892    26A     -0.503393    27A     -0.501285
      28A     -0.474112    29A     -0.468486    30A     -0.460243
      31A     -0.454172    32A     -0.450412    33A     -0.418578

  @DF-RHF Final Energy:  -349.24615100528757

   => Energetics <=

    Nuclear Repulsion Energy =            384.1796070216421981
    One-Electron Energy =               -1234.8010672526247617
    Two-Electron Energy =                 501.3753092256948776
    DFT Exchange-Correlation Energy =       0.0000000000000000
    Empirical Dispersion Energy =           0.0000000000000000
    PCM Polarization Energy =               0.0000000000000000
    EFP Energy =                            0.0000000000000000
    Total Energy =                       -349.2461510052877429
    Molecular point group: c1
  Basis Set: 6-31G*
  Basis Set:

  -Total Gradient:
     Atom            X                  Y                   Z
    ------   -----------------  -----------------  -----------------
       1        0.000000170582     0.000002888437    -0.000002553890
       2       -0.000011910629     0.000013157745     0.000004646154
       3       -0.000052157317    -0.001894510410     0.001588871029
       4        0.000652295412     0.003053344078    -0.001897095141
       5        0.000002939644    -0.000005137070     0.000001702487
       6        0.000003329394    -0.000000366035    -0.000005050721
       7       -0.002968811916    -0.003061996961    -0.001131885158
       8        0.000005382210    -0.000005481583    -0.000021207282
       9        0.000006542971     0.000005185142     0.000006744285
      10        0.000004933682    -0.000021346270     0.000022391136
      11        0.002373804892     0.001904702050     0.001428192575
      12       -0.000013003879     0.000003407599     0.000007102768
      13       -0.000006142825    -0.000013940692     0.000008168681
      14        0.000000149891     0.000009680978    -0.000000002980
      15        0.000012759394    -0.000001895098    -0.000000142081
      16        0.000004445968     0.000005794884    -0.000015385213
      17        0.000000424241     0.000009725204     0.000010328286
      18        0.000007006099    -0.000003917174    -0.000010926015
      19       -0.000002760681    -0.000002145753    -0.000002998722
      20       -0.000003477622    -0.000012803782     0.000002207704
      21       -0.000007073916     0.000013238428     0.000003192380
      22       -0.000003769103    -0.000000262565     0.000000727133
      23        0.000001318719    -0.000001868396    -0.000002830544
      24       -0.000006395203     0.000004547241     0.000005803126

  **** Optimization is complete! (in 6 steps) ****
    Final optimized geometry and variables:
    Molecular point group: c1

    Geometry (in Angstrom), charge = 0, multiplicity = 1:

    H           -3.322331911152     1.566725796801    -1.388645635710
    O           -3.405418463269     0.632596688246    -1.255224236210
    C           -3.159630995540     0.332482782583     0.095110447553
    C           -1.735681134446     0.654851467846     0.530843775586
    H           -3.344074011573    -0.729600659535     0.197182405602
    H           -3.872613256448     0.849022820119     0.735804527866
    C           -0.663436029904    -0.075874549115    -0.285846328514
    H           -1.569087704981     1.730485341348     0.483779308250
    H           -1.647092968280     0.382813374623     1.581670701981
    C            0.680941381995    -0.158604445818     0.443130007470
    H           -0.512518339155     0.442636089981    -1.228128838137
    H           -1.006618974219    -1.078130409534    -0.530018036667
    C            1.771743569293    -0.828052279292    -0.396804497858
    H            0.992457885881     0.844196755989     0.726478574229
    H            0.553678295346    -0.712445844272     1.372335688456
    C            3.108227620245    -1.025725591965     0.327594163994
    H            1.937813957803    -0.245491139537    -1.301667488639
    H            1.410127261692    -1.800265192854    -0.725558279176
    C            3.832036389226     0.272140817154     0.690867983641
    H            3.759278319731    -1.621719965388    -0.307320467078
    H            2.944959053502    -1.612576610814     1.229320869888
    H            3.997771665801     0.886103779613    -0.190456168006
    H            4.801226167591     0.062330201245     1.133007209104
    H            3.270314746991     0.864310047835     1.405684495852

  Mulliken Charges: (a.u.)
   Center  Symbol    Alpha    Beta     Spin     Total
       1     H     0.28354  0.28354  0.00000  0.43292
       2     O     4.36864  4.36864  0.00000 -0.73729
       3     C     2.99616  2.99616  0.00000  0.00769
       4     C     3.17151  3.17151  0.00000 -0.34303
       5     H     0.41627  0.41627  0.00000  0.16746
       6     H     0.42859  0.42859  0.00000  0.14281
       7     C     3.14696  3.14696  0.00000 -0.29393
       8     H     0.42607  0.42607  0.00000  0.14786
       9     H     0.42213  0.42213  0.00000  0.15573
      10     C     3.15523  3.15523  0.00000 -0.31046
      11     H     0.41837  0.41837  0.00000  0.16326
      12     H     0.41964  0.41964  0.00000  0.16072
      13     C     3.15244  3.15244  0.00000 -0.30489
      14     H     0.42291  0.42291  0.00000  0.15418
      15     H     0.42519  0.42519  0.00000  0.14961
      16     C     3.15227  3.15227  0.00000 -0.30454
      17     H     0.42417  0.42417  0.00000  0.15166
      18     H     0.42169  0.42169  0.00000  0.15663
      19     C     3.24104  3.24104  0.00000 -0.48207
      20     H     0.42104  0.42104  0.00000  0.15791
      21     H     0.42369  0.42369  0.00000  0.15262
      22     H     0.42247  0.42247  0.00000  0.15506
      23     H     0.41950  0.41950  0.00000  0.16100
      24     H     0.42045  0.42045  0.00000  0.15909

   Total alpha = 33.00000, Total beta = 33.00000, Total charge = -0.00000
