  ==> Input File <==

--------------------------------------------------------------------------
set {
	reference rhf
	basis 6-31G*
}

set_num_threads( 1 )
memory 2 gb

molecule MOL {
0 1

O	 3.695388	 0.761324	 1.534212
C	 2.951957	 -0.054451	 1.092759
C	 1.463657	 -0.113632	 1.338215
O	 3.347903	 -1.046386	 0.304773
C	 0.957546	 1.017000	 2.231322
H	 0.980559	 -0.111955	 0.366719
H	 1.246804	 -1.084776	 1.775880
C	 -0.532034	 0.911780	 2.575670
H	 1.157649	 1.970194	 1.751217
H	 1.535157	 1.017323	 3.149356
C	 -1.482822	 1.084767	 1.387737
H	 -0.760837	 1.673423	 3.317475
H	 -0.726118	 -0.045614	 3.057061
C	 -2.956356	 1.081403	 1.799666
H	 -1.253764	 2.020228	 0.879540
H	 -1.320149	 0.293609	 0.659329
C	 -3.915874	 1.248343	 0.620010
H	 -3.130570	 1.879604	 2.519220
H	 -3.183403	 0.150754	 2.317394
C	 -5.385234	 1.247768	 1.040343
H	 -3.689724	 2.177351	 0.100932
H	 -3.746235	 0.448908	 -0.098257
H	 -6.040149	 1.367680	 0.182838
H	 -5.595237	 2.058194	 1.732661
H	 -5.651916	 0.316657	 1.532466
C	 4.728119	 -1.109107	 -0.004993
H	 4.882018	 -1.033965	 -1.071845
H	 5.068212	 -2.067527	 0.355250
H	 5.265056	 -0.311663	 0.488280

	symmetry c1
}
set optking {
	frozen_dihedral = ("
		21 17 14 11,
		17 14 11 15,
		15 11 8 5,
		6 3 5 9,
		11 8 5 9,
		1 2 4 26,
		6 3 2 1
	")
}

ee = energy('scf')
oeprop('DIPOLE', 'QUADRUPOLE', 'MULLIKEN_CHARGES')
f=open( 'psi4out.xyz', 'w' )
f.write( "29  " )
f.write( str(ee) + "\n" )
f.write( MOL.save_string_xyz() )
f.close()
--------------------------------------------------------------------------

    Molecular point group: c1

    Geometry (in Angstrom), charge = 0, multiplicity = 1:

       Center              X                  Y                   Z               Mass
    ------------   -----------------  -----------------  -----------------  -----------------
           O          3.394847864156     0.318593931746     0.284746877597    15.994914619560
           C          2.651416864156    -0.497181068254    -0.156706122403    12.000000000000
           C          1.163116864156    -0.556362068254     0.088749877597    12.000000000000
           O          3.047362864156    -1.489116068254    -0.944692122403    15.994914619560
           C          0.657005864156     0.574269931746     0.981856877597    12.000000000000
           H          0.680018864156    -0.554685068254    -0.882746122403     1.007825032070
           H          0.946263864156    -1.527506068254     0.526414877597     1.007825032070
           C         -0.832574135844     0.469049931746     1.326204877597    12.000000000000
           H          0.857108864156     1.527463931746     0.501751877597     1.007825032070
           H          1.234616864156     0.574592931746     1.899890877597     1.007825032070
           C         -1.783362135844     0.642036931746     0.138271877597    12.000000000000
           H         -1.061377135844     1.230692931746     2.068009877597     1.007825032070
           H         -1.026658135844    -0.488344068254     1.807595877597     1.007825032070
           C         -3.256896135844     0.638672931746     0.550200877597    12.000000000000
           H         -1.554304135844     1.577497931746    -0.369925122403     1.007825032070
           H         -1.620689135844    -0.149121068254    -0.590136122403     1.007825032070
           C         -4.216414135844     0.805612931746    -0.629455122403    12.000000000000
           H         -3.431110135844     1.436873931746     1.269754877597     1.007825032070
           H         -3.483943135844    -0.291976068254     1.067928877597     1.007825032070
           C         -5.685774135844     0.805037931746    -0.209122122403    12.000000000000
           H         -3.990264135844     1.734620931746    -1.148533122403     1.007825032070
           H         -4.046775135844     0.006177931746    -1.347722122403     1.007825032070
           H         -6.340689135844     0.924949931746    -1.066627122403     1.007825032070
           H         -5.895777135844     1.615463931746     0.483195877597     1.007825032070
           H         -5.952456135844    -0.126073068254     0.283000877597     1.007825032070
           C          4.427578864156    -1.551837068254    -1.254458122403    12.000000000000
           H          4.581477864156    -1.476695068254    -2.321310122403     1.007825032070
           H          4.767671864156    -2.510257068254    -0.894215122403     1.007825032070
           H          4.964515864156    -0.754393068254    -0.761185122403     1.007825032070

  Charge       = 0
  Multiplicity = 1
  Basis Set: 6-31G*
  Basis Set:

    Orbital Energies (a.u.)
    -----------------------

    Doubly Occupied:

       1A    -20.603071     2A    -20.544360     3A    -11.373403
       4A    -11.275588     5A    -11.235273     6A    -11.219315
       7A    -11.217801     8A    -11.216111     9A    -11.215920
      10A    -11.214539    11A    -11.209111    12A     -1.469436
      13A     -1.362729    14A     -1.098293    15A     -1.067034
      16A     -1.019544    17A     -0.976510    18A     -0.928160
      19A     -0.861564    20A     -0.799214    21A     -0.790466
      22A     -0.763202    23A     -0.703877    24A     -0.681408
      25A     -0.672543    26A     -0.651135    27A     -0.629391
      28A     -0.604329    29A     -0.594751    30A     -0.578873
      31A     -0.568711    32A     -0.550172    33A     -0.534254
      34A     -0.524780    35A     -0.515003    36A     -0.512663
      37A     -0.497000    38A     -0.478015    39A     -0.470294
      40A     -0.462440    41A     -0.458884    42A     -0.452473
      43A     -0.441469    44A     -0.436129

  @DF-RHF Final Energy:  -501.04095419722728

   => Energetics <=

    Nuclear Repulsion Energy =            610.3294899936144020
    One-Electron Energy =               -1891.7823523480799395
    Two-Electron Energy =                 780.4119081572384857
    DFT Exchange-Correlation Energy =       0.0000000000000000
    Empirical Dispersion Energy =           0.0000000000000000
    PCM Polarization Energy =               0.0000000000000000
    EFP Energy =                            0.0000000000000000
    Total Energy =                       -501.0409541972271654

  Mulliken Charges: (a.u.)
   Center  Symbol    Alpha    Beta     Spin     Total
       1     O     4.28688  4.28688  0.00000 -0.57376
       2     C     2.60423  2.60423  0.00000  0.79154
       3     C     3.21068  3.21068  0.00000 -0.42136
       4     O     4.30723  4.30723  0.00000 -0.61446
       5     C     3.15385  3.15385  0.00000 -0.30770
       6     H     0.39846  0.39846  0.00000  0.20307
       7     H     0.40101  0.40101  0.00000  0.19797
       8     C     3.15663  3.15663  0.00000 -0.31326
       9     H     0.41302  0.41302  0.00000  0.17395
      10     H     0.40868  0.40868  0.00000  0.18264
      11     C     3.15509  3.15509  0.00000 -0.31019
      12     H     0.41820  0.41820  0.00000  0.16361
      13     H     0.42384  0.42384  0.00000  0.15232
      14     C     3.15030  3.15030  0.00000 -0.30059
      15     H     0.42259  0.42259  0.00000  0.15482
      16     H     0.42359  0.42359  0.00000  0.15281
      17     C     3.15147  3.15147  0.00000 -0.30293
      18     H     0.42331  0.42331  0.00000  0.15337
      19     H     0.42396  0.42396  0.00000  0.15209
      20     C     3.23936  3.23936  0.00000 -0.47871
      21     H     0.42280  0.42280  0.00000  0.15441
      22     H     0.42341  0.42341  0.00000  0.15319
      23     H     0.41921  0.41921  0.00000  0.16157
      24     H     0.42154  0.42154  0.00000  0.15691
      25     H     0.42182  0.42182  0.00000  0.15636
      26     C     3.10315  3.10315  0.00000 -0.20629
      27     H     0.41288  0.41288  0.00000  0.17424
      28     H     0.41288  0.41288  0.00000  0.17424
      29     H     0.38992  0.38992  0.00000  0.22016

   Total alpha = 44.00000, Total beta = 44.00000, Total charge =  0.00000
