                              Psi4 1.0.54 Driver

  ==> Input File <==

--------------------------------------------------------------------------
set {
	reference rhf
	basis cc-pvtz
}

set_num_threads( 4 )
memory 2 gb

molecule MOL {
0 1

H	 -2.783086	 0.407036	 -0.176777
C	 -2.235584	 0.586153	 -1.092408
C	 -0.961851	 -0.243518	 -1.137850
H	 -2.011858	 1.643605	 -1.136627
H	 -2.876764	 0.336412	 -1.929320
C	 0.000000	 0.039916	 0.000014
H	 -0.427104	 -0.079615	 -2.069558
H	 -1.191605	 -1.305457	 -1.118086
C	 1.286532	 -0.763243	 0.000268
O	 -0.240027	 0.843294	 0.841054
C	 2.547023	 0.087626	 -0.000114
H	 1.264245	 -1.421103	 -0.864380
H	 1.264290	 -1.420353	 0.865489
H	 2.584452	 0.725630	 -0.872909
H	 3.427035	 -0.544422	 0.000125
H	 2.584484	 0.726356	 0.872143

	symmetry c1
}
set optking {
	frozen_dihedral = ("
		3 6 9 12
	")
}

ee,wfn = optimize('scf', return_wfn=True)
oeprop( wfn, 'DIPOLE', 'QUADRUPOLE', 'MULLIKEN_CHARGES')
f=open( 'psi4out.xyz', 'w' )
f.write( "16  " )
f.write( str(ee) + "\n" )
f.write( MOL.save_string_xyz() )
f.close()
--------------------------------------------------------------------------

    Molecular point group: c1
  Charge       = 0
  Multiplicity = 1
  Basis Set: CC-PVTZ
  Basis Set:
  @DF-RHF Final Energy:  -270.12949664759344
    Total Energy =                       -270.1294966475936690
    Molecular point group: c1
  Basis Set: CC-PVTZ
  Basis Set:
  Basis Set: CC-PVTZ
  Basis Set:
  @DF-RHF Final Energy:  -270.12999827746728
    Total Energy =                       -270.1299982774669388
  Basis Set: CC-PVTZ
  Basis Set:
  Basis Set: CC-PVTZ
  Basis Set:
  @DF-RHF Final Energy:  -270.13006064901310
    Total Energy =                       -270.1300606490131599
  Basis Set: CC-PVTZ
  Basis Set:
  Basis Set: CC-PVTZ
  Basis Set:
  @DF-RHF Final Energy:  -270.13010935565671
    Total Energy =                       -270.1301093556567139
  Basis Set: CC-PVTZ
  Basis Set:
  Basis Set: CC-PVTZ
  Basis Set:
  @DF-RHF Final Energy:  -270.13011251498006
    Total Energy =                       -270.1301125149797144
  Basis Set: CC-PVTZ
  Basis Set:
  Charge       = 0
  Multiplicity = 1
  Basis Set: CC-PVTZ
  Basis Set:

    Orbital Energies (a.u.)
    -----------------------

    Doubly Occupied:

       1A    -20.537333     2A    -11.317817     3A    -11.233198
       4A    -11.230697     5A    -11.219152     6A    -11.211842
       7A     -1.398180     8A     -1.069967     9A     -1.037917
      10A     -0.915035    11A     -0.851364    12A     -0.726987
      13A     -0.667754    14A     -0.643994    15A     -0.624569
      16A     -0.603140    17A     -0.566241    18A     -0.537201
      19A     -0.529346    20A     -0.512768    21A     -0.503307
      22A     -0.497533    23A     -0.480180    24A     -0.398661

  @DF-RHF Final Energy:  -270.13011321372136

   => Energetics <=

    Nuclear Repulsion Energy =            240.4953869331530427
    One-Electron Energy =                -842.6226339673398797
    Two-Electron Energy =                 331.9971338204655922
    DFT Exchange-Correlation Energy =       0.0000000000000000
    Empirical Dispersion Energy =           0.0000000000000000
    PCM Polarization Energy =               0.0000000000000000
    EFP Energy =                            0.0000000000000000
    Total Energy =                       -270.1301132137213017
    Molecular point group: c1
  Basis Set: CC-PVTZ
  Basis Set:

  -Total Gradient:
     Atom            X                  Y                   Z
    ------   -----------------  -----------------  -----------------
       1       -0.000003831376    -0.000002538080     0.000005007713
       2        0.000009956889     0.000021473975    -0.000021441047
       3        0.000199895921     0.000294012547    -0.000219817154
       4       -0.000001533776    -0.000008816290     0.000001952502
       5       -0.000004224893    -0.000000333294     0.000001690487
       6       -0.000387388411    -0.000641677518     0.000462395695
       7        0.000016143762     0.000006260612    -0.000007553381
       8       -0.000005726011     0.000013258383    -0.000021086828
       9        0.000516855893     0.000760545839    -0.000594812327
      10        0.000003622451     0.000023464406     0.000020517091
      11       -0.000024274728    -0.000010822588     0.000017536294
      12       -0.000313552531    -0.000471110094     0.000344021699
      13       -0.000011427564     0.000008214921    -0.000000606948
      14       -0.000005167654    -0.000008167066     0.000002674798
      15       -0.000004231042    -0.000002829253    -0.000001266294
      16        0.000014883070     0.000019063500     0.000010787699

  **** Optimization is complete! (in 6 steps) ****
    Final optimized geometry and variables:
    Molecular point group: c1

    Geometry (in Angstrom), charge = 0, multiplicity = 1:

    H           -2.845686219577     0.326000731843     0.072866206151
    C           -2.303436345244     0.512406818999    -0.844575883435
    C           -1.040641246180    -0.330705688950    -0.911249482320
    H           -2.066789075905     1.567565180876    -0.874091568040
    H           -2.954455045028     0.283447156408    -1.679822878876
    C           -0.063791964103    -0.079032537691     0.216246446412
    H           -0.505140950555    -0.161320525174    -1.842798185307
    H           -1.277192021022    -1.392122642031    -0.905800372651
    C            1.216833505411    -0.897583005878     0.216438629168
    O           -0.272938257034     0.721694479524     1.068602596427
    C            2.462139018639    -0.012936238144     0.237107264981
    H            1.236263891987    -1.569943046040    -0.632824697544
    H            1.191805698821    -1.512362120648     1.110399459498
    H            2.524413388646     0.597026193205    -0.657405548213
    H            3.357425095468    -0.620066496132     0.288255583739
    H            2.443106840881     0.646899768235     1.092932505975

  Mulliken Charges: (a.u.)
   Center  Symbol    Alpha    Beta     Spin     Total
       1     H     0.44785  0.44785  0.00000  0.10430
       2     C     3.14109  3.14109  0.00000 -0.28218
       3     C     3.10267  3.10267  0.00000 -0.20533
       4     H     0.44763  0.44763  0.00000  0.10474
       5     H     0.45080  0.45080  0.00000  0.09839
       6     C     2.86635  2.86635  0.00000  0.26729
       7     H     0.44574  0.44574  0.00000  0.10852
       8     H     0.44510  0.44510  0.00000  0.10981
       9     C     3.09489  3.09489  0.00000 -0.18979
      10     O     4.17727  4.17727  0.00000 -0.35453
      11     C     3.14470  3.14470  0.00000 -0.28940
      12     H     0.44756  0.44756  0.00000  0.10488
      13     H     0.44365  0.44365  0.00000  0.11270
      14     H     0.45562  0.45562  0.00000  0.08875
      15     H     0.44878  0.44878  0.00000  0.10245
      16     H     0.44031  0.44031  0.00000  0.11939

   Total alpha = 24.00000, Total beta = 24.00000, Total charge =  0.00000

*** Psi4 exiting successfully. Buy a developer a beer!
