  ==> Input File <==

--------------------------------------------------------------------------
set {
	reference rhf
	basis 6-31G*
}

set_num_threads( 1 )
memory 2 gb

molecule MOL {
0 1

H	 -3.638916	 0.165642	 -1.123955
O	 -3.517110	 -0.026191	 -0.205115
C	 -2.306886	 0.532354	 0.237577
C	 -1.177863	 -0.397191	 -0.171080
H	 -2.156308	 1.517575	 -0.201710
H	 -2.315015	 0.655684	 1.319734
C	 0.198102	 0.111031	 0.262842
H	 -1.208843	 -0.518759	 -1.250427
H	 -1.368741	 -1.376554	 0.258909
C	 1.331804	 -0.827780	 -0.158768
H	 0.361943	 1.100838	 -0.156218
H	 0.217265	 0.229072	 1.345532
C	 2.723619	 -0.410569	 0.329459
H	 1.342964	 -0.912588	 -1.244120
H	 1.116806	 -1.824343	 0.220779
C	 3.243875	 0.895854	 -0.272975
H	 3.424222	 -1.207124	 0.091250
H	 2.714788	 -0.329854	 1.414619
H	 3.251977	 0.848779	 -1.358681
H	 2.637085	 1.747371	 0.016682
H	 4.259473	 1.094070	 0.055697

	symmetry c1
}
set optking {
	frozen_dihedral = ("
		2 3 4 8,
		8 4 7 10,
		4 7 10 14,
		16 13 10 14
	")
}

ee = energy('scf')
oeprop('DIPOLE', 'QUADRUPOLE', 'MULLIKEN_CHARGES')
f=open( 'psi4out.xyz', 'w' )
f.write( "21  " )
f.write( str(ee) + "\n" )
f.write( MOL.save_string_xyz() )
f.close()
--------------------------------------------------------------------------

    Molecular point group: c1

    Geometry (in Angstrom), charge = 0, multiplicity = 1:

       Center              X                  Y                   Z               Mass
    ------------   -----------------  -----------------  -----------------  -----------------
           H         -3.644814233212     0.169318778630    -1.112468390487     1.007825032070
           O         -3.523008233212    -0.022514221370    -0.193628390487    15.994914619560
           C         -2.312784233212     0.536030778630     0.249063609513    12.000000000000
           C         -1.183761233212    -0.393514221370    -0.159593390487    12.000000000000
           H         -2.162206233212     1.521251778630    -0.190223390487     1.007825032070
           H         -2.320913233212     0.659360778630     1.331220609513     1.007825032070
           C          0.192203766788     0.114707778630     0.274328609513    12.000000000000
           H         -1.214741233212    -0.515082221370    -1.238940390487     1.007825032070
           H         -1.374639233212    -1.372877221370     0.270395609513     1.007825032070
           C          1.325905766788    -0.824103221370    -0.147281390487    12.000000000000
           H          0.356044766788     1.104514778630    -0.144731390487     1.007825032070
           H          0.211366766788     0.232748778630     1.357018609513     1.007825032070
           C          2.717720766788    -0.406892221370     0.340945609513    12.000000000000
           H          1.337065766788    -0.908911221370    -1.232633390487     1.007825032070
           H          1.110907766788    -1.820666221370     0.232265609513     1.007825032070
           C          3.237976766788     0.899530778630    -0.261488390487    12.000000000000
           H          3.418323766788    -1.203447221370     0.102736609513     1.007825032070
           H          2.708889766788    -0.326177221370     1.426105609513     1.007825032070
           H          3.246078766788     0.852455778630    -1.347194390487     1.007825032070
           H          2.631186766788     1.751047778630     0.028168609513     1.007825032070
           H          4.253574766788     1.097746778630     0.067183609513     1.007825032070

  Charge       = 0
  Multiplicity = 1
  Basis Set: 6-31G*
  Basis Set:

    Orbital Energies (a.u.)
    -----------------------

    Doubly Occupied:

       1A    -20.551300     2A    -11.268146     3A    -11.216619
       4A    -11.216265     5A    -11.215054     6A    -11.211506
       7A    -11.209457     8A     -1.359521     9A     -1.087557
      10A     -1.033984    11A     -0.954943    12A     -0.877988
      13A     -0.814949    14A     -0.779968    15A     -0.697800
      16A     -0.645009    17A     -0.624263    18A     -0.608064
      19A     -0.593603    20A     -0.568955    21A     -0.547528
      22A     -0.521748    23A     -0.505485    24A     -0.496787
      25A     -0.473919    26A     -0.465945    27A     -0.462364
      28A     -0.456881    29A     -0.417079

  @DF-RHF Final Energy:  -310.21080043641774

   => Energetics <=

    Nuclear Repulsion Energy =            312.9287581557940143
    One-Electron Energy =               -1040.5138040026438375
    Two-Electron Energy =                 417.3742454104319677
    DFT Exchange-Correlation Energy =       0.0000000000000000
    Empirical Dispersion Energy =           0.0000000000000000
    PCM Polarization Energy =               0.0000000000000000
    EFP Energy =                            0.0000000000000000
    Total Energy =                       -310.2108004364179124

  Mulliken Charges: (a.u.)
   Center  Symbol    Alpha    Beta     Spin     Total
       1     H     0.28117  0.28117  0.00000  0.43766
       2     O     4.37044  4.37044  0.00000 -0.74089
       3     C     2.99531  2.99531  0.00000  0.00937
       4     C     3.15824  3.15824  0.00000 -0.31649
       5     H     0.43165  0.43165  0.00000  0.13670
       6     H     0.41679  0.41679  0.00000  0.16643
       7     C     3.16293  3.16293  0.00000 -0.32586
       8     H     0.42811  0.42811  0.00000  0.14378
       9     H     0.41381  0.41381  0.00000  0.17238
      10     C     3.15142  3.15142  0.00000 -0.30284
      11     H     0.42252  0.42252  0.00000  0.15495
      12     H     0.42303  0.42303  0.00000  0.15393
      13     C     3.15247  3.15247  0.00000 -0.30495
      14     H     0.42430  0.42430  0.00000  0.15139
      15     H     0.42089  0.42089  0.00000  0.15822
      16     C     3.24122  3.24122  0.00000 -0.48243
      17     H     0.42066  0.42066  0.00000  0.15867
      18     H     0.42311  0.42311  0.00000  0.15377
      19     H     0.42249  0.42249  0.00000  0.15501
      20     H     0.42051  0.42051  0.00000  0.15897
      21     H     0.41890  0.41890  0.00000  0.16220

   Total alpha = 29.00000, Total beta = 29.00000, Total charge =  0.00000
