                              Psi4 1.0.54 Driver

  ==> Input File <==

--------------------------------------------------------------------------
set {
	reference rhf
	basis cc-pvtz
}

set_num_threads( 4 )
memory 2 gb

molecule MOL {
0 1

H	 0.749998	 3.221528	 -2.123722
O	 0.197843	 2.746173	 -1.531087
C	 0.945118	 1.770660	 -0.851401
C	 0.027642	 1.012027	 0.090274
H	 1.739201	 2.237022	 -0.273729
H	 1.414047	 1.091626	 -1.558140
C	 -1.138737	 0.285728	 -0.581921
H	 -0.366804	 1.717680	 0.814134
H	 0.633341	 0.298911	 0.644176
C	 -1.933983	 -0.631436	 0.343653
H	 -0.763151	 -0.285569	 -1.422081
H	 -1.808359	 1.035291	 -0.992333
H	 -2.789188	 -1.049673	 -0.174718
H	 -1.335629	 -1.461368	 0.700418
H	 -2.305435	 -0.092167	 1.209725

	symmetry c1
}
set optking {
	frozen_dihedral = ("
		8 4 7 11
	")
}

ee,wfn = optimize('scf', return_wfn=True)
oeprop( wfn, 'DIPOLE', 'QUADRUPOLE', 'MULLIKEN_CHARGES')
f=open( 'psi4out.xyz', 'w' )
f.write( "15  " )
f.write( str(ee) + "\n" )
f.write( MOL.save_string_xyz() )
f.close()
--------------------------------------------------------------------------

    Molecular point group: c1
  Charge       = 0
  Multiplicity = 1
  Basis Set: CC-PVTZ
  Basis Set:
  @DF-RHF Final Energy:  -232.23832035850316
    Total Energy =                       -232.2383203585029605
    Molecular point group: c1
  Basis Set: CC-PVTZ
  Basis Set:
  Basis Set: CC-PVTZ
  Basis Set:
  @DF-RHF Final Energy:  -232.23870973393801
    Total Energy =                       -232.2387097339380375
  Basis Set: CC-PVTZ
  Basis Set:
  Basis Set: CC-PVTZ
  Basis Set:
  @DF-RHF Final Energy:  -232.23876215274129
    Total Energy =                       -232.2387621527412307
  Basis Set: CC-PVTZ
  Basis Set:
  Basis Set: CC-PVTZ
  Basis Set:
  @DF-RHF Final Energy:  -232.23876373678661
    Total Energy =                       -232.2387637367865523
  Basis Set: CC-PVTZ
  Basis Set:
  Charge       = 0
  Multiplicity = 1
  Basis Set: CC-PVTZ
  Basis Set:

    Orbital Energies (a.u.)
    -----------------------

    Doubly Occupied:

       1A    -20.546268     2A    -11.265917     3A    -11.210654
       4A    -11.207406     5A    -11.203374     6A     -1.364218
       7A     -1.066258     8A     -0.975198     9A     -0.857329
      10A     -0.787348    11A     -0.707917    12A     -0.641899
      13A     -0.609488    14A     -0.592797    15A     -0.548204
      16A     -0.532697    17A     -0.513065    18A     -0.476519
      19A     -0.466344    20A     -0.457606    21A     -0.433030

  @DF-RHF Final Energy:  -232.23876389639599

   => Energetics <=

    Nuclear Repulsion Energy =            188.8404456388386734
    One-Electron Energy =                -689.2313463939384519
    Two-Electron Energy =                 268.1521368587038410
    DFT Exchange-Correlation Energy =       0.0000000000000000
    Empirical Dispersion Energy =           0.0000000000000000
    PCM Polarization Energy =               0.0000000000000000
    EFP Energy =                            0.0000000000000000
    Total Energy =                       -232.2387638963959375
    Molecular point group: c1
  Basis Set: CC-PVTZ
  Basis Set:

  -Total Gradient:
     Atom            X                  Y                   Z
    ------   -----------------  -----------------  -----------------
       1       -0.000001605416     0.000003347557     0.000001773412
       2       -0.000018833652     0.000006140277    -0.000013918019
       3        0.000038937927     0.000004241793     0.000003966663
       4       -0.000017587597    -0.001286109121     0.001347175807
       5       -0.000009346819    -0.000012834834    -0.000004773950
       6        0.000000143357     0.000002565812     0.000007414276
       7        0.000279944956    -0.001469824583     0.001076339194
       8       -0.000030369451     0.001300046158    -0.001304910280
       9       -0.000005415544     0.000001278002     0.000001383256
      10       -0.000000025032    -0.000024517578    -0.000011838384
      11       -0.000238793821     0.001446984865    -0.001098840810
      12       -0.000005128680     0.000012629276    -0.000003856059
      13        0.000015020254     0.000004241004     0.000008551192
      14       -0.000005870627     0.000006678620    -0.000001822844
      15       -0.000001069856     0.000005132761    -0.000006643455

  **** Optimization is complete! (in 5 steps) ****
    Final optimized geometry and variables:
    Molecular point group: c1

    Geometry (in Angstrom), charge = 0, multiplicity = 1:

    H            1.098964705306     2.155799519994    -1.565006113718
    O            0.556428489052     1.691649678874    -0.954994452851
    C            1.294290125647     0.675180450121    -0.327435527428
    C            0.385985461369    -0.078889364236     0.624679962393
    H            2.128237856994     1.100441436333     0.225333320380
    H            1.704196300895    -0.008902720610    -1.067894141174
    C           -0.770605661852    -0.795786486885    -0.068057508726
    H           -0.004810073339     0.632006648121     1.346522083219
    H            0.992731469669    -0.795577942992     1.171840690928
    C           -1.553261318760    -1.705891907963     0.871559838860
    H           -0.386540876650    -1.371442299856    -0.906436885187
    H           -1.435763806937    -0.056060603906    -0.497020416686
    H           -2.377988242621    -2.185028029979     0.356641364014
    H           -0.921050437842    -2.486605029066     1.282046865897
    H           -1.965768341097    -1.145218717772     1.704025065311

  Mulliken Charges: (a.u.)
   Center  Symbol    Alpha    Beta     Spin     Total
       1     H     0.39571  0.39571  0.00000  0.20858
       2     O     4.19912  4.19912  0.00000 -0.39824
       3     C     2.97296  2.97296  0.00000  0.05407
       4     C     3.08814  3.08814  0.00000 -0.17628
       5     H     0.46614  0.46614  0.00000  0.06773
       6     H     0.47404  0.47404  0.00000  0.05191
       7     C     3.08232  3.08232  0.00000 -0.16463
       8     H     0.45204  0.45204  0.00000  0.09592
       9     H     0.45542  0.45542  0.00000  0.08917
      10     C     3.14946  3.14946  0.00000 -0.29891
      11     H     0.45903  0.45903  0.00000  0.08193
      12     H     0.44470  0.44470  0.00000  0.11059
      13     H     0.44884  0.44884  0.00000  0.10231
      14     H     0.45725  0.45725  0.00000  0.08550
      15     H     0.45483  0.45483  0.00000  0.09035

   Total alpha = 21.00000, Total beta = 21.00000, Total charge = -0.00000

*** Psi4 exiting successfully. Buy a developer a beer!
