                              Psi4 1.0.54 Driver

  ==> Input File <==

--------------------------------------------------------------------------
set {
	reference rhf
	basis cc-pvtz
}

set_num_threads( 4 )
memory 2 gb

molecule MOL {
0 1

H	 -2.724412	 -0.735410	 1.286548
C	 -2.701681	 -0.731798	 0.199187
O	 -1.406932	 -0.590795	 -0.281734
H	 -3.086818	 -1.675093	 -0.159635
H	 -3.349504	 0.067795	 -0.155583
C	 -0.780978	 0.591799	 0.094152
C	 0.646411	 0.590785	 -0.392579
H	 -1.300380	 1.447350	 -0.337384
H	 -0.789736	 0.704944	 1.176072
O	 1.401606	 -0.295166	 0.366636
H	 0.665617	 0.310429	 -1.443513
H	 1.049312	 1.599867	 -0.306586
C	 2.714315	 -0.441627	 -0.061017
H	 2.765292	 -0.641548	 -1.128869
H	 3.305661	 0.447341	 0.150952
H	 3.143725	 -1.278506	 0.470147

	symmetry c1
}
set optking {
	frozen_dihedral = ("
		7 10 13 14
	")
}

ee,wfn = optimize('scf', return_wfn=True)
oeprop( wfn, 'DIPOLE', 'QUADRUPOLE', 'MULLIKEN_CHARGES')
f=open( 'psi4out.xyz', 'w' )
f.write( "16  " )
f.write( str(ee) + "\n" )
f.write( MOL.save_string_xyz() )
f.close()
--------------------------------------------------------------------------

    Molecular point group: c1
  Charge       = 0
  Multiplicity = 1
  Basis Set: CC-PVTZ
  Basis Set:
  @DF-RHF Final Energy:  -307.09764721421681
    Total Energy =                       -307.0976472142165221
    Molecular point group: c1
  Basis Set: CC-PVTZ
  Basis Set:
  Basis Set: CC-PVTZ
  Basis Set:
  @DF-RHF Final Energy:  -307.09765994824073
    Total Energy =                       -307.0976599482405049
  Basis Set: CC-PVTZ
  Basis Set:
  Charge       = 0
  Multiplicity = 1
  Basis Set: CC-PVTZ
  Basis Set:

    Orbital Energies (a.u.)
    -----------------------

    Doubly Occupied:

       1A    -20.547812     2A    -20.547602     3A    -11.267633
       4A    -11.266943     5A    -11.261635     6A    -11.261615
       7A     -1.391664     8A     -1.374417     9A     -1.032116
      10A     -0.937249    11A     -0.892260    12A     -0.824492
      13A     -0.686345    14A     -0.682683    15A     -0.659674
      16A     -0.638323    17A     -0.631862    18A     -0.598839
      19A     -0.551109    20A     -0.535547    21A     -0.510295
      22A     -0.479903    23A     -0.464805    24A     -0.423189
      25A     -0.413343

  @DF-RHF Final Energy:  -307.09766249839578

   => Energetics <=

    Nuclear Repulsion Energy =            258.8946552668255094
    One-Electron Energy =                -932.2219274596116065
    Two-Electron Energy =                 366.2296096943904899
    DFT Exchange-Correlation Energy =       0.0000000000000000
    Empirical Dispersion Energy =           0.0000000000000000
    PCM Polarization Energy =               0.0000000000000000
    EFP Energy =                            0.0000000000000000
    Total Energy =                       -307.0976624983955503
    Molecular point group: c1
  Basis Set: CC-PVTZ
  Basis Set:

  -Total Gradient:
     Atom            X                  Y                   Z
    ------   -----------------  -----------------  -----------------
       1        0.000000625820    -0.000000095132    -0.000001261458
       2       -0.000003760009    -0.000002693880     0.000001658301
       3       -0.000000279544    -0.000002684732    -0.000009615078
       4       -0.000001116459     0.000000495270    -0.000000158798
       5       -0.000001341666    -0.000000262481    -0.000000002230
       6        0.000039166963    -0.000018281633     0.000045727987
       7       -0.000358728472    -0.000873650707    -0.000832795041
       8        0.000019964223    -0.000005912577    -0.000001200896
       9       -0.000017345844     0.000002881327     0.000008526464
      10        0.000463849974     0.001716462519     0.001031402394
      11        0.000006865853    -0.000004256116     0.000014284359
      12       -0.000001765789    -0.000006086777     0.000006953515
      13       -0.000234594761    -0.002280974270    -0.000024167785
      14        0.000105616191     0.001524976284    -0.000248313932
      15       -0.000011742590    -0.000030363839    -0.000017720825
      16       -0.000005413896    -0.000019553257     0.000026683024

  **** Optimization is complete! (in 3 steps) ****
    Final optimized geometry and variables:
    Molecular point group: c1

    Geometry (in Angstrom), charge = 0, multiplicity = 1:

    H           -2.701511360668    -0.575525431449     1.305155405115
    C           -2.682426898622    -0.569310031967     0.217746890860
    O           -1.388804155845    -0.431618220725    -0.267167576933
    H           -3.072066511274    -1.510346658077    -0.142123591518
    H           -3.328633665741     0.233429506316    -0.132873162812
    C           -0.757344393148     0.747669908192     0.109806207245
    C            0.668127444304     0.743103435962    -0.382615477023
    H           -1.275250289114     1.606256075005    -0.317512847041
    H           -0.761899102712     0.857849608728     1.192015703701
    O            1.421819096922    -0.150161902892     0.369306789088
    H            0.682669274544     0.466672636560    -1.434339037946
    H            1.074169496627     1.750963746651    -0.294098836713
    C            2.736036165837    -0.297312680692    -0.054835976239
    H            2.791865710892    -0.488975016048    -1.123663536207
    H            3.323913892029     0.594048992685     0.157683990841
    H            3.166746047151    -1.132755353162     0.477273382545

  Mulliken Charges: (a.u.)
   Center  Symbol    Alpha    Beta     Spin     Total
       1     H     0.47020  0.47020  0.00000  0.05960
       2     C     3.03201  3.03201  0.00000 -0.06402
       3     O     4.17039  4.17039  0.00000 -0.34078
       4     H     0.44635  0.44635  0.00000  0.10730
       5     H     0.47370  0.47370  0.00000  0.05261
       6     C     2.96078  2.96078  0.00000  0.07845
       7     C     2.96054  2.96054  0.00000  0.07891
       8     H     0.47616  0.47616  0.00000  0.04768
       9     H     0.47066  0.47066  0.00000  0.05868
      10     O     4.17073  4.17073  0.00000 -0.34145
      11     H     0.46967  0.46967  0.00000  0.06066
      12     H     0.47699  0.47699  0.00000  0.04602
      13     C     3.03155  3.03155  0.00000 -0.06310
      14     H     0.47244  0.47244  0.00000  0.05512
      15     H     0.47153  0.47153  0.00000  0.05694
      16     H     0.44632  0.44632  0.00000  0.10737

   Total alpha = 25.00000, Total beta = 25.00000, Total charge = -0.00000

*** Psi4 exiting successfully. Buy a developer a beer!
