                              Psi4 1.0.54 Driver

  ==> Input File <==

--------------------------------------------------------------------------
set {
	reference rhf
	basis cc-pvtz
}

set_num_threads( 4 )
memory 2 gb

molecule MOL {
0 1

O	 -2.400514	 -1.056907	 0.786255
C	 -1.901820	 -0.001402	 0.590512
C	 -2.613744	 1.317100	 0.705256
O	 -0.637375	 0.157174	 0.243149
H	 -2.575179	 1.834833	 -0.244579
H	 -3.638252	 1.150393	 0.995480
H	 -2.114384	 1.937579	 1.438204
C	 0.162530	 -1.009518	 0.097799
C	 1.587210	 -0.664190	 0.477086
H	 0.096803	 -1.356267	 -0.924704
H	 -0.233803	 -1.785900	 0.736810
C	 2.256770	 0.342732	 -0.454344
H	 2.154716	 -1.590834	 0.479041
H	 1.598751	 -0.289614	 1.496104
C	 3.698146	 0.643205	 -0.057145
H	 2.235038	 -0.042575	 -1.470299
H	 1.683491	 1.262594	 -0.461300
H	 4.150202	 1.356548	 -0.736242
H	 4.305463	 -0.255904	 -0.069842
H	 3.749130	 1.061068	 0.942759

	symmetry c1
}
set optking {
	frozen_dihedral = ("
		2 4 8 10
	")
}

ee,wfn = optimize('scf', return_wfn=True)
oeprop( wfn, 'DIPOLE', 'QUADRUPOLE', 'MULLIKEN_CHARGES')
f=open( 'psi4out.xyz', 'w' )
f.write( "20  " )
f.write( str(ee) + "\n" )
f.write( MOL.save_string_xyz() )
f.close()
--------------------------------------------------------------------------

    Molecular point group: c1
  Charge       = 0
  Multiplicity = 1
  Basis Set: CC-PVTZ
  Basis Set:
  @DF-RHF Final Energy:  -384.08602314839987
    Total Energy =                       -384.0860231484003862
    Molecular point group: c1
  Basis Set: CC-PVTZ
  Basis Set:
  Basis Set: CC-PVTZ
  Basis Set:
  @DF-RHF Final Energy:  -384.08610687379110
    Total Energy =                       -384.0861068737916639
  Basis Set: CC-PVTZ
  Basis Set:
  Basis Set: CC-PVTZ
  Basis Set:
  @DF-RHF Final Energy:  -384.08607183265343
    Total Energy =                       -384.0860718326537153
  Basis Set: CC-PVTZ
  Basis Set:
  Basis Set: CC-PVTZ
  Basis Set:
  @DF-RHF Final Energy:  -384.08632224178507
    Total Energy =                       -384.0863222417849556
  Basis Set: CC-PVTZ
  Basis Set:
  Basis Set: CC-PVTZ
  Basis Set:
  @DF-RHF Final Energy:  -384.08632566944152
    Total Energy =                       -384.0863256694412939
  Basis Set: CC-PVTZ
  Basis Set:
  Charge       = 0
  Multiplicity = 1
  Basis Set: CC-PVTZ
  Basis Set:

    Orbital Energies (a.u.)
    -----------------------

    Doubly Occupied:

       1A    -20.593829     2A    -20.532357     3A    -11.367513
       4A    -11.279575     5A    -11.231413     6A    -11.223507
       7A    -11.218637     8A    -11.211560     9A     -1.469616
      10A     -1.365593    11A     -1.087084    12A     -1.029228
      13A     -0.982047    14A     -0.882222    15A     -0.815437
      16A     -0.771476    17A     -0.695509    18A     -0.687703
      19A     -0.666975    20A     -0.632084    21A     -0.600571
      22A     -0.594440    23A     -0.571682    24A     -0.557865
      25A     -0.544471    26A     -0.529523    27A     -0.516744
      28A     -0.488353    29A     -0.475572    30A     -0.466956
      31A     -0.452208    32A     -0.441217

  @DF-RHF Final Energy:  -384.08632584895628

   => Energetics <=

    Nuclear Repulsion Energy =            385.1690591220994406
    One-Electron Energy =               -1286.5448397177819970
    Two-Electron Energy =                 517.2894547467262782
    DFT Exchange-Correlation Energy =       0.0000000000000000
    Empirical Dispersion Energy =           0.0000000000000000
    PCM Polarization Energy =               0.0000000000000000
    EFP Energy =                            0.0000000000000000
    Total Energy =                       -384.0863258489562213
    Molecular point group: c1
  Basis Set: CC-PVTZ
  Basis Set:

  -Total Gradient:
     Atom            X                  Y                   Z
    ------   -----------------  -----------------  -----------------
       1       -0.000006401304     0.000007432929     0.000003842864
       2        0.000364450861     0.000047408044     0.001382170810
       3        0.000017999967    -0.000005474081     0.000023490704
       4       -0.000236096383     0.000167623753    -0.002082830859
       5       -0.000002913365    -0.000005740571    -0.000007897480
       6        0.000000381960    -0.000002575222    -0.000002666746
       7       -0.000000234642     0.000003290789    -0.000007172816
       8       -0.001433093711    -0.001111250115     0.001071673519
       9       -0.000013441492    -0.000002299156     0.000011119242
      10        0.001305442252     0.000885362213    -0.000393988369
      11        0.000012810253     0.000009946694    -0.000002431329
      12       -0.000007017007     0.000011223762    -0.000002374452
      13       -0.000006253353     0.000003134525     0.000001125106
      14        0.000002514161     0.000003564819     0.000006296717
      15       -0.000001205492    -0.000005592245    -0.000000453135
      16       -0.000001772267    -0.000001814193     0.000000155617
      17        0.000004566217    -0.000002475304     0.000001686382
      18        0.000000048496    -0.000001748694    -0.000001685407
      19        0.000001535791    -0.000000238103     0.000001155840
      20       -0.000001320936     0.000000220149    -0.000001216207

  **** Optimization is complete! (in 6 steps) ****
    Final optimized geometry and variables:
    Molecular point group: c1

    Geometry (in Angstrom), charge = 0, multiplicity = 1:

    O           -2.465789258491    -0.972520645869     0.466865777336
    C           -1.913398703888     0.061342153343     0.304161044841
    C           -2.562369756529     1.408256317879     0.456119461560
    O           -0.642366706278     0.176313554485    -0.039128409371
    H           -2.493379759124     1.950748830527    -0.477985550411
    H           -3.595346488552     1.282233245745     0.736675272265
    H           -2.037913317747     1.982176438122     1.209072865370
    C            0.142958814970    -1.000481368628    -0.192491417288
    C            1.582307416359    -0.676827552848     0.154730755447
    H            0.063939182643    -1.325020967547    -1.223144966798
    H           -0.249422353231    -1.776315837690     0.443661208091
    C            2.237897371586     0.344626681442    -0.770528684489
    H            2.140239388533    -1.608835436393     0.119846321582
    H            1.624740509079    -0.326594611437     1.181727717428
    C            3.689528009703     0.627990949902    -0.399449717347
    H            2.191473321471    -0.020018872402    -1.793340157308
    H            1.670377403852     1.267606549619    -0.747024367040
    H            4.131184543074     1.352373814619    -1.073684594948
    H            4.290350475117    -0.274431494269    -0.443906415338
    H            3.765368074460     1.024843910458     0.607412620691

  Mulliken Charges: (a.u.)
   Center  Symbol    Alpha    Beta     Spin     Total
       1     O     4.19786  4.19786  0.00000 -0.39573
       2     C     2.80518  2.80518  0.00000  0.38964
       3     C     3.14033  3.14033  0.00000 -0.28066
       4     O     4.15553  4.15553  0.00000 -0.31107
       5     H     0.44561  0.44561  0.00000  0.10879
       6     H     0.43770  0.43770  0.00000  0.12460
       7     H     0.44635  0.44635  0.00000  0.10730
       8     C     2.99550  2.99550  0.00000  0.00900
       9     C     3.08507  3.08507  0.00000 -0.17014
      10     H     0.45517  0.45517  0.00000  0.08966
      11     H     0.43617  0.43617  0.00000  0.12766
      12     C     3.08608  3.08608  0.00000 -0.17215
      13     H     0.45210  0.45210  0.00000  0.09580
      14     H     0.45194  0.45194  0.00000  0.09612
      15     C     3.14983  3.14983  0.00000 -0.29966
      16     H     0.45570  0.45570  0.00000  0.08861
      17     H     0.44654  0.44654  0.00000  0.10692
      18     H     0.44749  0.44749  0.00000  0.10501
      19     H     0.45546  0.45546  0.00000  0.08908
      20     H     0.45438  0.45438  0.00000  0.09123

   Total alpha = 32.00000, Total beta = 32.00000, Total charge =  0.00000

*** Psi4 exiting successfully. Buy a developer a beer!
