                              Psi4 1.0.54 Driver

  ==> Input File <==

--------------------------------------------------------------------------
set {
	reference rhf
	basis cc-pvtz
}

set_num_threads( 4 )
memory 2 gb

molecule MOL {
0 1

H	 2.747948	 0.076468	 -0.253713
N	 1.773676	 0.285480	 -0.257782
C	 1.195517	 0.057080	 1.051190
C	 1.090456	 -0.478079	 -1.282493
H	 1.716860	 0.665917	 1.779799
H	 1.277953	 -0.985413	 1.364291
C	 -0.272670	 0.441707	 1.027473
H	 1.535668	 -0.257029	 -2.244924
H	 1.166253	 -1.554383	 -1.116836
C	 -0.377594	 -0.092750	 -1.303152
H	 -0.354915	 1.520834	 0.868376
H	 -0.720948	 0.216492	 1.987912
N	 -0.976577	 -0.298712	 -0.000000
H	 -0.901739	 -0.704412	 -2.027901
H	 -0.467067	 0.949557	 -1.622810
C	 -2.391156	 -0.021003	 -0.000000
H	 -2.853954	 -0.458728	 -0.875714
H	 -2.853954	 -0.458728	 0.875714
H	 -2.614037	 1.049773	 -0.000000

	symmetry c1
}
set optking {
	frozen_dihedral = ("
		7 13 16 19
	")
}

ee,wfn = optimize('scf', return_wfn=True)
oeprop( wfn, 'DIPOLE', 'QUADRUPOLE', 'MULLIKEN_CHARGES')
f=open( 'psi4out.xyz', 'w' )
f.write( "19  " )
f.write( str(ee) + "\n" )
f.write( MOL.save_string_xyz() )
f.close()
--------------------------------------------------------------------------

    Molecular point group: c1
  Charge       = 0
  Multiplicity = 1
  Basis Set: CC-PVTZ
  Basis Set:
  @DF-RHF Final Energy:  -305.30835528549323
    Total Energy =                       -305.3083552854930076
    Molecular point group: c1
  Basis Set: CC-PVTZ
  Basis Set:
  Basis Set: CC-PVTZ
  Basis Set:
  @DF-RHF Final Energy:  -305.30843021980940
    Total Energy =                       -305.3084302198094520
  Basis Set: CC-PVTZ
  Basis Set:
  Basis Set: CC-PVTZ
  Basis Set:
  @DF-RHF Final Energy:  -305.30843480660593
    Total Energy =                       -305.3084348066064422
  Basis Set: CC-PVTZ
  Basis Set:
  Charge       = 0
  Multiplicity = 1
  Basis Set: CC-PVTZ
  Basis Set:

    Orbital Energies (a.u.)
    -----------------------

    Doubly Occupied:

       1A    -15.537006     2A    -15.531179     3A    -11.237287
       4A    -11.237215     5A    -11.235850     6A    -11.235822
       7A    -11.233202     8A     -1.249334     9A     -1.187783
      10A     -1.023799    11A     -0.965703    12A     -0.861513
      13A     -0.858415    14A     -0.758015    15A     -0.692805
      16A     -0.634716    17A     -0.627284    18A     -0.609797
      19A     -0.605167    20A     -0.581264    21A     -0.543629
      22A     -0.529381    23A     -0.512806    24A     -0.490429
      25A     -0.467313    26A     -0.458028    27A     -0.365974
      28A     -0.349196

  @DF-RHF Final Energy:  -305.30843521387754

   => Energetics <=

    Nuclear Repulsion Energy =            340.3303661345890418
    One-Electron Energy =               -1088.0377863589988010
    Two-Electron Energy =                 442.3989850105317601
    DFT Exchange-Correlation Energy =       0.0000000000000000
    Empirical Dispersion Energy =           0.0000000000000000
    PCM Polarization Energy =               0.0000000000000000
    EFP Energy =                            0.0000000000000000
    Total Energy =                       -305.3084352138780559
    Molecular point group: c1
  Basis Set: CC-PVTZ
  Basis Set:

  -Total Gradient:
     Atom            X                  Y                   Z
    ------   -----------------  -----------------  -----------------
       1       -0.000008372001    -0.000001563613    -0.000003996240
       2       -0.000004685508     0.000000580513     0.000002408237
       3        0.000004671968    -0.000019572223     0.000006112659
       4        0.000032592333     0.000009531629    -0.000010522173
       5       -0.000012291890    -0.000001343798    -0.000004297824
       6        0.000013196780    -0.000009024343     0.000004236042
       7        0.000324500585     0.001663555152    -0.001453248889
       8        0.000009188673    -0.000000689712    -0.000003305459
       9       -0.000006161506     0.000007128148     0.000001648575
      10       -0.000023236660    -0.000031913830     0.000054958741
      11       -0.000006168157     0.000020528574     0.000008171127
      12        0.000005841291     0.000003057421     0.000001662500
      13       -0.000472613888    -0.002254792711     0.002773367207
      14       -0.000006877142     0.000002022400    -0.000005411752
      15        0.000001932988    -0.000000356656     0.000005611284
      16        0.000136519785     0.000603488640    -0.004374568937
      17        0.000021834609    -0.000008490161     0.000006550481
      18       -0.000016258789    -0.000000146568     0.000020417402
      19        0.000006386528     0.000018001137     0.002970207017

  **** Optimization is complete! (in 4 steps) ****
    Final optimized geometry and variables:
    Molecular point group: c1

    Geometry (in Angstrom), charge = 0, multiplicity = 1:

    H            2.752098049665     0.089462138105    -0.137300317953
    N            1.778055088241     0.299820394852    -0.142882940204
    C            1.195324278034     0.066265662132     1.162912205619
    C            1.096340681844    -0.456462829291    -1.173717994284
    H            1.711470629633     0.674860949644     1.895554996718
    H            1.279050877444    -0.976693984295     1.474228380079
    C           -0.273506832798     0.447578192182     1.132648156875
    H            1.542852586171    -0.228979139845    -2.134168355603
    H            1.171805000167    -1.533990828346    -1.015425591541
    C           -0.372482103436    -0.072950943038    -1.194768720509
    H           -0.358385955351     1.525325176266     0.967543131870
    H           -0.724802058163     0.226707535090     2.093244033026
    N           -0.975154713911    -0.296556096558     0.105597612496
    H           -0.891541377016    -0.678229427836    -1.928142342886
    H           -0.461993411108     0.972602716056    -1.503610753593
    C           -2.389709307763    -0.009095380066     0.110406796714
    H           -2.866513201258    -0.459859146634    -0.749721499041
    H           -2.846654524658    -0.425630057364     1.001006089690
    H           -2.604088798084     1.062754243967     0.108574401635

  Mulliken Charges: (a.u.)
   Center  Symbol    Alpha    Beta     Spin     Total
       1     H     0.43998  0.43998  0.00000  0.12004
       2     N     3.64290  3.64290  0.00000 -0.28580
       3     C     3.04051  3.04051  0.00000 -0.08101
       4     C     3.04124  3.04124  0.00000 -0.08247
       5     H     0.45245  0.45245  0.00000  0.09510
       6     H     0.46524  0.46524  0.00000  0.06951
       7     C     3.03567  3.03567  0.00000 -0.07134
       8     H     0.45246  0.45246  0.00000  0.09509
       9     H     0.46537  0.46537  0.00000  0.06926
      10     C     3.03364  3.03364  0.00000 -0.06728
      11     H     0.46742  0.46742  0.00000  0.06516
      12     H     0.45416  0.45416  0.00000  0.09167
      13     N     3.61500  3.61500  0.00000 -0.23001
      14     H     0.45391  0.45391  0.00000  0.09218
      15     H     0.46903  0.46903  0.00000  0.06194
      16     C     3.09689  3.09689  0.00000 -0.19378
      17     H     0.45292  0.45292  0.00000  0.09417
      18     H     0.45149  0.45149  0.00000  0.09703
      19     H     0.46972  0.46972  0.00000  0.06056

   Total alpha = 28.00000, Total beta = 28.00000, Total charge =  0.00000

*** Psi4 exiting successfully. Buy a developer a beer!
