                              Psi4 1.0.54 Driver

  ==> Input File <==

--------------------------------------------------------------------------
set {
	reference rhf
	basis cc-pvtz
}

set_num_threads( 4 )
memory 2 gb

molecule MOL {
0 1

O	 3.219313	 0.959291	 -0.614106
C	 2.698710	 0.058177	 -0.050237
C	 1.246364	 -0.005813	 0.348416
O	 3.344101	 -1.038700	 0.312317
C	 0.453207	 1.232821	 -0.049003
H	 0.839270	 -0.907818	 -0.092281
H	 1.216683	 -0.160521	 1.422434
C	 -0.998367	 1.217982	 0.432195
H	 0.481498	 1.345443	 -1.127236
H	 0.951413	 2.105557	 0.354893
C	 -1.882951	 0.151251	 -0.211235
H	 -1.429490	 2.193659	 0.228843
H	 -1.019755	 1.099323	 1.513279
C	 -3.342450	 0.243269	 0.226009
H	 -1.826223	 0.246578	 -1.293162
H	 -1.508033	 -0.839650	 0.027695
C	 -4.234517	 -0.821434	 -0.405970
H	 -3.730149	 1.228245	 -0.022691
H	 -3.398860	 0.159952	 1.308941
C	 -4.866874	 -1.758724	 0.617451
H	 -5.017967	 -0.336884	 -0.982283
H	 -3.651764	 -1.403581	 -1.114744
H	 -5.492804	 -2.501475	 0.136290
H	 -5.485347	 -1.210564	 1.320388
H	 -4.108322	 -2.284879	 1.187510
C	 4.720529	 -1.114346	 0.001449
H	 4.874321	 -1.055557	 -1.065852
H	 5.057824	 -2.067950	 0.373977
H	 5.264321	 -0.313596	 0.480350

	symmetry c1
}
set optking {
	frozen_dihedral = ("
		21 17 14 11
	")
}

ee,wfn = optimize('scf', return_wfn=True)
oeprop( wfn, 'DIPOLE', 'QUADRUPOLE', 'MULLIKEN_CHARGES')
f=open( 'psi4out.xyz', 'w' )
f.write( "29  " )
f.write( str(ee) + "\n" )
f.write( MOL.save_string_xyz() )
f.close()
--------------------------------------------------------------------------

    Molecular point group: c1
  Charge       = 0
  Multiplicity = 1
  Basis Set: CC-PVTZ
  Basis Set:
  @DF-RHF Final Energy:  -501.21906891011372
    Total Energy =                       -501.2190689101137195
    Molecular point group: c1
  Basis Set: CC-PVTZ
  Basis Set:
  Basis Set: CC-PVTZ
  Basis Set:
  @DF-RHF Final Energy:  -501.21930837151319
    Total Energy =                       -501.2193083715125113
  Basis Set: CC-PVTZ
  Basis Set:
  Basis Set: CC-PVTZ
  Basis Set:
  @DF-RHF Final Energy:  -501.21936488988297
    Total Energy =                       -501.2193648898826268
  Basis Set: CC-PVTZ
  Basis Set:
  Basis Set: CC-PVTZ
  Basis Set:
  @DF-RHF Final Energy:  -501.21915353548036
    Total Energy =                       -501.2191535354797907
  Basis Set: CC-PVTZ
  Basis Set:
  Basis Set: CC-PVTZ
  Basis Set:
  @DF-RHF Final Energy:  -501.21937394381132
    Total Energy =                       -501.2193739438108651
  Basis Set: CC-PVTZ
  Basis Set:
  Charge       = 0
  Multiplicity = 1
  Basis Set: CC-PVTZ
  Basis Set:

    Orbital Energies (a.u.)
    -----------------------

    Doubly Occupied:

       1A    -20.596051     2A    -20.533898     3A    -11.364309
       4A    -11.278290     5A    -11.233008     6A    -11.217116
       7A    -11.215393     8A    -11.214233     9A    -11.213649
      10A    -11.212074    11A    -11.207889    12A     -1.471923
      13A     -1.365536    14A     -1.098750    15A     -1.066303
      16A     -1.020030    17A     -0.978008    18A     -0.928897
      19A     -0.863486    20A     -0.801245    21A     -0.789992
      22A     -0.765871    23A     -0.703009    24A     -0.685543
      25A     -0.676016    26A     -0.646422    27A     -0.626224
      28A     -0.609864    29A     -0.596786    30A     -0.586415
      31A     -0.563720    32A     -0.553355    33A     -0.533599
      34A     -0.530728    35A     -0.518979    36A     -0.506948
      37A     -0.501840    38A     -0.476271    39A     -0.472851
      40A     -0.462869    41A     -0.459237    42A     -0.453794
      43A     -0.443191    44A     -0.436688

  @DF-RHF Final Energy:  -501.21937403773097

   => Energetics <=

    Nuclear Repulsion Energy =            613.4469833194190187
    One-Electron Energy =               -1898.3721070018134469
    Two-Electron Energy =                 783.7057496446639107
    DFT Exchange-Correlation Energy =       0.0000000000000000
    Empirical Dispersion Energy =           0.0000000000000000
    PCM Polarization Energy =               0.0000000000000000
    EFP Energy =                            0.0000000000000000
    Total Energy =                       -501.2193740377304039
    Molecular point group: c1
  Basis Set: CC-PVTZ
  Basis Set:

  -Total Gradient:
     Atom            X                  Y                   Z
    ------   -----------------  -----------------  -----------------
       1       -0.000028005979     0.000054286142    -0.000014689067
       2        0.000016667381    -0.000007115915    -0.000001520199
       3        0.000028834813    -0.000005139250    -0.000001524493
       4       -0.000012892153    -0.000049149648     0.000028125252
       5        0.000004330250    -0.000003119820    -0.000002332198
       6        0.000015745757     0.000011075897    -0.000000270699
       7        0.000003718729    -0.000001372033     0.000003409409
       8        0.000014651015    -0.000019130870     0.000036634520
       9       -0.000004631200    -0.000006647582     0.000002905260
      10        0.000009559665     0.000006426398    -0.000005226508
      11       -0.000092295530     0.000183076892    -0.000236800050
      12        0.000011945182    -0.000002195132     0.000000035101
      13        0.000006353826     0.000008752905     0.000011218110
      14        0.000114730540    -0.000254054208     0.000175636431
      15       -0.000007761234     0.000006341406    -0.000017091731
      16       -0.000020372920    -0.000002058244    -0.000007487384
      17       -0.000265259137     0.000077083149     0.000328338954
      18        0.000000435965    -0.000004933077    -0.000012390346
      19       -0.000004104549     0.000002312159     0.000006026779
      20       -0.000006660007    -0.000003654318     0.000001197829
      21        0.000214627637    -0.000002182133    -0.000285171058
      22        0.000005545392    -0.000003219012     0.000004530741
      23       -0.000000432234    -0.000001200891    -0.000006592944
      24        0.000003166707     0.000000879162    -0.000003087140
      25        0.000000582973     0.000006777114    -0.000001554338
      26       -0.000004181844     0.000017534482    -0.000008552828
      27        0.000003848817    -0.000002766618     0.000002688064
      28       -0.000010487527    -0.000002359049     0.000004078571
      29        0.000002339667    -0.000004247908    -0.000000534038

  **** Optimization is complete! (in 6 steps) ****
    Final optimized geometry and variables:
    Molecular point group: c1

    Geometry (in Angstrom), charge = 0, multiplicity = 1:

    O            3.144939313231     1.058369442108    -0.665129829414
    C            2.623324527408     0.156135760575    -0.103971802360
    C            1.170656207079     0.092179332968     0.293530482830
    O            3.267546640751    -0.942364299666     0.255816316000
    C            0.378943447018     1.332967575575    -0.100115463435
    H            0.762994319136    -0.807879823440    -0.150652165092
    H            1.140060547631    -0.066323717798     1.366964989612
    C           -1.072884792896     1.318138173331     0.380640412999
    H            0.407658804784     1.449079885116    -1.177955886514
    H            0.878045796765     2.203835298752     0.306716088664
    C           -1.959568081848     0.257822133375    -0.269287256238
    H           -1.502003996613     2.295985080652     0.183118311676
    H           -1.094949541517     1.193193949866     1.461052029535
    C           -3.420875633590     0.351350805409     0.166131272414
    H           -1.902558286771     0.357683301047    -1.350764781152
    H           -1.589218625183    -0.736411305616    -0.035367944178
    C           -4.324706003163    -0.728595859469    -0.463712232464
    H           -3.796573443095     1.338697935046    -0.082619847748
    H           -3.469453681853     0.279684255255     1.248911427667
    C           -4.956237256834    -1.668901834527     0.558861587160
    H           -5.110723451433    -0.258710316608    -1.044689021451
    H           -3.747383076098    -1.316436114622    -1.170433149833
    H           -5.569955342631    -2.421241691635     0.076292114218
    H           -5.585462867413    -1.123542503205     1.254271009370
    H           -4.195738705831    -2.183007547520     1.137896200688
    C            4.644078463940    -1.018383703398    -0.054534564936
    H            4.798528558990    -0.956685010909    -1.121576557972
    H            4.980284581664    -1.973376675453     0.315434901472
    H            5.188381298588    -0.219541263572     0.426966804001

  Mulliken Charges: (a.u.)
   Center  Symbol    Alpha    Beta     Spin     Total
       1     O     4.19696  4.19696  0.00000 -0.39392
       2     C     2.80480  2.80480  0.00000  0.39039
       3     C     3.10167  3.10167  0.00000 -0.20334
       4     O     4.14721  4.14721  0.00000 -0.29442
       5     C     3.09249  3.09249  0.00000 -0.18499
       6     H     0.43917  0.43917  0.00000  0.12166
       7     H     0.43995  0.43995  0.00000  0.12009
       8     C     3.10478  3.10478  0.00000 -0.20955
       9     H     0.44626  0.44626  0.00000  0.10749
      10     H     0.43959  0.43959  0.00000  0.12082
      11     C     3.09328  3.09328  0.00000 -0.18655
      12     H     0.44536  0.44536  0.00000  0.10929
      13     H     0.45331  0.45331  0.00000  0.09337
      14     C     3.09466  3.09466  0.00000 -0.18932
      15     H     0.45181  0.45181  0.00000  0.09639
      16     H     0.45343  0.45343  0.00000  0.09314
      17     C     3.09008  3.09008  0.00000 -0.18015
      18     H     0.44817  0.44817  0.00000  0.10366
      19     H     0.45458  0.45458  0.00000  0.09084
      20     C     3.14697  3.14697  0.00000 -0.29395
      21     H     0.44908  0.44908  0.00000  0.10184
      22     H     0.45449  0.45449  0.00000  0.09102
      23     H     0.44951  0.44951  0.00000  0.10098
      24     H     0.45447  0.45447  0.00000  0.09107
      25     H     0.45596  0.45596  0.00000  0.08809
      26     C     3.03812  3.03812  0.00000 -0.07624
      27     H     0.45435  0.45435  0.00000  0.09130
      28     H     0.44527  0.44527  0.00000  0.10945
      29     H     0.45423  0.45423  0.00000  0.09155

   Total alpha = 44.00000, Total beta = 44.00000, Total charge =  0.00000

*** Psi4 exiting successfully. Buy a developer a beer!
