  ==> Input File <==

--------------------------------------------------------------------------
set {
	reference rhf
	basis cc-pvtz
}

set_num_threads( 4 )
memory 2 gb

molecule MOL {
0 1

H	 -2.644180	 -0.653737	 1.272255
C	 -2.092774	 -0.380414	 0.391915
O	 -0.808934	 -0.154049	 0.752536
F	 -2.163230	 -1.351640	 -0.507133
F	 -2.627232	 0.691260	 -0.169301
C	 0.085006	 0.250800	 -0.215074
C	 1.370439	 -0.548013	 -0.012993
Cl	 0.421658	 1.987697	 -0.091007
H	 -0.272219	 0.063284	 -1.212508
F	 1.126421	 -1.647889	 0.653154
F	 2.214064	 0.170913	 0.688974
F	 1.941488	 -0.861048	 -1.143552

	symmetry c1
}
set optking {
	frozen_dihedral = ("
		10 7 6 9
	")
}

ee = optimize('scf')
oeprop('DIPOLE', 'QUADRUPOLE', 'MULLIKEN_CHARGES')
f=open( 'psi4out.xyz', 'w' )
f.write( "12  " )
f.write( str(ee) + "\n" )
f.write( MOL.save_string_xyz() )
f.close()
--------------------------------------------------------------------------

    Molecular point group: c1
  Charge       = 0
  Multiplicity = 1
  Basis Set: CC-PVTZ
  Basis Set:
  @DF-RHF Final Energy: -1146.61073416324689
    Total Energy =                      -1146.6107341632468888
    Molecular point group: c1
  Basis Set: CC-PVTZ
  Basis Set:
  Basis Set: CC-PVTZ
  Basis Set:
  @DF-RHF Final Energy: -1146.61194322142615
    Total Energy =                      -1146.6119432214263725
  Basis Set: CC-PVTZ
  Basis Set:
  Basis Set: CC-PVTZ
  Basis Set:
  @DF-RHF Final Energy: -1146.61356418327250
    Total Energy =                      -1146.6135641832722740
  Basis Set: CC-PVTZ
  Basis Set:
  Basis Set: CC-PVTZ
  Basis Set:
  @DF-RHF Final Energy: -1146.61367878388228
    Total Energy =                      -1146.6136787838827331
  Basis Set: CC-PVTZ
  Basis Set:
  @DF-RHF Final Energy: -1146.61369733864376
    Total Energy =                      -1146.6136973386428508
  Basis Set: CC-PVTZ
  Basis Set:
  @DF-RHF Final Energy: -1146.61370743606517
    Total Energy =                      -1146.6137074360656243
  Basis Set: CC-PVTZ
  Basis Set:
  Basis Set: CC-PVTZ
  Basis Set:
  @DF-RHF Final Energy: -1146.61371803361408
    Total Energy =                      -1146.6137180336149868
  Basis Set: CC-PVTZ
  Basis Set:
  Basis Set: CC-PVTZ
  Basis Set:
  @DF-RHF Final Energy: -1146.61372265807177
    Total Energy =                      -1146.6137226580719926
  Basis Set: CC-PVTZ
  Basis Set:
  Charge       = 0
  Multiplicity = 1
  Basis Set: CC-PVTZ
  Basis Set:

    Orbital Energies (a.u.)
    -----------------------

    Doubly Occupied:

       1A   -104.854549     2A    -26.356390     3A    -26.353332
       4A    -26.350754     5A    -26.344040     6A    -26.343850
       7A    -20.640912     8A    -11.522006     9A    -11.484754
      10A    -11.402046    11A    -10.580134    12A     -8.046905
      13A     -8.044947    14A     -8.044847    15A     -1.768327
      16A     -1.725527    17A     -1.663800    18A     -1.659528
      19A     -1.645506    20A     -1.488347    21A     -1.175215
      22A     -1.048792    23A     -0.992294    24A     -0.924424
      25A     -0.863517    26A     -0.859925    27A     -0.850773
      28A     -0.831812    29A     -0.820459    30A     -0.795609
      31A     -0.735501    32A     -0.732353    33A     -0.711718
      34A     -0.708795    35A     -0.683953    36A     -0.682016
      37A     -0.665564    38A     -0.662901    39A     -0.650160
      40A     -0.635662    41A     -0.599224    42A     -0.579234
      43A     -0.523489    44A     -0.477115    45A     -0.467634

  @DF-RHF Final Energy: -1146.61372230819370

   => Energetics <=

    Nuclear Repulsion Energy =            736.3545577713775856
    One-Electron Energy =               -3055.9392808682723626
    Two-Electron Energy =                1172.9710007887010761
    DFT Exchange-Correlation Energy =       0.0000000000000000
    Empirical Dispersion Energy =           0.0000000000000000
    PCM Polarization Energy =               0.0000000000000000
    EFP Energy =                            0.0000000000000000
    Total Energy =                      -1146.6137223081937009
    Molecular point group: c1
  Basis Set: CC-PVTZ
  Basis Set:

  -Total Gradient:
     Atom            X                  Y                   Z
    ------   -----------------  -----------------  -----------------
       1       -0.000022735445    -0.000008113555     0.000018995019
       2       -0.000280202010    -0.000058054750     0.000248237382
       3        0.000008923967    -0.000052811401    -0.000173488238
       4        0.000104110959     0.000149181349    -0.000034664009
       5        0.000157471378    -0.000062387478    -0.000058693393
       6       -0.004184881063    -0.005731686441     0.004324867702
       7       -0.000514675729    -0.002432364771    -0.007474371026
       8       -0.000017101630     0.000005421002    -0.000083244006
       9        0.003797705309     0.005455294324    -0.002085491212
      10        0.000992419239     0.002699354775     0.005402197272
      11       -0.000212258971    -0.000094241176     0.000058278684
      12        0.000171223994     0.000130408126    -0.000142624176

  **** Optimization is complete! (in 9 steps) ****
    Final optimized geometry and variables:
    Molecular point group: c1

    Geometry (in Angstrom), charge = 0, multiplicity = 1:

    H           -2.684355599934    -0.607024439904     1.257961104683
    C           -2.101680418500    -0.383503671922     0.383774660899
    O           -0.848649800987    -0.066200150525     0.780670968813
    F           -2.083559876480    -1.429223008982    -0.430706391442
    F           -2.652870948638     0.610429887593    -0.293167779237
    C            0.068079857716     0.285887184508    -0.180243419396
    C            1.362073129653    -0.546390743626    -0.007587943566
    CL           0.427903613596     2.025143498677    -0.087513663112
    H           -0.276577079984     0.139932228675    -1.187547127562
    F            1.102625613269    -1.671249339103     0.606598091458
    F            2.283613703967     0.066422023067     0.685321867584
    F            1.858298100608    -0.816612133104    -1.191719130980

  Mulliken Charges: (a.u.)
   Center  Symbol    Alpha    Beta     Spin     Total
       1     H     0.45141  0.45141  0.00000  0.09718
       2     C     2.73806  2.73806  0.00000  0.52389
       3     O     4.15108  4.15108  0.00000 -0.30216
       4     F     4.61816  4.61816  0.00000 -0.23633
       5     F     4.61550  4.61550  0.00000 -0.23100
       6     C     2.95445  2.95445  0.00000  0.09110
       7     C     2.66388  2.66388  0.00000  0.67223
       8    CL     8.57238  8.57238  0.00000 -0.14475
       9     H     0.43237  0.43237  0.00000  0.13525
      10     F     4.59991  4.59991  0.00000 -0.19982
      11     F     4.59755  4.59755  0.00000 -0.19510
      12     F     4.60525  4.60525  0.00000 -0.21050

   Total alpha = 45.00000, Total beta = 45.00000, Total charge =  0.00000
