  ==> Input File <==

--------------------------------------------------------------------------
set {
	reference rhf
	basis 6-31G*
}

set_num_threads( 4 )
memory 2 gb

molecule MOL {
0 1

H	 -1.070890	 -1.366565	 0.180696
O	 -1.422729	 -0.573567	 -0.196946
C	 -0.731407	 0.539437	 0.309156
C	 0.680193	 0.672443	 -0.251532
H	 -1.319765	 1.404033	 0.030086
H	 -0.700012	 0.506517	 1.397677
C	 0.911378	 -0.136082	 -1.528460
H	 0.878772	 1.722940	 -0.443024
H	 1.382630	 0.349981	 0.514066
H	 0.274993	 0.209745	 -2.337542
H	 1.937920	 -0.044461	 -1.867258
H	 0.710829	 -1.192767	 -1.368899

	symmetry c1
}
set optking {
	frozen_dihedral = ("
		8 4 3 2
	")
}

ee = optimize('scf')
oeprop('DIPOLE', 'QUADRUPOLE', 'MULLIKEN_CHARGES')
f=open( 'psi4out.xyz', 'w' )
f.write( "12  " )
f.write( str(ee) + "\n" )
f.write( MOL.save_string_xyz() )
f.close()
--------------------------------------------------------------------------

    Molecular point group: c1
  Charge       = 0
  Multiplicity = 1
  Basis Set: 6-31G*
  Basis Set:
  @DF-RHF Final Energy:  -193.10305599118036
    Total Energy =                       -193.1030559911803834
    Molecular point group: c1
  Basis Set: 6-31G*
  Basis Set:
  Basis Set: 6-31G*
  Basis Set:
  @DF-RHF Final Energy:  -193.10381017370690
    Total Energy =                       -193.1038101737068189
  Basis Set: 6-31G*
  Basis Set:
  Basis Set: 6-31G*
  Basis Set:
  @DF-RHF Final Energy:  -193.10431314829671
    Total Energy =                       -193.1043131482967965
  Basis Set: 6-31G*
  Basis Set:
  Basis Set: 6-31G*
  Basis Set:
  @DF-RHF Final Energy:  -193.10432881550980
    Total Energy =                       -193.1043288155096320
  Basis Set: 6-31G*
  Basis Set:
  Basis Set: 6-31G*
  Basis Set:
  @DF-RHF Final Energy:  -193.10434103004263
    Total Energy =                       -193.1043410300426899
  Basis Set: 6-31G*
  Basis Set:
  Charge       = 0
  Multiplicity = 1
  Basis Set: 6-31G*
  Basis Set:

    Orbital Energies (a.u.)
    -----------------------

    Doubly Occupied:

       1A    -20.554485     2A    -11.268450     3A    -11.218871
       4A    -11.208624     5A     -1.360582     6A     -1.044146
       7A     -0.923625     8A     -0.808159     9A     -0.685483
      10A     -0.632775    11A     -0.624954    12A     -0.571661
      13A     -0.526417    14A     -0.509496    15A     -0.489233
      16A     -0.460341    17A     -0.431300

  @DF-RHF Final Energy:  -193.10434152533136

   => Energetics <=

    Nuclear Repulsion Energy =            133.4164082893186389
    One-Electron Energy =                -526.4042934357825061
    Two-Electron Energy =                 199.8835436211325032
    DFT Exchange-Correlation Energy =       0.0000000000000000
    Empirical Dispersion Energy =           0.0000000000000000
    PCM Polarization Energy =               0.0000000000000000
    EFP Energy =                            0.0000000000000000
    Total Energy =                       -193.1043415253313924
    Molecular point group: c1
  Basis Set: 6-31G*
  Basis Set:

  -Total Gradient:
     Atom            X                  Y                   Z
    ------   -----------------  -----------------  -----------------
       1       -0.000007100750    -0.000013696698    -0.000007445861
       2       -0.001478404536     0.002427063764    -0.003459193344
       3        0.001601057800    -0.003515942643     0.003621614213
       4        0.001779038343     0.001716242044     0.005026751630
       5        0.000010651156     0.000022879329     0.000014574226
       6        0.000018862020     0.000002638739    -0.000010821457
       7       -0.000012963037     0.000018525811    -0.000004932851
       8       -0.001915362502    -0.000655349035    -0.005189967811
       9        0.000010765553     0.000005955412     0.000011648815
      10        0.000002183204    -0.000000250840    -0.000011940405
      11       -0.000008659959    -0.000005377877     0.000003864623
      12       -0.000000067289    -0.000002688005     0.000005848222

  **** Optimization is complete! (in 6 steps) ****
    Final optimized geometry and variables:
    Molecular point group: c1

    Geometry (in Angstrom), charge = 0, multiplicity = 1:

    H           -0.941748247084    -1.451176498458     0.605206245103
    O           -1.289739480341    -0.651664065893     0.235649049221
    C           -0.562071014807     0.451069264921     0.711900349561
    C            0.878769427856     0.554435503164     0.170154453897
    H           -1.130027157370     1.311560543054     0.383312046978
    H           -0.559658869972     0.468779169451     1.799154695283
    C            1.104365383018    -0.214797832707    -1.134259495531
    H            1.085452892726     1.601096889437    -0.035117236787
    H            1.596367643009     0.222054100650     0.915566075659
    H            0.402161392264     0.095944081918    -1.899756817059
    H            2.109346624051    -0.036467658640    -1.503947131803
    H            0.986844047899    -1.284221019268    -1.001381233074

  Mulliken Charges: (a.u.)
   Center  Symbol    Alpha    Beta     Spin     Total
       1     H     0.28281  0.28281  0.00000  0.43437
       2     O     4.36757  4.36757  0.00000 -0.73514
       3     C     2.99462  2.99462  0.00000  0.01076
       4     C     3.18099  3.18099  0.00000 -0.36198
       5     H     0.41519  0.41519  0.00000  0.16962
       6     H     0.42784  0.42784  0.00000  0.14432
       7     C     3.22974  3.22974  0.00000 -0.45949
       8     H     0.41785  0.41785  0.00000  0.16430
       9     H     0.42188  0.42188  0.00000  0.15625
      10     H     0.41420  0.41420  0.00000  0.17161
      11     H     0.42223  0.42223  0.00000  0.15555
      12     H     0.42508  0.42508  0.00000  0.14984

   Total alpha = 17.00000, Total beta = 17.00000, Total charge =  0.00000
