  ==> Input File <==

--------------------------------------------------------------------------
set {
	reference rhf
	basis 6-31G*
}

set_num_threads( 4 )
memory 2 gb

molecule MOL {
0 1

H	 -3.892951	 0.981613	 -0.358725
C	 -3.196921	 0.361773	 0.172313
C	 -2.076860	 -0.007332	 -0.404944
H	 -3.439953	 0.057760	 1.173024
O	 -1.974751	 -0.152153	 -1.752335
H	 -1.173484	 -0.197140	 0.147397
C	 -0.815672	 -0.712322	 -2.266724
C	 -0.891383	 -2.222091	 -2.300759
H	 0.064867	 -0.431131	 -1.699912
H	 -0.703918	 -0.363408	 -3.282724
F	 0.220983	 -2.707352	 -2.832709
F	 -1.013137	 -2.734836	 -1.087458
F	 -1.906714	 -2.650626	 -3.021765

	symmetry c1
}
set optking {
	frozen_dihedral = ("
		6 3 2 1
	")
}

ee = optimize('scf')
oeprop('DIPOLE', 'QUADRUPOLE', 'MULLIKEN_CHARGES')
f=open( 'psi4out.xyz', 'w' )
f.write( "13  " )
f.write( str(ee) + "\n" )
f.write( MOL.save_string_xyz() )
f.close()
--------------------------------------------------------------------------

    Molecular point group: c1
  Charge       = 0
  Multiplicity = 1
  Basis Set: 6-31G*
  Basis Set:
  @DF-RHF Final Energy:  -527.51528755784295
    Total Energy =                       -527.5152875578426119
    Molecular point group: c1
  Basis Set: 6-31G*
  Basis Set:
  Basis Set: 6-31G*
  Basis Set:
  @DF-RHF Final Energy:  -527.52625029018236
    Total Energy =                       -527.5262502901825883
  Basis Set: 6-31G*
  Basis Set:
  Basis Set: 6-31G*
  Basis Set:
  @DF-RHF Final Energy:  -527.52746205563528
    Total Energy =                       -527.5274620556353966
  Basis Set: 6-31G*
  Basis Set:
  Basis Set: 6-31G*
  Basis Set:
  @DF-RHF Final Energy:  -527.52754094287116
    Total Energy =                       -527.5275409428709281
  Basis Set: 6-31G*
  Basis Set:
  @DF-RHF Final Energy:  -527.52754706192968
    Total Energy =                       -527.5275470619301359
  @DF-RHF Final Energy:  -527.52755017285472
    Total Energy =                       -527.5275501728549443
  @DF-RHF Final Energy:  -527.52755174663434
    Total Energy =                       -527.5275517466344581
  @DF-RHF Final Energy:  -527.52755240556053
    Total Energy =                       -527.5275524055603000
  @DF-RHF Final Energy:  -527.47647041627215
    Total Energy =                       -527.4764704162719227
  @DF-RHF Final Energy:  -527.40427646927355
    Total Energy =                       -527.4042764692737819
  @DF-RHF Final Energy:  -527.42262684063689
    Total Energy =                       -527.4226268406371219
  @DF-RHF Final Energy:  -527.45245708812763
    Total Energy =                       -527.4524570881274030
  @DF-RHF Final Energy:  -527.48120040348999
    Total Energy =                       -527.4812004034898791
  @DF-RHF Final Energy:  -527.51190777628995
    Total Energy =                       -527.5119077762900588
  @DF-RHF Final Energy:  -527.52568649405850
    Total Energy =                       -527.5256864940586183
  @DF-RHF Final Energy:  -527.52674809530936
    Total Energy =                       -527.5267480953092445
  @DF-RHF Final Energy:  -527.52699653048421
    Total Energy =                       -527.5269965304844391
  @DF-RHF Final Energy:  -527.52719262211997
    Total Energy =                       -527.5271926221198555
  @DF-RHF Final Energy:  -527.52740048036549
    Total Energy =                       -527.5274004803652588
  @DF-RHF Final Energy:  -527.52749525257957
    Total Energy =                       -527.5274952525793424
  @DF-RHF Final Energy:  -527.52753927622712
    Total Energy =                       -527.5275392762270030
  Basis Set: 6-31G*
  Basis Set:
  @DF-RHF Final Energy:  -527.52755021348776
    Total Energy =                       -527.5275502134879844
  Basis Set: 6-31G*
  Basis Set:
  Basis Set: 6-31G*
  Basis Set:
  @DF-RHF Final Energy:  -527.52755328791068
    Total Energy =                       -527.5275532879105640
  Basis Set: 6-31G*
  Basis Set:
  Basis Set: 6-31G*
  Basis Set:
  @DF-RHF Final Energy:  -527.52755532501624
    Total Energy =                       -527.5275553250161238
  Basis Set: 6-31G*
  Basis Set:
  Charge       = 0
  Multiplicity = 1
  Basis Set: 6-31G*
  Basis Set:

    Orbital Energies (a.u.)
    -----------------------

    Doubly Occupied:

       1A    -26.343916     2A    -26.342623     3A    -26.339700
       4A    -20.607469     5A    -11.502378     6A    -11.318623
       7A    -11.301259     8A    -11.216669     9A     -1.740909
      10A     -1.639038    11A     -1.637365    12A     -1.437284
      13A     -1.084348    14A     -1.016166    15A     -0.924515
      16A     -0.836055    17A     -0.830117    18A     -0.820610
      19A     -0.792384    20A     -0.720053    21A     -0.710682
      22A     -0.694758    23A     -0.675385    24A     -0.659936
      25A     -0.653925    26A     -0.642224    27A     -0.634753
      28A     -0.583592    29A     -0.562068    30A     -0.527163
      31A     -0.510410    32A     -0.349331

  @DF-RHF Final Energy:  -527.52755582251052

   => Energetics <=

    Nuclear Repulsion Energy =            413.0989119285545144
    One-Electron Energy =               -1549.9415195599237904
    Two-Electron Energy =                 609.3150518088589251
    DFT Exchange-Correlation Energy =       0.0000000000000000
    Empirical Dispersion Energy =           0.0000000000000000
    PCM Polarization Energy =               0.0000000000000000
    EFP Energy =                            0.0000000000000000
    Total Energy =                       -527.5275558225102941
    Molecular point group: c1
  Basis Set: 6-31G*
  Basis Set:

  -Total Gradient:
     Atom            X                  Y                   Z
    ------   -----------------  -----------------  -----------------
       1        0.007442516288     0.016038739525     0.003453283441
       2       -0.008962815722    -0.015268828027    -0.007241084447
       3       -0.002052944598    -0.018134129381     0.008900569070
       4       -0.000042505689     0.000007050305    -0.000004738053
       5       -0.000118898558     0.000157814329    -0.000040358359
       6        0.003678599287     0.017244816961    -0.005029453163
       7        0.000062795610    -0.000039683506    -0.000048498634
       8        0.000133551958    -0.000003767996    -0.000090042786
       9       -0.000017912408    -0.000003595369     0.000004541341
      10        0.000002232310     0.000012126693     0.000005364232
      11       -0.000092380685     0.000026321794     0.000039795847
      12       -0.000010087670    -0.000037674383     0.000058697960
      13       -0.000022150118     0.000000809050    -0.000008076448

  **** Optimization is complete! (in 25 steps) ****
    Final optimized geometry and variables:
    Molecular point group: c1

    Geometry (in Angstrom), charge = 0, multiplicity = 1:

    H           -2.611609745581     2.294592411034     1.376647735769
    C           -1.840392392152     1.813222662842     1.948318798245
    C           -0.713511135885     1.410833639498     1.402841792334
    H           -1.883452279260     1.926136546192     3.015414899516
    O           -0.578810103220     1.321843492793     0.051057419555
    H            0.217756953422     1.368980730039     1.940182371878
    C            0.591385026488     0.781487580256    -0.459073596531
    C            0.513282559528    -0.725229808811    -0.559699760610
    H            1.459433174946     1.034454959004     0.139665823567
    H            0.728810163397     1.173441449791    -1.456067098611
    F            1.637446796907    -1.190285263037    -1.085098727494
    F            0.360792607916    -1.289502860833     0.626505425030
    F           -0.484730198007    -1.118680889597    -1.323682730879

  Mulliken Charges: (a.u.)
   Center  Symbol    Alpha    Beta     Spin     Total
       1     H     0.40127  0.40127  0.00000  0.19747
       2     C     3.23170  3.23170  0.00000 -0.46340
       3     C     2.89759  2.89759  0.00000  0.20482
       4     H     0.40998  0.40998  0.00000  0.18003
       5     O     4.30050  4.30050  0.00000 -0.60101
       6     H     0.40694  0.40694  0.00000  0.18612
       7     C     3.06350  3.06350  0.00000 -0.12700
       8     C     2.45531  2.45531  0.00000  1.08938
       9     H     0.40656  0.40656  0.00000  0.18687
      10     H     0.38997  0.38997  0.00000  0.22005
      11     F     4.68303  4.68303  0.00000 -0.36606
      12     F     4.67912  4.67912  0.00000 -0.35825
      13     F     4.67451  4.67451  0.00000 -0.34902

   Total alpha = 32.00000, Total beta = 32.00000, Total charge = -0.00000
