                              Psi4 1.0.54 Driver

  ==> Input File <==

--------------------------------------------------------------------------
set {
	reference rhf
	basis cc-pvtz
}

set_num_threads( 4 )
memory 2 gb

molecule MOL {
0 1

H	 3.589742	 -3.157298	 -1.624778
C	 3.313628	 -2.200300	 -2.052309
C	 1.959149	 -1.733423	 -1.530068
H	 4.092810	 -1.488832	 -1.801502
H	 3.301934	 -2.311251	 -3.131824
C	 1.531764	 -0.391311	 -2.120024
H	 1.999556	 -1.656882	 -0.449583
H	 1.206633	 -2.483097	 -1.763588
C	 0.176369	 0.098405	 -1.620055
H	 2.281454	 0.357727	 -1.897008
H	 1.484461	 -0.479036	 -3.201620
C	 0.166485	 0.574257	 -0.177158
H	 -0.154083	 0.943379	 -2.218875
H	 -0.584210	 -0.666518	 -1.746273
C	 -1.180025	 0.697761	 0.509157
O	 1.169856	 0.860791	 0.392420
C	 -2.285431	 -0.137488	 -0.145671
H	 -1.447360	 1.745713	 0.496200
H	 -1.065514	 0.394096	 1.546399
C	 -3.646545	 0.082747	 0.508954
H	 -2.348635	 0.118247	 -1.199806
H	 -2.034895	 -1.192387	 -0.096473
C	 -4.757412	 -0.737227	 -0.138149
H	 -3.900211	 1.137405	 0.459735
H	 -3.580878	 -0.166775	 1.564416
H	 -4.867876	 -0.486707	 -1.187777
H	 -4.549650	 -1.800049	 -0.072540
H	 -5.709585	 -0.556397	 0.346597

	symmetry c1
}
set optking {
	frozen_dihedral = ("
		16 12 15 17
	")
}

ee,wfn = optimize('scf', return_wfn=True)
oeprop( wfn, 'DIPOLE', 'QUADRUPOLE', 'MULLIKEN_CHARGES')
f=open( 'psi4out.xyz', 'w' )
f.write( "28  " )
f.write( str(ee) + "\n" )
f.write( MOL.save_string_xyz() )
f.close()
--------------------------------------------------------------------------

    Molecular point group: c1
  Charge       = 0
  Multiplicity = 1
  Basis Set: CC-PVTZ
  Basis Set:
  @DF-RHF Final Energy:  -426.31412402672936
    Total Energy =                       -426.3141240267291323
    Molecular point group: c1
  Basis Set: CC-PVTZ
  Basis Set:
  Basis Set: CC-PVTZ
  Basis Set:
  @DF-RHF Final Energy:  -426.28378973509803
    Total Energy =                       -426.2837897350987078
  Basis Set: CC-PVTZ
  Basis Set:
  Basis Set: CC-PVTZ
  Basis Set:
  @DF-RHF Final Energy:  -426.31577000742732
    Total Energy =                       -426.3157700074272043
  Basis Set: CC-PVTZ
  Basis Set:
  Basis Set: CC-PVTZ
  Basis Set:
  @DF-RHF Final Energy:  -426.31204108157885
    Total Energy =                       -426.3120410815788546
  Basis Set: CC-PVTZ
  Basis Set:
  @DF-RHF Final Energy:  -426.30201638063556
    Total Energy =                       -426.3020163806359051
  @DF-RHF Final Energy:  -426.31750005368315
    Total Energy =                       -426.3175000536834887
  @DF-RHF Final Energy:  -426.31724950762259
    Total Energy =                       -426.3172495076225914
  @DF-RHF Final Energy:  -426.31758830576064
    Total Energy =                       -426.3175883057606370
  @DF-RHF Final Energy:  -426.31799860021169
    Total Energy =                       -426.3179986002115811
  Basis Set: CC-PVTZ
  Basis Set:
  @DF-RHF Final Energy:  -426.31795063790082
    Total Energy =                       -426.3179506379012764
  Basis Set: CC-PVTZ
  Basis Set:
  Basis Set: CC-PVTZ
  Basis Set:
  @DF-RHF Final Energy:  -426.31801759726443
    Total Energy =                       -426.3180175972643156
  Basis Set: CC-PVTZ
  Basis Set:
  Basis Set: CC-PVTZ
  Basis Set:
  @DF-RHF Final Energy:  -426.31802738715896
    Total Energy =                       -426.3180273871594181
  Basis Set: CC-PVTZ
  Basis Set:
  Charge       = 0
  Multiplicity = 1
  Basis Set: CC-PVTZ
  Basis Set:

    Orbital Energies (a.u.)
    -----------------------

    Doubly Occupied:

       1A    -20.534557     2A    -11.318179     3A    -11.228962
       4A    -11.228295     5A    -11.227668     6A    -11.223934
       7A    -11.214702     8A    -11.214116     9A    -11.208937
      10A    -11.202843    11A     -1.396177    12A     -1.096308
      13A     -1.078059    14A     -1.022751    15A     -0.991587
      16A     -0.907381    17A     -0.876192    18A     -0.809994
      19A     -0.800415    20A     -0.722079    21A     -0.667831
      22A     -0.659362    23A     -0.630077    24A     -0.619939
      25A     -0.609614    26A     -0.588371    27A     -0.581335
      28A     -0.572274    29A     -0.544622    30A     -0.529555
      31A     -0.524764    32A     -0.511877    33A     -0.494141
      34A     -0.487265    35A     -0.480155    36A     -0.475096
      37A     -0.470832    38A     -0.465555    39A     -0.456082
      40A     -0.394006

  @DF-RHF Final Energy:  -426.31802793626673

   => Energetics <=

    Nuclear Repulsion Energy =            532.8852609639535558
    One-Electron Energy =               -1634.2747970714021903
    Two-Electron Energy =                 675.0715081711816765
    DFT Exchange-Correlation Energy =       0.0000000000000000
    Empirical Dispersion Energy =           0.0000000000000000
    PCM Polarization Energy =               0.0000000000000000
    EFP Energy =                            0.0000000000000000
    Total Energy =                       -426.3180279362670717
    Molecular point group: c1
  Basis Set: CC-PVTZ
  Basis Set:

  -Total Gradient:
     Atom            X                  Y                   Z
    ------   -----------------  -----------------  -----------------
       1       -0.000000431828    -0.000002115276     0.000000853839
       2       -0.000002651829    -0.000000881233     0.000000264154
       3        0.000007240570     0.000011858288    -0.000012803417
       4        0.000007989893     0.000003844246     0.000003593761
       5        0.000002069737     0.000003007965    -0.000004307280
       6       -0.000001522463    -0.000003908250    -0.000010293453
       7       -0.000007929497     0.000000488872     0.000012707392
       8       -0.000007515055     0.000000517508    -0.000002147793
       9        0.000009247440    -0.000013390718     0.000011269515
      10        0.000004433245    -0.000002969710    -0.000000965995
      11        0.000009097020    -0.000001545758    -0.000009932210
      12        0.000032742679    -0.001364424301    -0.000685408477
      13       -0.000008690059     0.000000054263     0.000007082476
      14        0.000001068783     0.000002732914     0.000004657911
      15        0.000376959467    -0.001111186961     0.000077127146
      16       -0.000118387163     0.001374189583     0.000519184239
      17       -0.000279885118     0.001102964723     0.000053602814
      18       -0.000010581795     0.000004381291     0.000000344284
      19       -0.000004789189    -0.000001422369    -0.000003356287
      20       -0.000020873234    -0.000010269694     0.000014909799
      21        0.000010730382    -0.000004396466     0.000000240142
      22        0.000012965473     0.000010692484     0.000004338716
      23        0.000004001967     0.000006232558     0.000018227492
      24       -0.000012371909    -0.000012757093    -0.000003401650
      25       -0.000011410146     0.000003872827    -0.000003103573
      26        0.000002957515    -0.000006518492     0.000005497700
      27        0.000002434323     0.000008558671     0.000012125810
      28        0.000003100799     0.000002390129    -0.000010307051

  **** Optimization is complete! (in 13 steps) ****
    Final optimized geometry and variables:
    Molecular point group: c1

    Geometry (in Angstrom), charge = 0, multiplicity = 1:

    H            4.366199219718    -0.523984711395    -2.802503154478
    C            3.845489860765     0.352371440099    -2.434039327896
    C            2.511736233848    -0.025895117949    -1.799056772884
    H            4.492531394407     0.843255972021    -1.715228747490
    H            3.705721651777     1.030012653605    -3.270272407386
    C            1.742238767533     1.187769044676    -1.281828839771
    H            2.685140545646    -0.717310802108    -0.983686758463
    H            1.901494351796    -0.549137395081    -2.531740383687
    C            0.400590494601     0.844188421603    -0.642582604260
    H            2.351607466167     1.723850954295    -0.564374623855
    H            1.558825271887     1.866671174353    -2.109782450550
    C            0.491410796660     0.223623936602     0.738135127711
    H           -0.207623014977     1.739759609770    -0.534377741174
    H           -0.172504407845     0.183930921557    -1.285481348534
    C           -0.793135460618    -0.169833532649     1.455126286030
    O            1.530746223490     0.102596214833     1.302469712468
    C           -2.034766975661    -0.455142692890     0.613872479617
    H           -1.001350669616     0.651183626314     2.137952237879
    H           -0.546185411072    -1.020489401963     2.077740687574
    C           -3.231846089463    -0.855769807796     1.472865022289
    H           -2.299494011357     0.417137151127     0.025301729653
    H           -1.825674085965    -1.252786164398    -0.094007265059
    C           -4.483142555516    -1.148124939401     0.652192573073
    H           -3.443807954376    -0.062294867334     2.184093457743
    H           -2.973618497819    -1.731051322848     2.061752261180
    H           -4.787247188673    -0.279353972371     0.077935724060
    H           -4.312842327902    -1.961430290104    -0.045224696898
    H           -5.312674902207    -1.428842196522     1.290392326890

  Mulliken Charges: (a.u.)
   Center  Symbol    Alpha    Beta     Spin     Total
       1     H     0.44872  0.44872  0.00000  0.10256
       2     C     3.15206  3.15206  0.00000 -0.30412
       3     C     3.08374  3.08374  0.00000 -0.16749
       4     H     0.45196  0.45196  0.00000  0.09607
       5     H     0.45732  0.45732  0.00000  0.08536
       6     C     3.08636  3.08636  0.00000 -0.17273
       7     H     0.44397  0.44397  0.00000  0.11205
       8     H     0.45927  0.45927  0.00000  0.08146
       9     C     3.13160  3.13160  0.00000 -0.26320
      10     H     0.44613  0.44613  0.00000  0.10774
      11     H     0.44789  0.44789  0.00000  0.10422
      12     C     2.87561  2.87561  0.00000  0.24878
      13     H     0.43361  0.43361  0.00000  0.13278
      14     H     0.43909  0.43909  0.00000  0.12182
      15     C     3.08549  3.08549  0.00000 -0.17099
      16     O     4.18069  4.18069  0.00000 -0.36138
      17     C     3.10218  3.10218  0.00000 -0.20437
      18     H     0.44317  0.44317  0.00000  0.11365
      19     H     0.43662  0.43662  0.00000  0.12675
      20     C     3.08702  3.08702  0.00000 -0.17404
      21     H     0.44924  0.44924  0.00000  0.10153
      22     H     0.44937  0.44937  0.00000  0.10126
      23     C     3.14936  3.14936  0.00000 -0.29872
      24     H     0.45290  0.45290  0.00000  0.09419
      25     H     0.45078  0.45078  0.00000  0.09844
      26     H     0.45499  0.45499  0.00000  0.09002
      27     H     0.45432  0.45432  0.00000  0.09137
      28     H     0.44651  0.44651  0.00000  0.10698

   Total alpha = 40.00000, Total beta = 40.00000, Total charge =  0.00000

*** Psi4 exiting successfully. Buy a developer a beer!
