                              Psi4 1.0.54 Driver

  ==> Input File <==

--------------------------------------------------------------------------
set {
	reference rhf
	basis cc-pvtz
}

set_num_threads( 4 )
memory 2 gb

molecule MOL {
0 1

O	 1.698271	 1.117213	 -0.636894
C	 1.704209	 0.119472	 -0.000093
C	 0.592104	 -0.349818	 0.902475
O	 2.715427	 -0.733672	 0.000025
C	 -0.602485	 0.592246	 0.944865
H	 0.300790	 -1.339036	 0.564788
H	 1.018152	 -0.489072	 1.890672
C	 -1.707900	 0.086885	 1.867192
H	 -0.990995	 0.721994	 -0.058878
H	 -0.272740	 1.573033	 1.268306
C	 -2.914688	 1.019087	 1.923167
H	 -2.032336	 -0.898086	 1.538826
H	 -1.310877	 -0.044138	 2.871405
C	 -4.019725	 0.513818	 2.844584
H	 -3.312631	 1.149905	 0.920828
H	 -2.592085	 2.002738	 2.252588
H	 -4.387783	 -0.454108	 2.520722
H	 -4.860252	 1.197908	 2.861009
H	 -3.661655	 0.405843	 3.863093
C	 4.020999	 -0.192556	 0.000019
H	 4.182809	 0.412891	 -0.879449
H	 4.692590	 -1.035653	 0.000152
H	 4.182726	 0.413087	 0.879368

	symmetry c1
}
set optking {
	frozen_dihedral = ("
		1 2 4 20
	")
}

ee,wfn = optimize('scf', return_wfn=True)
oeprop( wfn, 'DIPOLE', 'QUADRUPOLE', 'MULLIKEN_CHARGES')
f=open( 'psi4out.xyz', 'w' )
f.write( "23  " )
f.write( str(ee) + "\n" )
f.write( MOL.save_string_xyz() )
f.close()
--------------------------------------------------------------------------

    Molecular point group: c1
  Charge       = 0
  Multiplicity = 1
  Basis Set: CC-PVTZ
  Basis Set:
  @DF-RHF Final Energy:  -423.12291779848920
    Total Energy =                       -423.1229177984890839
    Molecular point group: c1
  Basis Set: CC-PVTZ
  Basis Set:
  Basis Set: CC-PVTZ
  Basis Set:
  @DF-RHF Final Energy:  -422.98199670815603
    Total Energy =                       -422.9819967081557479
  Basis Set: CC-PVTZ
  Basis Set:
  Basis Set: CC-PVTZ
  Basis Set:
  @DF-RHF Final Energy:  -423.08920624625830
    Total Energy =                       -423.0892062462585272
  Basis Set: CC-PVTZ
  Basis Set:
  Basis Set: CC-PVTZ
  Basis Set:
  @DF-RHF Final Energy:  -423.12060539739213
    Total Energy =                       -423.1206053973919552
  Basis Set: CC-PVTZ
  Basis Set:
  @DF-RHF Final Energy:  -423.10916356947695
    Total Energy =                       -423.1091635694770048
  @DF-RHF Final Energy:  -423.12231483919118
    Total Energy =                       -423.1223148391911764
  Basis Set: CC-PVTZ
  Basis Set:
  @DF-RHF Final Energy:  -423.12355933070654
    Total Energy =                       -423.1235593307063709
  Basis Set: CC-PVTZ
  Basis Set:
  Basis Set: CC-PVTZ
  Basis Set:
  @DF-RHF Final Energy:  -423.12361244852264
    Total Energy =                       -423.1236124485222945
  Basis Set: CC-PVTZ
  Basis Set:
  Basis Set: CC-PVTZ
  Basis Set:
  @DF-RHF Final Energy:  -423.12361994711449
    Total Energy =                       -423.1236199471150030
  Basis Set: CC-PVTZ
  Basis Set:
  Charge       = 0
  Multiplicity = 1
  Basis Set: CC-PVTZ
  Basis Set:

    Orbital Energies (a.u.)
    -----------------------

    Doubly Occupied:

       1A    -20.588737     2A    -20.538136     3A    -11.365882
       4A    -11.281571     5A    -11.234516     6A    -11.217662
       7A    -11.216313     8A    -11.214875     9A    -11.208069
      10A     -1.467050    11A     -1.367027    12A     -1.094803
      13A     -1.044131    14A     -0.986004    15A     -0.934987
      16A     -0.846098    17A     -0.796027    18A     -0.767645
      19A     -0.698515    20A     -0.682858    21A     -0.675614
      22A     -0.651942    23A     -0.611291    24A     -0.603686
      25A     -0.575759    26A     -0.566936    27A     -0.554152
      28A     -0.529851    29A     -0.516022    30A     -0.508562
      31A     -0.485408    32A     -0.471265    33A     -0.468054
      34A     -0.465874    35A     -0.456206    36A     -0.435611

  @DF-RHF Final Energy:  -423.12362064350668

   => Energetics <=

    Nuclear Repulsion Energy =            452.5071110564640549
    One-Electron Energy =               -1473.0071872630403504
    Two-Electron Energy =                 597.3764555630692712
    DFT Exchange-Correlation Energy =       0.0000000000000000
    Empirical Dispersion Energy =           0.0000000000000000
    PCM Polarization Energy =               0.0000000000000000
    EFP Energy =                            0.0000000000000000
    Total Energy =                       -423.1236206435070244
    Molecular point group: c1
  Basis Set: CC-PVTZ
  Basis Set:

  -Total Gradient:
     Atom            X                  Y                   Z
    ------   -----------------  -----------------  -----------------
       1       -0.005193436489    -0.002540887796    -0.007634285132
       2        0.008010183982     0.002676736083     0.014956478058
       3        0.000140526640     0.000100618882    -0.000102416868
       4       -0.003906097366     0.001809669272    -0.014272283817
       5        0.000007791533    -0.000040268098    -0.000005783112
       6       -0.000021204284     0.000019517773    -0.000053197658
       7       -0.000017720256     0.000018872389    -0.000009117059
       8       -0.000033550047     0.000055851076     0.000008893613
       9        0.000004908275     0.000001601740     0.000007783686
      10       -0.000006465907    -0.000004970161     0.000001347264
      11        0.000029094720    -0.000049634394     0.000004544702
      12        0.000005727148     0.000014499795     0.000005762674
      13        0.000003077745     0.000000123948    -0.000004467501
      14        0.000003179688     0.000021752938    -0.000002052339
      15       -0.000002008383     0.000004243485     0.000004811006
      16       -0.000003364412    -0.000015766643    -0.000004775258
      17        0.000004026855     0.000002565968     0.000001580370
      18       -0.000004369218    -0.000006021410     0.000000637141
      19       -0.000001202448     0.000003784021    -0.000012540284
      20        0.000956847416    -0.002069033305     0.007104204000
      21       -0.000001909287    -0.000000367481     0.000005831100
      22        0.000014809608    -0.000017982870    -0.000005789707
      23        0.000011154492     0.000015094791     0.000004835120

  **** Optimization is complete! (in 10 steps) ****
    Final optimized geometry and variables:
    Molecular point group: c1

    Geometry (in Angstrom), charge = 0, multiplicity = 1:

    O            1.440215164002     1.309574654618    -1.191244330404
    C            1.485166849621     0.177572195329    -0.857445903899
    C            0.426559060953    -0.537783664616    -0.061186847431
    O            2.460008483598    -0.651913432759    -1.232006127924
    C           -0.810601635483     0.301888729894     0.221123040197
    H            0.177356353440    -1.444084937614    -0.602765441843
    H            0.895504804535    -0.867838153580     0.861572150474
    C           -1.855398387778    -0.456472147240     1.034317467412
    H           -1.241836777763     0.627994615720    -0.718875614346
    H           -0.518184673271     1.203913046635     0.746272597425
    C           -3.104273687092     0.370296077497     1.325632113024
    H           -2.141905377115    -1.361344982149     0.503089948546
    H           -1.416086608603    -0.783236770639     1.974325744936
    C           -4.148534550306    -0.387738152090     2.138138948211
    H           -3.544403900980     0.696380845727     0.387506659583
    H           -2.819406048051     1.273596581597     1.857633315771
    H           -4.479207052324    -1.279589660526     1.616155701118
    H           -5.021069097269     0.226979546270     2.326636543495
    H           -3.748842357600    -0.697366459117     3.098144639826
    C            3.775855704352    -0.136770222976    -1.262763652230
    H            3.861506890514     0.671617692660    -1.972886586911
    H            4.414661812898    -0.954339036229    -1.554935847438
    H            4.063023214240     0.215510757805    -0.280460931382

  Mulliken Charges: (a.u.)
   Center  Symbol    Alpha    Beta     Spin     Total
       1     O     4.18732  4.18732  0.00000 -0.37464
       2     C     2.80168  2.80168  0.00000  0.39664
       3     C     3.10397  3.10397  0.00000 -0.20793
       4     O     4.15562  4.15562  0.00000 -0.31125
       5     C     3.08503  3.08503  0.00000 -0.17005
       6     H     0.43758  0.43758  0.00000  0.12483
       7     H     0.44408  0.44408  0.00000  0.11184
       8     C     3.08881  3.08881  0.00000 -0.17763
       9     H     0.44644  0.44644  0.00000  0.10713
      10     H     0.44573  0.44573  0.00000  0.10855
      11     C     3.08403  3.08403  0.00000 -0.16805
      12     H     0.45540  0.45540  0.00000  0.08921
      13     H     0.45604  0.45604  0.00000  0.08791
      14     C     3.15037  3.15037  0.00000 -0.30075
      15     H     0.45313  0.45313  0.00000  0.09375
      16     H     0.45330  0.45330  0.00000  0.09340
      17     H     0.45521  0.45521  0.00000  0.08957
      18     H     0.44767  0.44767  0.00000  0.10465
      19     H     0.45542  0.45542  0.00000  0.08916
      20     C     3.03752  3.03752  0.00000 -0.07503
      21     H     0.44691  0.44691  0.00000  0.10619
      22     H     0.44544  0.44544  0.00000  0.10912
      23     H     0.46330  0.46330  0.00000  0.07341

   Total alpha = 36.00000, Total beta = 36.00000, Total charge = -0.00000

*** Psi4 exiting successfully. Buy a developer a beer!
