  ==> Input File <==

--------------------------------------------------------------------------
set {
	reference rhf
	basis 6-31G*
}

set_num_threads( 1 )
memory 2 gb

molecule MOL {
0 1

O	 -2.563627	 0.866236	 0.297896
C	 -2.135466	 -0.235149	 0.130375
C	 -0.889235	 -0.467034	 -0.705952
C	 -2.786438	 -1.444766	 0.763178
C	 0.379448	 -0.143569	 0.099626
H	 -0.946192	 0.186931	 -1.569311
H	 -0.852355	 -1.493135	 -1.060612
C	 1.631333	 -0.777471	 -0.511575
H	 0.482768	 0.934507	 0.149241
H	 0.263088	 -0.495696	 1.123449
C	 2.915987	 -0.544314	 0.291766
H	 1.766672	 -0.399098	 -1.523130
H	 1.471257	 -1.849544	 -0.605828
C	 3.373361	 0.914346	 0.347591
H	 3.708709	 -1.142521	 -0.150311
H	 2.780642	 -0.921148	 1.303579
H	 3.506512	 1.320010	 -0.651625
H	 4.322697	 0.999599	 0.867103
H	 2.660624	 1.545032	 0.868198
H	 -3.202904	 -2.082813	 -0.011882
H	 -3.575222	 -1.132606	 1.433372
H	 -2.054029	 -2.036060	 1.305168

	symmetry c1
}
set optking {
	frozen_dihedral = ("
		6 3 2 1,
		3 5 8 12,
		12 8 11 15
	")
}

ee = energy('scf')
oeprop('DIPOLE', 'QUADRUPOLE', 'MULLIKEN_CHARGES')
f=open( 'psi4out.xyz', 'w' )
f.write( "22  " )
f.write( str(ee) + "\n" )
f.write( MOL.save_string_xyz() )
f.close()
--------------------------------------------------------------------------

    Molecular point group: c1

    Geometry (in Angstrom), charge = 0, multiplicity = 1:

       Center              X                  Y                   Z               Mass
    ------------   -----------------  -----------------  -----------------  -----------------
           O         -2.557281957671     1.086543229224     0.199443228084    15.994914619560
           C         -2.129120957671    -0.014841770776     0.031922228084    12.000000000000
           C         -0.882889957671    -0.246726770776    -0.804404771916    12.000000000000
           C         -2.780092957671    -1.224458770776     0.664725228084    12.000000000000
           C          0.385793042329     0.076738229224     0.001173228084    12.000000000000
           H         -0.939846957671     0.407238229224    -1.667763771916     1.007825032070
           H         -0.846009957671    -1.272827770776    -1.159064771916     1.007825032070
           C          1.637678042329    -0.557163770776    -0.610027771916    12.000000000000
           H          0.489113042329     1.154814229224     0.050788228084     1.007825032070
           H          0.269433042329    -0.275388770776     1.024996228084     1.007825032070
           C          2.922332042329    -0.324006770776     0.193313228084    12.000000000000
           H          1.773017042329    -0.178790770776    -1.621582771916     1.007825032070
           H          1.477602042329    -1.629236770776    -0.704280771916     1.007825032070
           C          3.379706042329     1.134653229224     0.249138228084    12.000000000000
           H          3.715054042329    -0.922213770776    -0.248763771916     1.007825032070
           H          2.786987042329    -0.700840770776     1.205126228084     1.007825032070
           H          3.512857042329     1.540317229224    -0.750077771916     1.007825032070
           H          4.329042042329     1.219906229224     0.768650228084     1.007825032070
           H          2.666969042329     1.765339229224     0.769745228084     1.007825032070
           H         -3.196558957671    -1.862505770776    -0.110334771916     1.007825032070
           H         -3.568876957671    -0.912298770776     1.334919228084     1.007825032070
           H         -2.047683957671    -1.815752770776     1.206715228084     1.007825032070

  Charge       = 0
  Multiplicity = 1
  Basis Set: 6-31G*
  Basis Set:

    Orbital Energies (a.u.)
    -----------------------

    Doubly Occupied:

       1A    -20.546855     2A    -11.324306     3A    -11.229650
       4A    -11.228668     5A    -11.228384     6A    -11.223062
       7A    -11.221115     8A    -11.211776     9A     -1.392710
      10A     -1.096191    11A     -1.044423    12A     -0.999554
      13A     -0.938151    14A     -0.857957    15A     -0.787132
      16A     -0.733138    17A     -0.661200    18A     -0.646202
      19A     -0.625581    20A     -0.621533    21A     -0.596237
      22A     -0.578882    23A     -0.566838    24A     -0.543697
      25A     -0.535536    26A     -0.515454    27A     -0.497492
      28A     -0.491490    29A     -0.471290    30A     -0.465035
      31A     -0.458089    32A     -0.395962

  @DF-RHF Final Energy:  -348.09683206946232

   => Energetics <=

    Nuclear Repulsion Energy =            373.0083919966284043
    One-Electron Energy =               -1210.7428178879654297
    Two-Electron Energy =                 489.6375938218755550
    DFT Exchange-Correlation Energy =       0.0000000000000000
    Empirical Dispersion Energy =           0.0000000000000000
    PCM Polarization Energy =               0.0000000000000000
    EFP Energy =                            0.0000000000000000
    Total Energy =                       -348.0968320694614135

  Mulliken Charges: (a.u.)
   Center  Symbol    Alpha    Beta     Spin     Total
       1     O     4.26246  4.26246  0.00000 -0.52491
       2     C     2.73773  2.73773  0.00000  0.52455
       3     C     3.20047  3.20047  0.00000 -0.40094
       4     C     3.28951  3.28951  0.00000 -0.57901
       5     C     3.16136  3.16136  0.00000 -0.32273
       6     H     0.40064  0.40064  0.00000  0.19872
       7     H     0.41685  0.41685  0.00000  0.16631
       8     C     3.15380  3.15380  0.00000 -0.30759
       9     H     0.40464  0.40464  0.00000  0.19072
      10     H     0.42042  0.42042  0.00000  0.15917
      11     C     3.15327  3.15327  0.00000 -0.30654
      12     H     0.42115  0.42115  0.00000  0.15770
      13     H     0.42204  0.42204  0.00000  0.15591
      14     C     3.24221  3.24221  0.00000 -0.48442
      15     H     0.41963  0.41963  0.00000  0.16074
      16     H     0.42263  0.42263  0.00000  0.15474
      17     H     0.42123  0.42123  0.00000  0.15754
      18     H     0.41801  0.41801  0.00000  0.16397
      19     H     0.41817  0.41817  0.00000  0.16366
      20     H     0.40684  0.40684  0.00000  0.18632
      21     H     0.39698  0.39698  0.00000  0.20605
      22     H     0.40997  0.40997  0.00000  0.18006

   Total alpha = 32.00000, Total beta = 32.00000, Total charge =  0.00000
