  ==> Input File <==

--------------------------------------------------------------------------
set {
	reference rhf
	basis 6-31G*
}

set_num_threads( 4 )
memory 2 gb

molecule MOL {
0 1

O	 1.142876	 1.421005	 0.335579
C	 0.909435	 0.459535	 0.994459
C	 -0.378467	 -0.327107	 0.974554
O	 1.775887	 -0.058753	 1.855629
C	 -1.412532	 0.227344	 -0.000452
H	 -0.126155	 -1.357043	 0.737228
H	 -0.764344	 -0.344034	 1.990215
C	 -2.706999	 -0.587347	 -0.000541
H	 -0.989088	 0.245648	 -0.999885
H	 -1.627844	 1.260339	 0.254629
C	 -3.956778	 0.291888	 0.000910
H	 -2.726114	 -1.239230	 -0.871609
H	 -2.725217	 -1.240844	 0.869333
H	 -3.985213	 0.933254	 -0.875158
H	 -4.860123	 -0.309979	 0.000519
H	 -3.984618	 0.931166	 0.878514
C	 3.030576	 0.587222	 1.972297
H	 3.551798	 0.578800	 1.025859
H	 3.584035	 0.026074	 2.709010
H	 2.902866	 1.609412	 2.298372

	symmetry c1
}
set optking {
	frozen_dihedral = ("
		9 5 8 12
	")
}

ee = optimize('scf')
oeprop('DIPOLE', 'QUADRUPOLE', 'MULLIKEN_CHARGES')
f=open( 'psi4out.xyz', 'w' )
f.write( "20  " )
f.write( str(ee) + "\n" )
f.write( MOL.save_string_xyz() )
f.close()
--------------------------------------------------------------------------

    Molecular point group: c1
  Charge       = 0
  Multiplicity = 1
  Basis Set: 6-31G*
  Basis Set:
  @DF-RHF Final Energy:  -383.93662825858138
    Total Energy =                       -383.9366282585813224
    Molecular point group: c1
  Basis Set: 6-31G*
  Basis Set:
  Basis Set: 6-31G*
  Basis Set:
  @DF-RHF Final Energy:  -383.93689832920228
    Total Energy =                       -383.9368983292024495
  Basis Set: 6-31G*
  Basis Set:
  Basis Set: 6-31G*
  Basis Set:
  @DF-RHF Final Energy:  -383.93690171990238
    Total Energy =                       -383.9369017199028349
  Basis Set: 6-31G*
  Basis Set:
  Basis Set: 6-31G*
  Basis Set:
  @DF-RHF Final Energy:  -383.93695887232758
    Total Energy =                       -383.9369588723280913
  Basis Set: 6-31G*
  Basis Set:
  Basis Set: 6-31G*
  Basis Set:
  @DF-RHF Final Energy:  -383.93698616004860
    Total Energy =                       -383.9369861600487184
  Basis Set: 6-31G*
  Basis Set:
  Charge       = 0
  Multiplicity = 1
  Basis Set: 6-31G*
  Basis Set:

    Orbital Energies (a.u.)
    -----------------------

    Doubly Occupied:

       1A    -20.603667     2A    -20.545572     3A    -11.372130
       4A    -11.280884     5A    -11.235764     6A    -11.220125
       7A    -11.219246     8A    -11.210931     9A     -1.469342
      10A     -1.362812    11A     -1.086785    12A     -1.023636
      13A     -0.969052    14A     -0.885303    15A     -0.804352
      16A     -0.767437    17A     -0.698527    18A     -0.682953
      19A     -0.672105    20A     -0.639842    21A     -0.599961
      22A     -0.596787    23A     -0.576599    24A     -0.542980
      25A     -0.529850    26A     -0.522193    27A     -0.507138
      28A     -0.476525    29A     -0.472477    30A     -0.466847
      31A     -0.455466    32A     -0.436341

  @DF-RHF Final Energy:  -383.93698665666852

   => Energetics <=

    Nuclear Repulsion Energy =            381.2130698754174318
    One-Electron Energy =               -1278.4328589728611405
    Two-Electron Energy =                 513.2828024407750718
    DFT Exchange-Correlation Energy =       0.0000000000000000
    Empirical Dispersion Energy =           0.0000000000000000
    PCM Polarization Energy =               0.0000000000000000
    EFP Energy =                            0.0000000000000000
    Total Energy =                       -383.9369866566686369
    Molecular point group: c1
  Basis Set: 6-31G*
  Basis Set:

  -Total Gradient:
     Atom            X                  Y                   Z
    ------   -----------------  -----------------  -----------------
       1       -0.000016037349     0.000025432012     0.000018289935
       2        0.000049142669    -0.000050849719    -0.000065019873
       3       -0.000003377471     0.000071980703    -0.000039227062
       4        0.000014435482     0.000005396335     0.000031970099
       5       -0.002773290560     0.004246550239    -0.001221582084
       6       -0.000007626440     0.000004900661    -0.000002528350
       7       -0.000027523403     0.000021752185    -0.000022269761
       8        0.002486465479    -0.003793600494     0.002497098185
       9        0.001952222898    -0.002964042930     0.000767770860
      10        0.000035547705     0.000014073363    -0.000013881955
      11        0.000005192102    -0.000082609768     0.000003218855
      12       -0.001694295939     0.002558414175    -0.001916920723
      13       -0.000033009785    -0.000040764380    -0.000033163020
      14        0.000002895063    -0.000027844283    -0.000016113257
      15       -0.000031720790     0.000016062543     0.000031518732
      16        0.000049081647    -0.000004453511    -0.000018259729
      17       -0.000003239976     0.000001936988    -0.000002875997
      18       -0.000001455151    -0.000000390214     0.000000681546
      19       -0.000003518969    -0.000002240144     0.000001106420
      20        0.000000112780     0.000000296239     0.000000187178

  **** Optimization is complete! (in 6 steps) ****
    Final optimized geometry and variables:
    Molecular point group: c1

    Geometry (in Angstrom), charge = 0, multiplicity = 1:

    O            1.314420417285     1.159356458781    -0.440310462946
    C            1.082323178582     0.198106987141     0.219593287744
    C           -0.211967181813    -0.578256822172     0.214927296656
    O            1.955923356861    -0.327970350130     1.068840416679
    C           -1.257209545256    -0.012486865963    -0.744726827832
    H            0.027961076203    -1.609583064495    -0.029810414367
    H           -0.584375347198    -0.595927659691     1.235514962062
    C           -2.550294919929    -0.853148442019    -0.764043099889
    H           -0.817768445626     0.017792640920    -1.735288160652
    H           -1.471938784951     1.013458463747    -0.467027183583
    C           -3.814900150880     0.006420501771    -0.817202984716
    H           -2.548171253160    -1.501612263799    -1.635638469289
    H           -2.598054235675    -1.499069727873     0.108648260794
    H           -3.812026609918     0.650236560797    -1.692089745840
    H           -4.708128953120    -0.609154831693    -0.861451889749
    H           -3.892274166515     0.643000348237     0.059595976109
    C            3.216376633942     0.309068455735     1.171144463548
    H            3.725729988966     0.299098630804     0.218266251228
    H            3.775084180312    -0.257481244975     1.899725988969
    H            3.099874236317     1.331418587630     1.500910287616

  Mulliken Charges: (a.u.)
   Center  Symbol    Alpha    Beta     Spin     Total
       1     O     4.28602  4.28602  0.00000 -0.57204
       2     C     2.60587  2.60587  0.00000  0.78825
       3     C     3.21011  3.21011  0.00000 -0.42021
       4     O     4.30710  4.30710  0.00000 -0.61419
       5     C     3.15406  3.15406  0.00000 -0.30813
       6     H     0.40045  0.40045  0.00000  0.19911
       7     H     0.40087  0.40087  0.00000  0.19827
       8     C     3.15678  3.15678  0.00000 -0.31355
       9     H     0.40926  0.40926  0.00000  0.18148
      10     H     0.40983  0.40983  0.00000  0.18034
      11     C     3.24005  3.24005  0.00000 -0.48009
      12     H     0.41871  0.41871  0.00000  0.16257
      13     H     0.42131  0.42131  0.00000  0.15739
      14     H     0.41924  0.41924  0.00000  0.16151
      15     H     0.41988  0.41988  0.00000  0.16024
      16     H     0.42143  0.42143  0.00000  0.15714
      17     C     3.09243  3.09243  0.00000 -0.18487
      18     H     0.40909  0.40909  0.00000  0.18183
      19     H     0.40844  0.40844  0.00000  0.18311
      20     H     0.40907  0.40907  0.00000  0.18186

   Total alpha = 32.00000, Total beta = 32.00000, Total charge = -0.00000
