                              Psi4 1.0.54 Driver

  ==> Input File <==

--------------------------------------------------------------------------
set {
	reference rhf
	basis cc-pvtz
}

set_num_threads( 4 )
memory 2 gb

molecule MOL {
0 1

H	 -1.141440	 -2.033368	 1.247087
N	 -0.369283	 -1.408268	 1.154370
C	 -0.561396	 -0.500007	 0.035200
H	 0.448132	 -1.966947	 1.023813
C	 0.575129	 0.507849	 -0.048832
H	 -1.495675	 0.028617	 0.192990
H	 -0.652278	 -1.016903	 -0.921342
C	 1.951750	 -0.141983	 0.035101
H	 0.478254	 1.061643	 -0.975981
H	 0.467676	 1.231891	 0.755499
H	 2.101550	 -0.848142	 -0.774949
H	 2.738260	 0.600794	 -0.026526
H	 2.078939	 -0.679792	 0.968824

	symmetry c1
}
set optking {
	frozen_dihedral = ("
		6 3 5 9
	")
}

ee,wfn = optimize('scf', return_wfn=True)
oeprop( wfn, 'DIPOLE', 'QUADRUPOLE', 'MULLIKEN_CHARGES')
f=open( 'psi4out.xyz', 'w' )
f.write( "13  " )
f.write( str(ee) + "\n" )
f.write( MOL.save_string_xyz() )
f.close()
--------------------------------------------------------------------------

    Molecular point group: c1
  Charge       = 0
  Multiplicity = 1
  Basis Set: CC-PVTZ
  Basis Set:
  @DF-RHF Final Energy:  -173.34961106513811
    Total Energy =                       -173.3496110651380491
    Molecular point group: c1
  Basis Set: CC-PVTZ
  Basis Set:
  Basis Set: CC-PVTZ
  Basis Set:
  @DF-RHF Final Energy:  -173.35022478800971
    Total Energy =                       -173.3502247880098253
  Basis Set: CC-PVTZ
  Basis Set:
  Basis Set: CC-PVTZ
  Basis Set:
  @DF-RHF Final Energy:  -173.35069450246769
    Total Energy =                       -173.3506945024676611
  Basis Set: CC-PVTZ
  Basis Set:
  Basis Set: CC-PVTZ
  Basis Set:
  @DF-RHF Final Energy:  -173.35072906559111
    Total Energy =                       -173.3507290655910538
  Basis Set: CC-PVTZ
  Basis Set:
  Basis Set: CC-PVTZ
  Basis Set:
  @DF-RHF Final Energy:  -173.35073275120109
    Total Energy =                       -173.3507327512010647
  Basis Set: CC-PVTZ
  Basis Set:
  Charge       = 0
  Multiplicity = 1
  Basis Set: CC-PVTZ
  Basis Set:

    Orbital Energies (a.u.)
    -----------------------

    Doubly Occupied:

       1A    -15.526547     2A    -11.238966     3A    -11.210189
       4A    -11.205092     5A     -1.178397     6A     -1.031402
       7A     -0.908751     8A     -0.787061     9A     -0.670296
      10A     -0.643065    11A     -0.574811    12A     -0.562904
      13A     -0.554757    14A     -0.483630    15A     -0.478492
      16A     -0.468770    17A     -0.383753

  @DF-RHF Final Energy:  -173.35073289951109

   => Energetics <=

    Nuclear Repulsion Energy =            134.1861919472753186
    One-Electron Energy =                -499.2600820972075439
    Two-Electron Energy =                 191.7231572504210817
    DFT Exchange-Correlation Energy =       0.0000000000000000
    Empirical Dispersion Energy =           0.0000000000000000
    PCM Polarization Energy =               0.0000000000000000
    EFP Energy =                            0.0000000000000000
    Total Energy =                       -173.3507328995111720
    Molecular point group: c1
  Basis Set: CC-PVTZ
  Basis Set:

  -Total Gradient:
     Atom            X                  Y                   Z
    ------   -----------------  -----------------  -----------------
       1        0.000002071460     0.000004080409    -0.000008723349
       2        0.000016092634     0.000012182591     0.000011026231
       3        0.000134794766    -0.000303141014    -0.004765040530
       4        0.000006085085    -0.000003059076     0.000004289158
       5       -0.002492620892     0.003004591103     0.002692078400
       6        0.000259030390    -0.000201104387     0.003595299850
       7       -0.000005522242     0.000002938002    -0.000005105086
       8       -0.000002722343    -0.000004091705    -0.000007762495
       9        0.002081141900    -0.002514051878    -0.001517313569
      10       -0.000001569803     0.000008654331     0.000002866221
      11        0.000010374755     0.000002075335     0.000007830404
      12       -0.000008894624    -0.000011271139     0.000003208414
      13        0.000001738916     0.000002197430    -0.000012653647

  **** Optimization is complete! (in 6 steps) ****
    Final optimized geometry and variables:
    Molecular point group: c1

    Geometry (in Angstrom), charge = 0, multiplicity = 1:

    H           -1.725127930157    -1.468413992701     0.939696775002
    N           -0.872865908262    -0.959690937185     0.839918863277
    C           -0.936007042023    -0.070067125354    -0.312006795042
    H           -0.142185661770    -1.631883887955     0.743336303064
    C            0.228123365949     0.916521702284    -0.336236505504
    H           -1.858722222207     0.490145840447    -0.215304626855
    H           -0.974591706408    -0.608212191355    -1.259476909143
    C            1.603034425023     0.259726696794    -0.229624278678
    H            0.188585614916     1.457506755065    -1.277322794999
    H            0.107324677184     1.634193900393     0.467190843809
    H            1.745846838033    -0.483782863140    -1.008794925028
    H            2.388927611548     0.998266249746    -0.335992257953
    H            1.739440831723    -0.224648699252     0.729159581555

  Mulliken Charges: (a.u.)
   Center  Symbol    Alpha    Beta     Spin     Total
       1     H     0.42891  0.42891  0.00000  0.14217
       2     N     3.69295  3.69295  0.00000 -0.38590
       3     C     3.03359  3.03359  0.00000 -0.06718
       4     H     0.42809  0.42809  0.00000  0.14383
       5     C     3.07304  3.07304  0.00000 -0.14608
       6     H     0.45353  0.45353  0.00000  0.09294
       7     H     0.46495  0.46495  0.00000  0.07010
       8     C     3.16115  3.16115  0.00000 -0.32230
       9     H     0.45661  0.45661  0.00000  0.08678
      10     H     0.45378  0.45378  0.00000  0.09243
      11     H     0.45613  0.45613  0.00000  0.08774
      12     H     0.44663  0.44663  0.00000  0.10674
      13     H     0.45063  0.45063  0.00000  0.09873

   Total alpha = 17.00000, Total beta = 17.00000, Total charge =  0.00000

*** Psi4 exiting successfully. Buy a developer a beer!
