                              Psi4 1.0.54 Driver

  ==> Input File <==

--------------------------------------------------------------------------
set {
	reference rhf
	basis cc-pvtz
}

set_num_threads( 4 )
memory 2 gb

molecule MOL {
0 1

H	 -3.258660	 -0.290394	 1.471450
C	 -3.307964	 -0.275695	 0.374072
C	 -2.653809	 0.914422	 -0.273689
O	 -3.855140	 -1.148880	 -0.205112
C	 -3.169241	 2.247162	 0.277499
H	 -1.581529	 0.823014	 -0.158818
H	 -2.882591	 0.854471	 -1.335465
C	 -2.779865	 2.500256	 1.732323
H	 -2.782308	 3.047673	 -0.343633
H	 -4.251278	 2.283684	 0.177225
C	 -3.291079	 3.836574	 2.264013
H	 -1.697227	 2.466095	 1.820837
H	 -3.157584	 1.696935	 2.359565
C	 -2.889873	 4.092342	 3.715518
H	 -2.917645	 4.633746	 1.628869
H	 -4.375522	 3.863634	 2.183083
C	 -3.448441	 5.382488	 4.318365
H	 -1.805005	 4.102927	 3.791245
H	 -3.226618	 3.255560	 4.321078
C	 -2.909493	 6.666039	 3.691374
H	 -3.218966	 5.391389	 5.379333
H	 -4.532738	 5.372746	 4.244124
H	 -1.826020	 6.700459	 3.745204
H	 -3.191906	 6.759136	 2.649616
H	 -3.292517	 7.537141	 4.210449

	symmetry c1
}
set optking {
	frozen_dihedral = ("
		6 3 2 4
	")
}

ee,wfn = optimize('scf', return_wfn=True)
oeprop( wfn, 'DIPOLE', 'QUADRUPOLE', 'MULLIKEN_CHARGES')
f=open( 'psi4out.xyz', 'w' )
f.write( "25  " )
f.write( str(ee) + "\n" )
f.write( MOL.save_string_xyz() )
f.close()
--------------------------------------------------------------------------

    Molecular point group: c1
  Charge       = 0
  Multiplicity = 1
  Basis Set: CC-PVTZ
  Basis Set:
  @DF-RHF Final Energy:  -387.25770905425009
    Total Energy =                       -387.2577090542503129
    Molecular point group: c1
  Basis Set: CC-PVTZ
  Basis Set:
  Basis Set: CC-PVTZ
  Basis Set:
  @DF-RHF Final Energy:  -387.25785855892076
    Total Energy =                       -387.2578585589205886
  Basis Set: CC-PVTZ
  Basis Set:
  Basis Set: CC-PVTZ
  Basis Set:
  @DF-RHF Final Energy:  -387.25842708813627
    Total Energy =                       -387.2584270881363864
  Basis Set: CC-PVTZ
  Basis Set:
  Basis Set: CC-PVTZ
  Basis Set:
  @DF-RHF Final Energy:  -387.25855049331017
    Total Energy =                       -387.2585504933102811
  Basis Set: CC-PVTZ
  Basis Set:
  Basis Set: CC-PVTZ
  Basis Set:
  @DF-RHF Final Energy:  -387.25855768838932
    Total Energy =                       -387.2585576883891463
  Basis Set: CC-PVTZ
  Basis Set:
  Basis Set: CC-PVTZ
  Basis Set:
  @DF-RHF Final Energy:  -387.25856269731122
    Total Energy =                       -387.2585626973111630
  Basis Set: CC-PVTZ
  Basis Set:
  Charge       = 0
  Multiplicity = 1
  Basis Set: CC-PVTZ
  Basis Set:

    Orbital Energies (a.u.)
    -----------------------

    Doubly Occupied:

       1A    -20.550664     2A    -11.319817     3A    -11.233628
       4A    -11.233036     5A    -11.225659     6A    -11.220030
       7A    -11.218411     8A    -11.217761     9A    -11.210468
      10A     -1.405239    11A     -1.106474    12A     -1.071547
      13A     -1.015655    14A     -0.944796    15A     -0.877782
      16A     -0.827304    17A     -0.785109    18A     -0.782839
      19A     -0.676772    20A     -0.663337    21A     -0.635573
      22A     -0.620737    23A     -0.603779    24A     -0.598857
      25A     -0.569542    26A     -0.561077    27A     -0.543434
      28A     -0.521728    29A     -0.512316    30A     -0.503117
      31A     -0.488733    32A     -0.481376    33A     -0.467732
      34A     -0.461938    35A     -0.446302    36A     -0.409659

  @DF-RHF Final Energy:  -387.25856305777091

   => Energetics <=

    Nuclear Repulsion Energy =            436.5090540880759704
    One-Electron Energy =               -1389.5107871445338787
    Two-Electron Energy =                 565.7431699986871081
    DFT Exchange-Correlation Energy =       0.0000000000000000
    Empirical Dispersion Energy =           0.0000000000000000
    PCM Polarization Energy =               0.0000000000000000
    EFP Energy =                            0.0000000000000000
    Total Energy =                       -387.2585630577707434
    Molecular point group: c1
  Basis Set: CC-PVTZ
  Basis Set:

  -Total Gradient:
     Atom            X                  Y                   Z
    ------   -----------------  -----------------  -----------------
       1        0.000005395301    -0.000003123452     0.000004999813
       2       -0.000385201046     0.000154967041    -0.000047413834
       3        0.000063824585     0.000100682409     0.000250922059
       4        0.000272487286    -0.000113475688     0.000006272518
       5       -0.000018879911     0.000000481637    -0.000004776201
       6        0.000036169624    -0.000140762249    -0.000232314163
       7        0.000021807130     0.000006586088     0.000005553453
       8        0.000018409240     0.000006913147     0.000020540461
       9       -0.000009850129    -0.000010670194     0.000002147265
      10       -0.000006928059    -0.000001218489     0.000004553240
      11        0.000002097962     0.000000934230    -0.000005783669
      12        0.000002232105     0.000001381532     0.000005226413
      13       -0.000003744452     0.000003343828    -0.000003653194
      14        0.000002749082    -0.000003958133     0.000000685682
      15        0.000001754735     0.000001655183     0.000000808414
      16       -0.000000851739     0.000000305310    -0.000000854134
      17       -0.000002566371     0.000000037066    -0.000005460509
      18        0.000001126507    -0.000000256219     0.000000382525
      19       -0.000001920843     0.000000163103     0.000000109548
      20       -0.000000186792    -0.000000165918    -0.000001011041
      21        0.000001816033    -0.000003775604    -0.000001307141
      22        0.000000143048    -0.000000007059     0.000000430908
      23       -0.000000134693     0.000000068871     0.000000113860
      24        0.000000338802     0.000000283637    -0.000000449449
      25       -0.000000087403    -0.000000390078     0.000000277171

  **** Optimization is complete! (in 7 steps) ****
    Final optimized geometry and variables:
    Molecular point group: c1

    Geometry (in Angstrom), charge = 0, multiplicity = 1:

    H           -0.219434163512    -3.100851097800    -0.326281470810
    C           -0.209657992274    -3.029405264424    -1.419510471421
    C            0.445671820423    -1.804484316837    -1.999830084837
    O           -0.690888492292    -3.894499041327    -2.067448723417
    C           -0.075945328631    -0.483721247198    -1.417532319486
    H            1.514245417021    -1.888298625483    -1.812127494902
    H            0.298029395938    -1.837305432504    -3.070857991812
    C            0.360286471529    -0.194505814558     0.018390429262
    H            0.274784685445     0.319577639053    -2.056484144294
    H           -1.160514152729    -0.466568296326    -1.482175595692
    C           -0.140194664342     1.154646643931     0.528613245154
    H            1.446104900842    -0.217777338319     0.070697118542
    H            0.007156303743    -0.975625980352     0.684851785143
    C            0.304340076861     1.452694248805     1.959232226692
    H            0.210016383870     1.934480934209    -0.140094800524
    H           -1.226464161057     1.175022656464     0.480213875966
    C           -0.241008763590     2.757599680761     2.542090210094
    H            1.391076821594     1.469407055556     2.001514285581
    H           -0.010600080178     0.632604838929     2.598733348858
    C            0.272823434539     4.024375491939     1.862199661523
    H            0.021021888623     2.797612424641     3.594773287489
    H           -1.326922802432     2.741726803902     2.501566350100
    H            1.357322925918     4.063720697991     1.880720493712
    H           -0.042855799180     4.087126533829     0.827795788330
    H           -0.097106463453     4.908523845116     2.368436921696

  Mulliken Charges: (a.u.)
   Center  Symbol    Alpha    Beta     Spin     Total
       1     H     0.46317  0.46317  0.00000  0.07367
       2     C     2.90210  2.90210  0.00000  0.19580
       3     C     3.08982  3.08982  0.00000 -0.17964
       4     O     4.16653  4.16653  0.00000 -0.33307
       5     C     3.11048  3.11048  0.00000 -0.22095
       6     H     0.44965  0.44965  0.00000  0.10071
       7     H     0.43626  0.43626  0.00000  0.12748
       8     C     3.09514  3.09514  0.00000 -0.19028
       9     H     0.44386  0.44386  0.00000  0.11227
      10     H     0.44584  0.44584  0.00000  0.10831
      11     C     3.09194  3.09194  0.00000 -0.18387
      12     H     0.45234  0.45234  0.00000  0.09532
      13     H     0.45189  0.45189  0.00000  0.09623
      14     C     3.09534  3.09534  0.00000 -0.19067
      15     H     0.45091  0.45091  0.00000  0.09818
      16     H     0.45262  0.45262  0.00000  0.09476
      17     C     3.09071  3.09071  0.00000 -0.18142
      18     H     0.45356  0.45356  0.00000  0.09287
      19     H     0.44910  0.44910  0.00000  0.10180
      20     C     3.15272  3.15272  0.00000 -0.30544
      21     H     0.44772  0.44772  0.00000  0.10455
      22     H     0.45409  0.45409  0.00000  0.09182
      23     H     0.45473  0.45473  0.00000  0.09054
      24     H     0.45393  0.45393  0.00000  0.09215
      25     H     0.44555  0.44555  0.00000  0.10890

   Total alpha = 36.00000, Total beta = 36.00000, Total charge = -0.00000

*** Psi4 exiting successfully. Buy a developer a beer!
