  ==> Input File <==

--------------------------------------------------------------------------
set {
	reference rhf
	basis cc-pvtz
}

set_num_threads( 4 )
memory 2 gb

molecule MOL {
0 1

H	 1.142927	 1.694591	 -0.642875
O	 0.332217	 1.209783	 -0.677176
C	 0.489979	 0.078084	 0.002623
C	 -0.763662	 -0.754014	 0.000816
O	 1.507241	 -0.200449	 0.536953
C	 -2.038001	 0.074705	 -0.000833
H	 -0.712945	 -1.405886	 -0.864342
H	 -0.715137	 -1.405770	 0.866182
H	 -2.087267	 0.710831	 -0.874232
H	 -2.903419	 -0.576199	 -0.001922
H	 -2.089467	 0.710909	 0.872389

	symmetry c1
}
set optking {
	frozen_dihedral = ("
		2 3 4 7
	")
}

ee = optimize('scf')
oeprop('DIPOLE', 'QUADRUPOLE', 'MULLIKEN_CHARGES')
f=open( 'psi4out.xyz', 'w' )
f.write( "11  " )
f.write( str(ee) + "\n" )
f.write( MOL.save_string_xyz() )
f.close()
--------------------------------------------------------------------------

    Molecular point group: c1
  Charge       = 0
  Multiplicity = 1
  Basis Set: CC-PVTZ
  Basis Set:
  @DF-RHF Final Energy:  -266.95041764545010
    Total Energy =                       -266.9504176454502158
    Molecular point group: c1
  Basis Set: CC-PVTZ
  Basis Set:
  Basis Set: CC-PVTZ
  Basis Set:
  @DF-RHF Final Energy:  -266.95053487941664
    Total Energy =                       -266.9505348794166935
  Basis Set: CC-PVTZ
  Basis Set:
  Basis Set: CC-PVTZ
  Basis Set:
  @DF-RHF Final Energy:  -266.95100364727580
    Total Energy =                       -266.9510036472760817
  Basis Set: CC-PVTZ
  Basis Set:
  Basis Set: CC-PVTZ
  Basis Set:
  @DF-RHF Final Energy:  -266.95107023775068
    Total Energy =                       -266.9510702377504572
  Basis Set: CC-PVTZ
  Basis Set:
  Basis Set: CC-PVTZ
  Basis Set:
  @DF-RHF Final Energy:  -266.95107109666662
    Total Energy =                       -266.9510710966667375
  Basis Set: CC-PVTZ
  Basis Set:
  Charge       = 0
  Multiplicity = 1
  Basis Set: CC-PVTZ
  Basis Set:

    Orbital Energies (a.u.)
    -----------------------

    Doubly Occupied:

       1A    -20.606894     2A    -20.538728     3A    -11.374442
       4A    -11.242865     5A    -11.224781     6A     -1.479329
       7A     -1.369044     8A     -1.067986     9A     -0.911751
      10A     -0.825060    11A     -0.705881    12A     -0.681922
      13A     -0.657056    14A     -0.604414    15A     -0.591347
      16A     -0.553780    17A     -0.526588    18A     -0.513939
      19A     -0.478850    20A     -0.443481

  @DF-RHF Final Energy:  -266.95107178962098

   => Energetics <=

    Nuclear Repulsion Energy =            180.4024460846580098
    One-Electron Energy =                -721.9107582973447279
    Two-Electron Energy =                 274.5572404230655934
    DFT Exchange-Correlation Energy =       0.0000000000000000
    Empirical Dispersion Energy =           0.0000000000000000
    PCM Polarization Energy =               0.0000000000000000
    EFP Energy =                            0.0000000000000000
    Total Energy =                       -266.9510717896211531
    Molecular point group: c1
  Basis Set: CC-PVTZ
  Basis Set:

  -Total Gradient:
     Atom            X                  Y                   Z
    ------   -----------------  -----------------  -----------------
       1       -0.000009168239    -0.000016754334     0.000006395037
       2       -0.000230974578     0.000347341345     0.000513790954
       3        0.000373945810    -0.000519164228    -0.000639935871
       4       -0.000460399868     0.000770007645    -0.000295012230
       5       -0.000004713461    -0.000030943711     0.000003802675
       6        0.000000188259    -0.000018617241    -0.000008344188
       7        0.000343859531    -0.000529540611     0.000413255668
       8       -0.000012921810     0.000000206663     0.000007622914
       9        0.000007605987    -0.000000042360     0.000001810843
      10       -0.000012684520     0.000003194416    -0.000000321461
      11        0.000005262889    -0.000005687583    -0.000003064340

  **** Optimization is complete! (in 6 steps) ****
    Final optimized geometry and variables:
    Molecular point group: c1

    Geometry (in Angstrom), charge = 0, multiplicity = 1:

    H            1.290478173180     1.559059514577    -0.597794667197
    O            0.453695609662     1.119445612945    -0.620680954863
    C            0.567473979596    -0.026008871612     0.042505954425
    C           -0.695967406157    -0.848008020216     0.044667603926
    O            1.581911110995    -0.357347714076     0.552780225849
    C           -1.999065081469    -0.056474016561     0.037455349921
    H           -0.637603355381    -1.487536495993    -0.831205540351
    H           -0.632816053296    -1.498825191034     0.904864604864
    H           -2.088520965378     0.551810400332    -0.851324030504
    H           -2.840101750414    -0.737579620147     0.070409702911
    H           -2.065517239288     0.597220534320     0.898748714245

  Mulliken Charges: (a.u.)
   Center  Symbol    Alpha    Beta     Spin     Total
       1     H     0.38108  0.38108  0.00000  0.23785
       2     O     4.15832  4.15832  0.00000 -0.31664
       3     C     2.80593  2.80593  0.00000  0.38815
       4     C     3.09305  3.09305  0.00000 -0.18609
       5     O     4.19500  4.19500  0.00000 -0.39000
       6     C     3.14351  3.14351  0.00000 -0.28703
       7     H     0.44404  0.44404  0.00000  0.11192
       8     H     0.43420  0.43420  0.00000  0.13160
       9     H     0.44600  0.44600  0.00000  0.10801
      10     H     0.44854  0.44854  0.00000  0.10291
      11     H     0.45033  0.45033  0.00000  0.09934

   Total alpha = 20.00000, Total beta = 20.00000, Total charge =  0.00000
