  ==> Input File <==

--------------------------------------------------------------------------
set {
	reference rhf
	basis 6-31G*
}

set_num_threads( 4 )
memory 2 gb

molecule MOL {
0 1

H	 5.202340	 1.444279	 -0.422439
C	 4.483997	 1.161359	 -1.185632
C	 3.147416	 0.758541	 -0.563967
H	 4.362537	 2.007498	 -1.855436
H	 4.914349	 0.344368	 -1.758451
C	 2.112560	 0.346686	 -1.613377
H	 2.760024	 1.586714	 0.020549
H	 3.306924	 -0.067430	 0.127423
C	 0.769691	 -0.079311	 -1.019662
H	 1.948322	 1.166626	 -2.303571
H	 2.507546	 -0.482997	 -2.195316
C	 -0.046127	 1.062562	 -0.431607
H	 0.153341	 -0.533887	 -1.793770
H	 0.905858	 -0.848754	 -0.262963
C	 -1.181045	 0.701995	 0.511084
O	 0.179897	 2.201590	 -0.710772
C	 -2.285934	 -0.139295	 -0.145128
H	 -1.590875	 1.632918	 0.884093
H	 -0.767658	 0.156495	 1.357385
C	 -3.651768	 0.085446	 0.506485
H	 -2.346596	 0.110469	 -1.202272
H	 -2.034737	 -1.195320	 -0.088721
C	 -4.759797	 -0.746382	 -0.137905
H	 -3.908762	 1.140117	 0.445781
H	 -3.588286	 -0.154158	 1.565709
H	 -4.868882	 -0.505166	 -1.191300
H	 -4.548009	 -1.809175	 -0.062213
H	 -5.715422	 -0.564821	 0.343442

	symmetry c1
}
set optking {
	frozen_dihedral = ("
		12 15 17 21
	")
}

ee = optimize('scf')
oeprop('DIPOLE', 'QUADRUPOLE', 'MULLIKEN_CHARGES')
f=open( 'psi4out.xyz', 'w' )
f.write( "28  " )
f.write( str(ee) + "\n" )
f.write( MOL.save_string_xyz() )
f.close()
--------------------------------------------------------------------------

    Molecular point group: c1
  Charge       = 0
  Multiplicity = 1
  Basis Set: 6-31G*
  Basis Set:
  @DF-RHF Final Energy:  -426.16708760359381
    Total Energy =                       -426.1670876035930178
    Molecular point group: c1
  Basis Set: 6-31G*
  Basis Set:
  Basis Set: 6-31G*
  Basis Set:
  @DF-RHF Final Energy:  -426.16693000606767
    Total Energy =                       -426.1669300060679006
  Basis Set: 6-31G*
  Basis Set:
  Basis Set: 6-31G*
  Basis Set:
  @DF-RHF Final Energy:  -426.16566045766285
    Total Energy =                       -426.1656604576627387
  Basis Set: 6-31G*
  Basis Set:
  Basis Set: 6-31G*
  Basis Set:
  @DF-RHF Final Energy:  -426.16734306843739
    Total Energy =                       -426.1673430684377308
  Basis Set: 6-31G*
  Basis Set:
  @DF-RHF Final Energy:  -426.16735611779677
    Total Energy =                       -426.1673561177968850
  @DF-RHF Final Energy:  -426.16742998960297
    Total Energy =                       -426.1674299896028515
  @DF-RHF Final Energy:  -426.16744830766652
    Total Energy =                       -426.1674483076669731
  @DF-RHF Final Energy:  -426.16746356769045
    Total Energy =                       -426.1674635676909020
  @DF-RHF Final Energy:  -426.16746924430504
    Total Energy =                       -426.1674692443050390
  @DF-RHF Final Energy:  -426.16747253961410
    Total Energy =                       -426.1674725396144368
  Basis Set: 6-31G*
  Basis Set:
  @DF-RHF Final Energy:  -426.16747532121053
    Total Energy =                       -426.1674753212100768
  Basis Set: 6-31G*
  Basis Set:
  Basis Set: 6-31G*
  Basis Set:
  @DF-RHF Final Energy:  -426.16747907779779
    Total Energy =                       -426.1674790777974522
  Basis Set: 6-31G*
  Basis Set:
  Basis Set: 6-31G*
  Basis Set:
  @DF-RHF Final Energy:  -426.16748091527518
    Total Energy =                       -426.1674809152750640
  Basis Set: 6-31G*
  Basis Set:
  Charge       = 0
  Multiplicity = 1
  Basis Set: 6-31G*
  Basis Set:

    Orbital Energies (a.u.)
    -----------------------

    Doubly Occupied:

       1A    -20.547916     2A    -11.322431     3A    -11.231440
       4A    -11.230515     5A    -11.228137     6A    -11.224635
       7A    -11.216100     8A    -11.214801     9A    -11.210175
      10A    -11.204520    11A     -1.393507    12A     -1.092531
      13A     -1.076845    14A     -1.022223    15A     -0.990035
      16A     -0.908108    17A     -0.870398    18A     -0.808414
      19A     -0.797727    20A     -0.725076    21A     -0.671633
      22A     -0.643482    23A     -0.631680    24A     -0.616926
      25A     -0.607038    26A     -0.588136    27A     -0.576123
      28A     -0.572952    29A     -0.538556    30A     -0.533246
      31A     -0.524740    32A     -0.507557    33A     -0.499928
      34A     -0.481832    35A     -0.477086    36A     -0.473300
      37A     -0.468824    38A     -0.463585    39A     -0.454587
      40A     -0.392013

  @DF-RHF Final Energy:  -426.16748139866490

   => Energetics <=

    Nuclear Repulsion Energy =            530.4618658186458333
    One-Electron Energy =               -1629.1811728634620522
    Two-Electron Energy =                 672.5518256461507463
    DFT Exchange-Correlation Energy =       0.0000000000000000
    Empirical Dispersion Energy =           0.0000000000000000
    PCM Polarization Energy =               0.0000000000000000
    EFP Energy =                            0.0000000000000000
    Total Energy =                       -426.1674813986653589
    Molecular point group: c1
  Basis Set: 6-31G*
  Basis Set:

  -Total Gradient:
     Atom            X                  Y                   Z
    ------   -----------------  -----------------  -----------------
       1       -0.000000374493    -0.000001720991     0.000000705190
       2       -0.000000816927     0.000002578847     0.000000955228
       3        0.000020020978    -0.000019538617    -0.000003736563
       4       -0.000003169838    -0.000004432146     0.000003442001
       5        0.000001473470    -0.000002529489     0.000002107237
       6       -0.000007449515     0.000006481592    -0.000015502378
       7        0.000002763447     0.000015882510    -0.000001078251
       8       -0.000008736970     0.000002327034     0.000004294742
       9        0.000003204781    -0.000008492242     0.000004311394
      10       -0.000004930954    -0.000000759751    -0.000000783213
      11        0.000000530631     0.000007011099    -0.000001297117
      12       -0.000977733451     0.002553393801    -0.000197977565
      13       -0.000004568558     0.000001674937     0.000001058282
      14       -0.000004474266    -0.000007256566     0.000003894254
      15        0.001878590432    -0.004121196521    -0.000041886915
      16       -0.000014835685     0.000001660289     0.000017692176
      17       -0.003107749576     0.004334913691     0.001559163973
      18       -0.000004567995     0.000003996120    -0.000002112847
      19        0.000012757851     0.000009166169    -0.000003033143
      20        0.000007882723     0.000001401122    -0.000000724273
      21        0.002209229470    -0.002770182231    -0.001327376510
      22       -0.000004520771    -0.000001703329    -0.000000251278
      23        0.000004033744    -0.000002253614    -0.000003192692
      24       -0.000002144238     0.000005384848     0.000003157408
      25        0.000005937975    -0.000003291594    -0.000004379148
      26        0.000004641142    -0.000004290878     0.000000410847
      27       -0.000004299696    -0.000002438598     0.000002651405
      28       -0.000000693706     0.000004214501    -0.000000512245

  **** Optimization is complete! (in 14 steps) ****
    Final optimized geometry and variables:
    Molecular point group: c1

    Geometry (in Angstrom), charge = 0, multiplicity = 1:

    H            5.268504750627     1.412769988385    -0.458786703488
    C            4.531356784078     0.875282362589    -1.047231788237
    C            3.344994485647     0.444485747596    -0.185827350962
    H            4.210726374535     1.529559106949    -1.852598081575
    H            5.026664950054     0.017527592132    -1.494417557123
    C            2.290653474526    -0.326227581910    -0.983810797041
    H            2.889098337543     1.319637792591     0.263524062933
    H            3.702692487195    -0.180279401409     0.631184538431
    C            1.096604554972    -0.784609199614    -0.147332728858
    H            1.934144515519     0.288852275400    -1.803369613290
    H            2.754804407639    -1.204218156017    -1.427505271337
    C            0.129340503291     0.318294323930     0.246562994290
    H            0.517205747812    -1.530668991823    -0.690392282064
    H            1.429332792707    -1.284649145987     0.760624649651
    C           -1.060653924783    -0.079232277010     1.103474613616
    O            0.256182513778     1.444494428412    -0.129643156980
    C           -2.232958411599    -0.599289865161     0.244443395706
    H           -1.367910976301     0.815348240173     1.632972059957
    H           -0.778740545821    -0.825861514753     1.839484134753
    C           -3.593311044552    -0.393731276488     0.910535739195
    H           -2.215867319999    -0.115633113926    -0.728905975571
    H           -2.089978767646    -1.659531171849     0.046553277374
    C           -4.747680934894    -0.965495983180     0.089088845218
    H           -3.753159500812     0.669232755454     1.071793866916
    H           -3.584403277194    -0.856278930456     1.895275622020
    H           -4.796342164829    -0.502902858577    -0.892429258616
    H           -4.635549316868    -2.036368820487    -0.054916619035
    H           -5.699686004220    -0.796162963515     0.582025413879

  Mulliken Charges: (a.u.)
   Center  Symbol    Alpha    Beta     Spin     Total
       1     H     0.41943  0.41943  0.00000  0.16115
       2     C     3.24027  3.24027  0.00000 -0.48055
       3     C     3.15609  3.15609  0.00000 -0.31217
       4     H     0.41879  0.41879  0.00000  0.16242
       5     H     0.42415  0.42415  0.00000  0.15171
       6     C     3.14866  3.14866  0.00000 -0.29732
       7     H     0.40689  0.40689  0.00000  0.18622
       8     H     0.42819  0.42819  0.00000  0.14362
       9     C     3.21256  3.21256  0.00000 -0.42513
      10     H     0.40932  0.40932  0.00000  0.18136
      11     H     0.42215  0.42215  0.00000  0.15571
      12     C     2.73792  2.73792  0.00000  0.52416
      13     H     0.40526  0.40526  0.00000  0.18948
      14     H     0.40992  0.40992  0.00000  0.18015
      15     C     3.19808  3.19808  0.00000 -0.39617
      16     O     4.26647  4.26647  0.00000 -0.53294
      17     C     3.16181  3.16181  0.00000 -0.32362
      18     H     0.40049  0.40049  0.00000  0.19902
      19     H     0.41410  0.41410  0.00000  0.17181
      20     C     3.15231  3.15231  0.00000 -0.30462
      21     H     0.41018  0.41018  0.00000  0.17963
      22     H     0.42011  0.42011  0.00000  0.15977
      23     C     3.24107  3.24107  0.00000 -0.48213
      24     H     0.41675  0.41675  0.00000  0.16650
      25     H     0.42145  0.42145  0.00000  0.15710
      26     H     0.41917  0.41917  0.00000  0.16167
      27     H     0.42138  0.42138  0.00000  0.15725
      28     H     0.41703  0.41703  0.00000  0.16594

   Total alpha = 40.00000, Total beta = 40.00000, Total charge =  0.00000
