                              Psi4 1.0.54 Driver

  ==> Input File <==

--------------------------------------------------------------------------
set {
	reference rhf
	basis cc-pvtz
}

set_num_threads( 4 )
memory 2 gb

molecule MOL {
0 1

O	 -2.374409	 1.338660	 -0.336961
C	 -2.104891	 0.204655	 -0.107126
C	 -0.881910	 -0.448129	 -0.720509
C	 -2.949910	 -0.638219	 0.818225
C	 -0.753328	 -1.908820	 -0.270297
H	 -0.013847	 0.110383	 -0.393948
H	 -0.932130	 -0.398860	 -1.803059
C	 0.479233	 -2.590949	 -0.860212
H	 -0.716623	 -1.928716	 0.811593
H	 -1.641970	 -2.462409	 -0.563814
C	 0.626540	 -4.068060	 -0.490956
H	 1.369679	 -2.052128	 -0.545954
H	 0.439634	 -2.507644	 -1.942846
C	 0.887538	 -4.331895	 0.989973
H	 1.446489	 -4.483331	 -1.068487
H	 -0.264949	 -4.606242	 -0.802307
H	 1.770719	 -3.800902	 1.330014
H	 1.049569	 -5.388695	 1.167992
H	 0.056197	 -4.021673	 1.611193
H	 -3.440322	 -1.417144	 0.243099
H	 -3.694377	 -0.025850	 1.303346
H	 -2.331085	 -1.129829	 1.560495

	symmetry c1
}
set optking {
	frozen_dihedral = ("
		6 3 2 1
	")
}

ee,wfn = optimize('scf', return_wfn=True)
oeprop( wfn, 'DIPOLE', 'QUADRUPOLE', 'MULLIKEN_CHARGES')
f=open( 'psi4out.xyz', 'w' )
f.write( "22  " )
f.write( str(ee) + "\n" )
f.write( MOL.save_string_xyz() )
f.close()
--------------------------------------------------------------------------

    Molecular point group: c1
  Charge       = 0
  Multiplicity = 1
  Basis Set: CC-PVTZ
  Basis Set:
  @DF-RHF Final Energy:  -348.21481369620165
    Total Energy =                       -348.2148136962024410
    Molecular point group: c1
  Basis Set: CC-PVTZ
  Basis Set:
  Basis Set: CC-PVTZ
  Basis Set:
  @DF-RHF Final Energy:  -348.20681554045700
    Total Energy =                       -348.2068155404573417
  Basis Set: CC-PVTZ
  Basis Set:
  Basis Set: CC-PVTZ
  Basis Set:
  @DF-RHF Final Energy:  -348.21971844963304
    Total Energy =                       -348.2197184496328646
  Basis Set: CC-PVTZ
  Basis Set:
  Basis Set: CC-PVTZ
  Basis Set:
  @DF-RHF Final Energy:  -348.21990187750180
    Total Energy =                       -348.2199018775016839
  Basis Set: CC-PVTZ
  Basis Set:
  @DF-RHF Final Energy:  -348.22039387039274
    Total Energy =                       -348.2203938703931954
  @DF-RHF Final Energy:  -348.22063494924544
    Total Energy =                       -348.2206349492455502
  @DF-RHF Final Energy:  -348.22067031685572
    Total Energy =                       -348.2206703168561717
  Basis Set: CC-PVTZ
  Basis Set:
  @DF-RHF Final Energy:  -348.22068352050007
    Total Energy =                       -348.2206835204998470
  Basis Set: CC-PVTZ
  Basis Set:
  Basis Set: CC-PVTZ
  Basis Set:
  @DF-RHF Final Energy:  -348.22068252372520
    Total Energy =                       -348.2206825237248040
  Basis Set: CC-PVTZ
  Basis Set:
  Basis Set: CC-PVTZ
  Basis Set:
  @DF-RHF Final Energy:  -348.22068766715017
    Total Energy =                       -348.2206876671501732
  Basis Set: CC-PVTZ
  Basis Set:
  Charge       = 0
  Multiplicity = 1
  Basis Set: CC-PVTZ
  Basis Set:

    Orbital Energies (a.u.)
    -----------------------

    Doubly Occupied:

       1A    -20.534199     2A    -11.320789     3A    -11.229005
       4A    -11.227661     5A    -11.226451     6A    -11.222507
       7A    -11.221350     8A    -11.213450     9A     -1.395937
      10A     -1.099781    11A     -1.045960    12A     -0.997756
      13A     -0.942385    14A     -0.864736    15A     -0.789785
      16A     -0.732489    17A     -0.661818    18A     -0.650348
      19A     -0.634132    20A     -0.616943    21A     -0.606686
      22A     -0.584380    23A     -0.557393    24A     -0.545581
      25A     -0.538996    26A     -0.518416    27A     -0.511502
      28A     -0.479549    29A     -0.475448    30A     -0.468566
      31A     -0.465340    32A     -0.398179

  @DF-RHF Final Energy:  -348.22068780836565

   => Energetics <=

    Nuclear Repulsion Energy =            373.0511378319511664
    One-Electron Energy =               -1210.9886157488663230
    Two-Electron Energy =                 489.7167901085491621
    DFT Exchange-Correlation Energy =       0.0000000000000000
    Empirical Dispersion Energy =           0.0000000000000000
    PCM Polarization Energy =               0.0000000000000000
    EFP Energy =                            0.0000000000000000
    Total Energy =                       -348.2206878083660513
    Molecular point group: c1
  Basis Set: CC-PVTZ
  Basis Set:

  -Total Gradient:
     Atom            X                  Y                   Z
    ------   -----------------  -----------------  -----------------
       1        0.000294559233     0.000284620323     0.000344040038
       2       -0.000383348949    -0.000236898710    -0.000628853370
       3        0.000082524949    -0.000201140330     0.000687132639
       4       -0.000026536438    -0.000002351433    -0.000041379153
       5        0.000000828765    -0.000007446204     0.000013338647
       6        0.000041147650     0.000214615819    -0.000454031481
       7       -0.000034392815     0.000006348098     0.000002000115
       8        0.000016917040     0.000013342222     0.000009698114
       9       -0.000008057303    -0.000003726858     0.000008493391
      10       -0.000010444033    -0.000000975622    -0.000007157751
      11       -0.000006215721     0.000009278673    -0.000002296363
      12        0.000013380478     0.000003603519    -0.000004482202
      13       -0.000003020720    -0.000001145297    -0.000014101208
      14       -0.000000139596    -0.000010508592     0.000008612813
      15        0.000007891214     0.000000177269    -0.000005247892
      16       -0.000004360639    -0.000007338170    -0.000001820421
      17        0.000006833602     0.000002867011    -0.000001233784
      18       -0.000002250427    -0.000002048462     0.000005476004
      19       -0.000008022821     0.000001419438     0.000005209118
      20       -0.000021606320    -0.000046507326    -0.000011522707
      21        0.000016456644     0.000000749901    -0.000009032345
      22        0.000027856206    -0.000016935262     0.000097157797

  **** Optimization is complete! (in 11 steps) ****
    Final optimized geometry and variables:
    Molecular point group: c1

    Geometry (in Angstrom), charge = 0, multiplicity = 1:

    O           -1.204919265767     2.927987548200    -0.812379024245
    C           -1.122514262619     1.856651698736    -0.305130701366
    C            0.065901878888     0.964320120368    -0.640897878131
    C           -2.168690574903     1.383366179677     0.676292196731
    C            0.106969538970    -0.444234637907    -0.054900944778
    H            0.946306771465     1.522922347760    -0.338095636030
    H            0.106671142144     0.922673018820    -1.723939211995
    C            1.365070377886    -1.198938081772    -0.482971597874
    H            0.061116883856    -0.394206497318     1.026759419039
    H           -0.765882704372    -1.005425477620    -0.376510389388
    C            1.435999442255    -2.648823180891    -0.001247904101
    H            2.242446770314    -0.661196075230    -0.131467669512
    H            1.421209092615    -1.192638439414    -1.567775462677
    C            1.556064964567    -2.814470217480     1.511769783310
    H            2.291951420251    -3.122249360414    -0.471615383516
    H            0.560953635798    -3.187552122490    -0.355115084601
    H            2.418432849077    -2.278514710469     1.895075024568
    H            1.674359070754    -3.859173293765     1.774854528343
    H            0.679793257610    -2.447007874466     2.032378079868
    H           -2.621163643570     0.458862242643     0.337279574923
    H           -2.926480665648     2.144192593099     0.779885724233
    H           -1.716966370914     1.185168804999     1.641867010108

  Mulliken Charges: (a.u.)
   Center  Symbol    Alpha    Beta     Spin     Total
       1     O     4.17702  4.17702  0.00000 -0.35404
       2     C     2.86116  2.86116  0.00000  0.27769
       3     C     3.09910  3.09910  0.00000 -0.19820
       4     C     3.16360  3.16360  0.00000 -0.32720
       5     C     3.10466  3.10466  0.00000 -0.20931
       6     H     0.43808  0.43808  0.00000  0.12384
       7     H     0.43682  0.43682  0.00000  0.12637
       8     C     3.09681  3.09681  0.00000 -0.19363
       9     H     0.44856  0.44856  0.00000  0.10287
      10     H     0.45044  0.45044  0.00000  0.09912
      11     C     3.09027  3.09027  0.00000 -0.18054
      12     H     0.45171  0.45171  0.00000  0.09659
      13     H     0.44687  0.44687  0.00000  0.10626
      14     C     3.15304  3.15304  0.00000 -0.30607
      15     H     0.44664  0.44664  0.00000  0.10671
      16     H     0.45403  0.45403  0.00000  0.09193
      17     H     0.45376  0.45376  0.00000  0.09247
      18     H     0.44474  0.44474  0.00000  0.11053
      19     H     0.45488  0.45488  0.00000  0.09024
      20     H     0.44823  0.44823  0.00000  0.10353
      21     H     0.43164  0.43164  0.00000  0.13671
      22     H     0.44794  0.44794  0.00000  0.10412

   Total alpha = 32.00000, Total beta = 32.00000, Total charge =  0.00000

*** Psi4 exiting successfully. Buy a developer a beer!
