  ==> Input File <==

--------------------------------------------------------------------------
set {
	reference rhf
	basis cc-pvtz
}

set_num_threads( 4 )
memory 2 gb

molecule MOL {
0 1

H	 -2.362939	 -1.309000	 -0.383250
C	 -1.359344	 -1.272457	 0.020748
C	 -0.684082	 0.000127	 -0.464918
H	 -0.825835	 -2.151141	 -0.318537
H	 -1.416276	 -1.292399	 1.099455
C	 -1.359089	 1.272668	 0.021259
N	 0.742439	 -0.000109	 0.007333
H	 -0.596914	 0.000345	 -1.538146
H	 -2.362696	 1.309620	 -0.382686
H	 -0.825392	 2.151374	 -0.317674
H	 -1.415983	 1.292181	 1.099973
O	 1.316479	 -1.036504	 0.004696
O	 1.204158	 1.036152	 0.352686

	symmetry c1
}
set optking {
	frozen_dihedral = ("
		12 7 3 8
	")
}

ee = optimize('scf')
oeprop('DIPOLE', 'QUADRUPOLE', 'MULLIKEN_CHARGES')
f=open( 'psi4out.xyz', 'w' )
f.write( "13  " )
f.write( str(ee) + "\n" )
f.write( MOL.save_string_xyz() )
f.close()
--------------------------------------------------------------------------

    Molecular point group: c1
  Charge       = 0
  Multiplicity = 1
  Basis Set: CC-PVTZ
  Basis Set:
  @DF-RHF Final Energy:  -321.86124495463480
    Total Energy =                       -321.8612449546347420
    Molecular point group: c1
  Basis Set: CC-PVTZ
  Basis Set:
  Basis Set: CC-PVTZ
  Basis Set:
  @DF-RHF Final Energy:  -321.85890519860993
    Total Energy =                       -321.8589051986099321
  Basis Set: CC-PVTZ
  Basis Set:
  Basis Set: CC-PVTZ
  Basis Set:
  @DF-RHF Final Energy:  -321.85946798117448
    Total Energy =                       -321.8594679811745891
  Basis Set: CC-PVTZ
  Basis Set:
  Basis Set: CC-PVTZ
  Basis Set:
  @DF-RHF Final Energy:  -321.86181062007273
    Total Energy =                       -321.8618106200726743
  Basis Set: CC-PVTZ
  Basis Set:
  Basis Set: CC-PVTZ
  Basis Set:
  @DF-RHF Final Energy:  -321.86217738237116
    Total Energy =                       -321.8621773823713283
  Basis Set: CC-PVTZ
  Basis Set:
  Basis Set: CC-PVTZ
  Basis Set:
  @DF-RHF Final Energy:  -321.86219596385649
    Total Energy =                       -321.8621959638560952
  Basis Set: CC-PVTZ
  Basis Set:
  Basis Set: CC-PVTZ
  Basis Set:
  @DF-RHF Final Energy:  -321.86219857399152
    Total Energy =                       -321.8621985739917477
  Basis Set: CC-PVTZ
  Basis Set:
  Charge       = 0
  Multiplicity = 1
  Basis Set: CC-PVTZ
  Basis Set:

    Orbital Energies (a.u.)
    -----------------------

    Doubly Occupied:

       1A    -20.589729     2A    -20.587130     3A    -15.833987
       4A    -11.307029     5A    -11.239211     6A    -11.237651
       7A     -1.634515     8A     -1.418127     9A     -1.139670
      10A     -0.967589    11A     -0.958371    12A     -0.814932
      13A     -0.765107    14A     -0.730062    15A     -0.722913
      16A     -0.639700    17A     -0.596078    18A     -0.586280
      19A     -0.570379    20A     -0.522101    21A     -0.521404
      22A     -0.483254    23A     -0.472406    24A     -0.452224

  @DF-RHF Final Energy:  -321.86219903316874

   => Energetics <=

    Nuclear Repulsion Energy =            257.2264711026657551
    One-Electron Energy =                -948.5976416474866255
    Two-Electron Energy =                 369.5089715116522484
    DFT Exchange-Correlation Energy =       0.0000000000000000
    Empirical Dispersion Energy =           0.0000000000000000
    PCM Polarization Energy =               0.0000000000000000
    EFP Energy =                            0.0000000000000000
    Total Energy =                       -321.8621990331686220
    Molecular point group: c1
  Basis Set: CC-PVTZ
  Basis Set:

  -Total Gradient:
     Atom            X                  Y                   Z
    ------   -----------------  -----------------  -----------------
       1        0.000005894906     0.000003827740    -0.000001184888
       2        0.000004694811    -0.000004658651     0.000007354703
       3       -0.000072580288    -0.000806273707     0.000221591627
       4        0.000003792742    -0.000016091498    -0.000001022297
       5        0.000000281157     0.000001066767    -0.000001042849
       6       -0.000012038439     0.000013142700    -0.000007725876
       7        0.000247894658     0.000237259252    -0.000888598653
       8        0.000011516364     0.000670917694     0.000011467863
       9        0.000008983216    -0.000003349906     0.000002192898
      10       -0.000005365704     0.000007852689     0.000000734670
      11       -0.000000240275    -0.000003275562     0.000005899153
      12       -0.000214459903    -0.000092812110     0.000642437529
      13        0.000021626753    -0.000007605406     0.000007896121

  **** Optimization is complete! (in 8 steps) ****
    Final optimized geometry and variables:
    Molecular point group: c1

    Geometry (in Angstrom), charge = 0, multiplicity = 1:

    H           -2.395020650417    -1.256229989542    -0.367907447587
    C           -1.380997108190    -1.266823923712     0.010323804478
    C           -0.686254177383     0.007371023637    -0.440971657908
    H           -0.880042639106    -2.146139165256    -0.359738133002
    H           -1.423055472712    -1.319968361781     1.091336632067
    C           -1.390007812686     1.273190562639     0.012943869434
    N            0.753926213890    -0.000719967594     0.021950017524
    H           -0.581710939076     0.010341072677    -1.518590998113
    H           -2.400824915288     1.255600140182    -0.374550399556
    H           -0.894964061611     2.159204289598    -0.350408666535
    H           -1.439165183483     1.325558895236     1.092800933177
    O            1.319955450513    -1.042108516818     0.009696902514
    O            1.244795625324     1.030644933016     0.334055912252

  Mulliken Charges: (a.u.)
   Center  Symbol    Alpha    Beta     Spin     Total
       1     H     0.45055  0.45055  0.00000  0.09889
       2     C     3.14378  3.14378  0.00000 -0.28755
       3     C     3.00662  3.00662  0.00000 -0.01325
       4     H     0.43082  0.43082  0.00000  0.13835
       5     H     0.44648  0.44648  0.00000  0.10705
       6     C     3.14270  3.14270  0.00000 -0.28540
       7     N     3.27537  3.27537  0.00000  0.44925
       8     H     0.43056  0.43056  0.00000  0.13887
       9     H     0.45062  0.45062  0.00000  0.09877
      10     H     0.43315  0.43315  0.00000  0.13370
      11     H     0.44517  0.44517  0.00000  0.10966
      12     O     4.17351  4.17351  0.00000 -0.34702
      13     O     4.17066  4.17066  0.00000 -0.34133

   Total alpha = 24.00000, Total beta = 24.00000, Total charge = -0.00000
