  ==> Input File <==

--------------------------------------------------------------------------
set {
	reference rhf
	basis 6-31G*
}

set_num_threads( 4 )
memory 2 gb

molecule MOL {
0 1

H	 -3.161837	 0.500524	 -0.000234
C	 -2.367097	 -0.232926	 -0.000000
O	 -1.158440	 0.455814	 -0.000122
H	 -2.468853	 -0.861886	 -0.882833
H	 -2.468942	 -0.861421	 0.883154
C	 -0.029776	 -0.365156	 0.000148
C	 1.212217	 0.508981	 0.000007
H	 -0.036772	 -1.013236	 -0.877259
H	 -0.036869	 -1.012778	 0.877897
C	 2.339974	 -0.078115	 -0.847556
H	 0.940195	 1.493482	 -0.367993
H	 1.542360	 0.638279	 1.026159
H	 2.037754	 -0.193033	 -1.884803
H	 3.213206	 0.565299	 -0.829395
H	 2.643789	 -1.054766	 -0.481152

	symmetry c1
}
set optking {
	frozen_dihedral = ("
		11 7 6 8
	")
}

ee = optimize('scf')
oeprop('DIPOLE', 'QUADRUPOLE', 'MULLIKEN_CHARGES')
f=open( 'psi4out.xyz', 'w' )
f.write( "15  " )
f.write( str(ee) + "\n" )
f.write( MOL.save_string_xyz() )
f.close()
--------------------------------------------------------------------------

    Molecular point group: c1
  Charge       = 0
  Multiplicity = 1
  Basis Set: 6-31G*
  Basis Set:
  @DF-RHF Final Energy:  -232.13516041406842
    Total Energy =                       -232.1351604140685367
    Molecular point group: c1
  Basis Set: 6-31G*
  Basis Set:
  Basis Set: 6-31G*
  Basis Set:
  @DF-RHF Final Energy:  -232.13549353336052
    Total Energy =                       -232.1354935333606591
  Basis Set: 6-31G*
  Basis Set:
  Basis Set: 6-31G*
  Basis Set:
  @DF-RHF Final Energy:  -232.13558133842059
    Total Energy =                       -232.1355813384205931
  Basis Set: 6-31G*
  Basis Set:
  Basis Set: 6-31G*
  Basis Set:
  @DF-RHF Final Energy:  -232.13558292832263
    Total Energy =                       -232.1355829283226058
  Basis Set: 6-31G*
  Basis Set:
  Charge       = 0
  Multiplicity = 1
  Basis Set: 6-31G*
  Basis Set:

    Orbital Energies (a.u.)
    -----------------------

    Doubly Occupied:

       1A    -20.554261     2A    -11.266403     3A    -11.264090
       4A    -11.213916     5A    -11.212359     6A     -1.378869
       7A     -1.054898     8A     -0.955130     9A     -0.878212
      10A     -0.809652    11A     -0.671357    12A     -0.656276
      13A     -0.631720    14A     -0.600749    15A     -0.568251
      16A     -0.543592    17A     -0.499786    18A     -0.489839
      19A     -0.476484    20A     -0.461491    21A     -0.411941

  @DF-RHF Final Energy:  -232.13558349748411

   => Energetics <=

    Nuclear Repulsion Energy =            189.6428420248142857
    One-Electron Energy =                -690.3582979390307628
    Two-Electron Energy =                 268.5798724167320870
    DFT Exchange-Correlation Energy =       0.0000000000000000
    Empirical Dispersion Energy =           0.0000000000000000
    PCM Polarization Energy =               0.0000000000000000
    EFP Energy =                            0.0000000000000000
    Total Energy =                       -232.1355834974843901
    Molecular point group: c1
  Basis Set: 6-31G*
  Basis Set:

  -Total Gradient:
     Atom            X                  Y                   Z
    ------   -----------------  -----------------  -----------------
       1       -0.000029463285    -0.000012133066    -0.000004342160
       2       -0.000035262032     0.000017411811     0.000009845413
       3        0.000094005996    -0.000072861014     0.000006335419
       4       -0.000003306414     0.000003161122     0.000000590246
       5       -0.000006513146    -0.000001093758    -0.000004374732
       6       -0.002827093491     0.004318637571    -0.001979426822
       7        0.001704701820    -0.002442354189    -0.004562400752
       8        0.002159687254    -0.003176116520     0.002316563802
       9       -0.000049556052     0.000023433643     0.000023232618
      10       -0.000023359981     0.000025907980    -0.000005044724
      11       -0.000952227747     0.001319054277     0.004154863803
      12       -0.000017352341    -0.000017507614     0.000023012241
      13        0.000011003939     0.000009310377     0.000010941661
      14        0.000000781970    -0.000001723110     0.000002969408
      15       -0.000026046486     0.000006872491     0.000007234576

  **** Optimization is complete! (in 5 steps) ****
    Final optimized geometry and variables:
    Molecular point group: c1

    Geometry (in Angstrom), charge = 0, multiplicity = 1:

    H           -3.142531492628     0.442779116724     0.222236216532
    C           -2.343345399984    -0.285730361630     0.208632560386
    O           -1.139554895509     0.410073118518     0.162271137697
    H           -2.467202551100    -0.927508239171    -0.662069713738
    H           -2.414020097471    -0.902560903628     1.102914180065
    C           -0.008318226103    -0.405579324433     0.133297560992
    C            1.248181018407     0.465224184659     0.150044733398
    H           -0.017747399064    -1.053053264962    -0.744815054141
    H           -0.013438893140    -1.074506264890     0.994758529499
    C            2.404862288348    -0.128136080671    -0.650311786106
    H            0.976797922894     1.448835338861    -0.217514984588
    H            1.560208545593     0.617938506949     1.179722865383
    H            2.148816402428    -0.218671859795    -1.701786948903
    H            3.290329675698     0.494452936602    -0.575667618305
    H            2.669046122972    -1.118207646474    -0.287847468671

  Mulliken Charges: (a.u.)
   Center  Symbol    Alpha    Beta     Spin     Total
       1     H     0.41210  0.41210  0.00000  0.17581
       2     C     3.07988  3.07988  0.00000 -0.15976
       3     O     4.30474  4.30474  0.00000 -0.60949
       4     H     0.43022  0.43022  0.00000  0.13956
       5     H     0.43017  0.43017  0.00000  0.13965
       6     C     2.98513  2.98513  0.00000  0.02974
       7     C     3.16450  3.16450  0.00000 -0.32900
       8     H     0.43174  0.43174  0.00000  0.13651
       9     H     0.43235  0.43235  0.00000  0.13530
      10     C     3.24643  3.24643  0.00000 -0.49286
      11     H     0.40632  0.40632  0.00000  0.18735
      12     H     0.41846  0.41846  0.00000  0.16308
      13     H     0.41887  0.41887  0.00000  0.16226
      14     H     0.41691  0.41691  0.00000  0.16617
      15     H     0.42217  0.42217  0.00000  0.15567

   Total alpha = 21.00000, Total beta = 21.00000, Total charge =  0.00000
