  ==> Input File <==

--------------------------------------------------------------------------
set {
	reference rhf
	basis cc-pvtz
}

set_num_threads( 4 )
memory 2 gb

molecule MOL {
0 1

O	 0.729829	 2.073823	 -0.272783
C	 -0.290338	 2.358117	 -0.801459
C	 -1.547378	 1.526877	 -0.782642
O	 -0.461047	 3.471985	 -1.494663
C	 -1.413045	 0.229353	 0.001137
H	 -2.338081	 2.150320	 -0.378182
H	 -1.821069	 1.335840	 -1.815143
C	 -2.702562	 -0.586401	 0.000228
H	 -1.122205	 0.455402	 1.020869
H	 -0.605225	 -0.360144	 -0.417750
C	 -3.953810	 0.284959	 -0.000782
H	 -2.717793	 -1.238567	 -0.869075
H	 -2.719108	 -1.238472	 0.869576
H	 -3.983727	 0.924403	 -0.876454
H	 -4.852989	 -0.320147	 -0.001515
H	 -3.985140	 0.924399	 0.874841
C	 0.642310	 4.349402	 -1.594975
H	 0.950206	 4.688272	 -0.616919
H	 0.306116	 5.183625	 -2.189040
H	 1.475830	 3.860373	 -2.076968

	symmetry c1
}
set optking {
	frozen_dihedral = ("
		9 5 8 12
	")
}

ee = optimize('scf')
oeprop('DIPOLE', 'QUADRUPOLE', 'MULLIKEN_CHARGES')
f=open( 'psi4out.xyz', 'w' )
f.write( "20  " )
f.write( str(ee) + "\n" )
f.write( MOL.save_string_xyz() )
f.close()
--------------------------------------------------------------------------

    Molecular point group: c1
  Charge       = 0
  Multiplicity = 1
  Basis Set: CC-PVTZ
  Basis Set:
  @DF-RHF Final Energy:  -384.07546003775525
    Total Energy =                       -384.0754600377549650
    Molecular point group: c1
  Basis Set: CC-PVTZ
  Basis Set:
  Basis Set: CC-PVTZ
  Basis Set:
  @DF-RHF Final Energy:  -384.07693754239489
    Total Energy =                       -384.0769375423948304
  Basis Set: CC-PVTZ
  Basis Set:
  Basis Set: CC-PVTZ
  Basis Set:
  @DF-RHF Final Energy:  -384.07847407961617
    Total Energy =                       -384.0784740796163987
  Basis Set: CC-PVTZ
  Basis Set:
  Basis Set: CC-PVTZ
  Basis Set:
  @DF-RHF Final Energy:  -384.07823092911440
    Total Energy =                       -384.0782309291140564
  Basis Set: CC-PVTZ
  Basis Set:
  Basis Set: CC-PVTZ
  Basis Set:
  @DF-RHF Final Energy:  -384.07850325291503
    Total Energy =                       -384.0785032529151977
  Basis Set: CC-PVTZ
  Basis Set:
  Basis Set: CC-PVTZ
  Basis Set:
  @DF-RHF Final Energy:  -384.07864146992887
    Total Energy =                       -384.0786414699283569
  Basis Set: CC-PVTZ
  Basis Set:
  Charge       = 0
  Multiplicity = 1
  Basis Set: CC-PVTZ
  Basis Set:

    Orbital Energies (a.u.)
    -----------------------

    Doubly Occupied:

       1A    -20.596214     2A    -20.534139     3A    -11.364602
       4A    -11.278425     5A    -11.233639     6A    -11.218457
       7A    -11.217209     8A    -11.211504     9A     -1.472187
      10A     -1.365782    11A     -1.088628    12A     -1.023174
      13A     -0.968576    14A     -0.898769    15A     -0.799539
      16A     -0.763926    17A     -0.703877    18A     -0.686057
      19A     -0.675519    20A     -0.638948    21A     -0.608586
      22A     -0.593676    23A     -0.569605    24A     -0.549894
      25A     -0.540264    26A     -0.524135    27A     -0.512415
      28A     -0.474494    29A     -0.471880    30A     -0.465054
      31A     -0.456991    32A     -0.441134

  @DF-RHF Final Energy:  -384.07864225066641

   => Energetics <=

    Nuclear Repulsion Energy =            385.8684880703912654
    One-Electron Energy =               -1287.9996569925904168
    Two-Electron Energy =                 518.0525266715329735
    DFT Exchange-Correlation Energy =       0.0000000000000000
    Empirical Dispersion Energy =           0.0000000000000000
    PCM Polarization Energy =               0.0000000000000000
    EFP Energy =                            0.0000000000000000
    Total Energy =                       -384.0786422506661211
    Molecular point group: c1
  Basis Set: CC-PVTZ
  Basis Set:

  -Total Gradient:
     Atom            X                  Y                   Z
    ------   -----------------  -----------------  -----------------
       1        0.000011774800    -0.000006408425    -0.000031019884
       2       -0.000037872161     0.000024219388     0.000091742229
       3        0.000010036511     0.000037399697     0.000005470669
       4        0.000000192276    -0.000040259892    -0.000017607333
       5       -0.003418836596     0.004717499479     0.000576203344
       6        0.000026460130     0.000021498907     0.000001264626
       7       -0.000007251320    -0.000010698244     0.000003118231
       8       -0.002487204762     0.003761309080    -0.003552402786
       9        0.003251524286    -0.004515096934     0.000115862868
      10       -0.000020691702    -0.000038791819    -0.000027470430
      11        0.000014622389     0.000007498343    -0.000052951681
      12        0.002643746908    -0.003937500626     0.002840463220
      13       -0.000005543910     0.000015170116     0.000030151155
      14       -0.000035118075    -0.000041275420     0.000009147457
      15        0.000026805287    -0.000013017204     0.000011203448
      16        0.000022575627     0.000015015572    -0.000001833402
      17       -0.000002457831    -0.000000220122    -0.000001402363
      18       -0.000000033771    -0.000000878166    -0.000000026466
      19        0.000005824649     0.000003468254    -0.000000361166
      20        0.000001447260     0.000001068017     0.000000448264

  **** Optimization is complete! (in 7 steps) ****
    Final optimized geometry and variables:
    Molecular point group: c1

    Geometry (in Angstrom), charge = 0, multiplicity = 1:

    O            1.839181909221     0.318048898596     0.366359116841
    C            0.835148297588     0.631853826831    -0.176122953942
    C           -0.453478809594    -0.150589151564    -0.160962328355
    O            0.712105972624     1.742358975200    -0.885071825432
    C           -0.364388992581    -1.440617082050     0.640784902175
    H           -1.219697177019     0.513690617743     0.220048784672
    H           -0.718990692616    -0.347340386141    -1.194916447584
    C           -1.615039102819    -2.330368754764     0.587879365462
    H           -0.102725193458    -1.229331770234     1.671200781797
    H            0.473982421509    -2.016282119249     0.265966193343
    C           -2.958579840320    -1.615122927133     0.686342189200
    H           -1.579136503821    -2.954719000303    -0.300157787295
    H           -1.541832145692    -3.031852759385     1.413602504207
    H           -3.149955938796    -0.982840339696    -0.172518291107
    H           -3.766832842684    -2.334430819433     0.745976995140
    H           -3.007739932114    -0.992519960472     1.574136392791
    C            1.847665737658     2.577577152128    -0.984841137736
    H            2.157689529796     2.918065592298    -0.008012024175
    H            1.548394366759     3.415540140665    -1.593249630716
    H            2.667755918232     2.052221360663    -1.451432759150

  Mulliken Charges: (a.u.)
   Center  Symbol    Alpha    Beta     Spin     Total
       1     O     4.19642  4.19642  0.00000 -0.39284
       2     C     2.80907  2.80907  0.00000  0.38185
       3     C     3.10083  3.10083  0.00000 -0.20165
       4     O     4.14669  4.14669  0.00000 -0.29338
       5     C     3.09043  3.09043  0.00000 -0.18085
       6     H     0.43740  0.43740  0.00000  0.12519
       7     H     0.43893  0.43893  0.00000  0.12214
       8     C     3.09200  3.09200  0.00000 -0.18400
       9     H     0.44474  0.44474  0.00000  0.11052
      10     H     0.44342  0.44342  0.00000  0.11317
      11     C     3.15790  3.15790  0.00000 -0.31580
      12     H     0.45158  0.45158  0.00000  0.09685
      13     H     0.44905  0.44905  0.00000  0.10190
      14     H     0.45305  0.45305  0.00000  0.09390
      15     H     0.44393  0.44393  0.00000  0.11214
      16     H     0.45265  0.45265  0.00000  0.09469
      17     C     3.03802  3.03802  0.00000 -0.07604
      18     H     0.45439  0.45439  0.00000  0.09122
      19     H     0.44521  0.44521  0.00000  0.10958
      20     H     0.45429  0.45429  0.00000  0.09142

   Total alpha = 32.00000, Total beta = 32.00000, Total charge = -0.00000
