  ==> Input File <==

--------------------------------------------------------------------------
set {
	reference rhf
	basis 6-31G*
}

set_num_threads( 1 )
memory 2 gb

molecule MOL {
0 1

O	 0.621555	 1.345177	 0.112753
C	 0.486307	 0.169203	 0.000779
C	 1.608116	 -0.841643	 0.000302
O	 -0.692628	 -0.419810	 -0.143381
C	 2.990107	 -0.200498	 -0.000684
H	 1.468623	 -1.481519	 -0.865924
H	 1.469683	 -1.481289	 0.866878
H	 3.129736	 0.423364	 -0.875135
H	 3.757882	 -0.966877	 -0.001197
H	 3.130964	 0.423383	 0.873533
C	 -1.846694	 0.413970	 -0.161954
C	 -3.052794	 -0.484346	 -0.337061
H	 -1.755802	 1.123700	 -0.972884
H	 -1.894126	 0.971111	 0.763753
H	 -2.987517	 -1.039367	 -1.265958
H	 -3.958578	 0.112994	 -0.356778
H	 -3.126729	 -1.192803	 0.480177

	symmetry c1
}
set optking {
	frozen_dihedral = ("
		2 4 11 13,
		11 4 2 3
	")
}

ee = energy('scf')
oeprop('DIPOLE', 'QUADRUPOLE', 'MULLIKEN_CHARGES')
f=open( 'psi4out.xyz', 'w' )
f.write( "17  " )
f.write( str(ee) + "\n" )
f.write( MOL.save_string_xyz() )
f.close()
--------------------------------------------------------------------------

    Molecular point group: c1

    Geometry (in Angstrom), charge = 0, multiplicity = 1:

       Center              X                  Y                   Z               Mass
    ------------   -----------------  -----------------  -----------------  -----------------
           O          0.618499779169     1.341750067578     0.189539344306    15.994914619560
           C          0.483251779169     0.165776067578     0.077565344306    12.000000000000
           C          1.605060779169    -0.845069932422     0.077088344306    12.000000000000
           O         -0.695683220831    -0.423236932422    -0.066594655694    15.994914619560
           C          2.987051779169    -0.203924932422     0.076102344306    12.000000000000
           H          1.465567779169    -1.484945932422    -0.789137655694     1.007825032070
           H          1.466627779169    -1.484715932422     0.943664344306     1.007825032070
           H          3.126680779169     0.419937067578    -0.798348655694     1.007825032070
           H          3.754826779169    -0.970303932422     0.075589344306     1.007825032070
           H          3.127908779169     0.419956067578     0.950319344306     1.007825032070
           C         -1.849749220831     0.410543067578    -0.085167655694    12.000000000000
           C         -3.055849220831    -0.487772932422    -0.260274655694    12.000000000000
           H         -1.758857220831     1.120273067578    -0.896097655694     1.007825032070
           H         -1.897181220831     0.967684067578     0.840539344306     1.007825032070
           H         -2.990572220831    -1.042793932422    -1.189171655694     1.007825032070
           H         -3.961633220831     0.109567067578    -0.279991655694     1.007825032070
           H         -3.129784220831    -1.196229932422     0.556963344306     1.007825032070

  Charge       = 0
  Multiplicity = 1
  Basis Set: 6-31G*
  Basis Set:

    Orbital Energies (a.u.)
    -----------------------

    Doubly Occupied:

       1A    -20.600944     2A    -20.544255     3A    -11.371267
       4A    -11.284782     5A    -11.237508     6A    -11.222340
       7A    -11.215889     8A     -1.467541     9A     -1.361881
      10A     -1.070013    11A     -1.031818    12A     -0.910740
      13A     -0.847374    14A     -0.772818    15A     -0.695427
      16A     -0.689671    17A     -0.664367    18A     -0.629687
      19A     -0.582315    20A     -0.572283    21A     -0.558389
      22A     -0.523561    23A     -0.519549    24A     -0.514206
      25A     -0.504633    26A     -0.492532    27A     -0.452603
      28A     -0.436048

  @DF-RHF Final Energy:  -344.91192730939855

   => Energetics <=

    Nuclear Repulsion Energy =            314.6878584759594446
    One-Electron Energy =               -1093.6508083017131412
    Two-Electron Energy =                 434.0510225163550331
    DFT Exchange-Correlation Energy =       0.0000000000000000
    Empirical Dispersion Energy =           0.0000000000000000
    PCM Polarization Energy =               0.0000000000000000
    EFP Energy =                            0.0000000000000000
    Total Energy =                       -344.9119273093986067

  Mulliken Charges: (a.u.)
   Center  Symbol    Alpha    Beta     Spin     Total
       1     O     4.28638  4.28638  0.00000 -0.57276
       2     C     2.60556  2.60556  0.00000  0.78887
       3     C     3.20514  3.20514  0.00000 -0.41028
       4     O     4.31321  4.31321  0.00000 -0.62642
       5     C     3.23894  3.23894  0.00000 -0.47789
       6     H     0.40111  0.40111  0.00000  0.19778
       7     H     0.40039  0.40039  0.00000  0.19923
       8     H     0.41118  0.41118  0.00000  0.17764
       9     H     0.41814  0.41814  0.00000  0.16371
      10     H     0.40871  0.40871  0.00000  0.18259
      11     C     3.00215  3.00215  0.00000 -0.00429
      12     C     3.24843  3.24843  0.00000 -0.49686
      13     H     0.41024  0.41024  0.00000  0.17952
      14     H     0.41037  0.41037  0.00000  0.17926
      15     H     0.41188  0.41188  0.00000  0.17623
      16     H     0.41630  0.41630  0.00000  0.16741
      17     H     0.41187  0.41187  0.00000  0.17626

   Total alpha = 28.00000, Total beta = 28.00000, Total charge = -0.00000
