  ==> Input File <==

--------------------------------------------------------------------------
set {
	reference rhf
	basis 6-31G*
}

set_num_threads( 1 )
memory 2 gb

molecule MOL {
0 1

H	 2.885845	 0.346891	 0.254578
C	 1.951159	 -0.223429	 0.317018
C	 0.692068	 0.589600	 0.160137
O	 1.979503	 -1.397766	 0.496627
C	 -0.558097	 -0.297372	 0.091132
H	 0.791645	 1.202255	 -0.728243
H	 0.616171	 1.253469	 1.020572
C	 -1.850991	 0.512573	 -0.019058
H	 -0.476753	 -0.965681	 -0.762987
H	 -0.604799	 -0.930658	 0.975228
C	 -3.096943	 -0.368295	 -0.099594
H	 -1.800724	 1.150330	 -0.898172
H	 -1.931651	 1.177355	 0.838044
H	 -3.060452	 -1.020287	 -0.967456
H	 -3.996858	 0.233488	 -0.175704
H	 -3.191959	 -0.995686	 0.782074

	symmetry c1
}
set optking {
	frozen_dihedral = ("
		9 5 8 12,
		6 3 5 9
	")
}

ee = energy('scf')
oeprop('DIPOLE', 'QUADRUPOLE', 'MULLIKEN_CHARGES')
f=open( 'psi4out.xyz', 'w' )
f.write( "16  " )
f.write( str(ee) + "\n" )
f.write( MOL.save_string_xyz() )
f.close()
--------------------------------------------------------------------------

    Molecular point group: c1

    Geometry (in Angstrom), charge = 0, multiplicity = 1:

       Center              X                  Y                   Z               Mass
    ------------   -----------------  -----------------  -----------------  -----------------
           H          3.043216620899     0.559935216448     0.095646876500     1.007825032070
           C          2.108530620899    -0.010384783552     0.158086876500    12.000000000000
           C          0.849439620899     0.802644216448     0.001205876500    12.000000000000
           O          2.136874620899    -1.184721783552     0.337695876500    15.994914619560
           C         -0.400725379101    -0.084327783552    -0.067799123500    12.000000000000
           H          0.949016620899     1.415299216448    -0.887174123500     1.007825032070
           H          0.773542620899     1.466513216448     0.861640876500     1.007825032070
           C         -1.693619379101     0.725617216448    -0.177989123500    12.000000000000
           H         -0.319381379101    -0.752636783552    -0.921918123500     1.007825032070
           H         -0.447427379101    -0.717613783552     0.816296876500     1.007825032070
           C         -2.939571379101    -0.155250783552    -0.258525123500    12.000000000000
           H         -1.643352379101     1.363374216448    -1.057103123500     1.007825032070
           H         -1.774279379101     1.390399216448     0.679112876500     1.007825032070
           H         -2.903080379101    -0.807242783552    -1.126387123500     1.007825032070
           H         -3.839486379101     0.446532216448    -0.334635123500     1.007825032070
           H         -3.034587379101    -0.782641783552     0.623142876500     1.007825032070

  Charge       = 0
  Multiplicity = 1
  Basis Set: 6-31G*
  Basis Set:

    Orbital Energies (a.u.)
    -----------------------

    Doubly Occupied:

       1A    -20.564300     2A    -11.328432     3A    -11.237287
       4A    -11.221651     5A    -11.220924     6A    -11.211735
       7A     -1.404669     8A     -1.087383     9A     -1.014793
      10A     -0.907053    11A     -0.812783    12A     -0.770624
      13A     -0.675013    14A     -0.657376    15A     -0.628914
      16A     -0.599587    17A     -0.583163    18A     -0.533588
      19A     -0.527459    20A     -0.498549    21A     -0.481840
      22A     -0.475253    23A     -0.471670    24A     -0.411403

  @DF-RHF Final Energy:  -270.02080218113042

   => Energetics <=

    Nuclear Repulsion Energy =            232.2384686422775815
    One-Electron Energy =                -825.8676160261038603
    Two-Electron Energy =                 323.6083452026955456
    DFT Exchange-Correlation Energy =       0.0000000000000000
    Empirical Dispersion Energy =           0.0000000000000000
    PCM Polarization Energy =               0.0000000000000000
    EFP Energy =                            0.0000000000000000
    Total Energy =                       -270.0208021811307617

  Mulliken Charges: (a.u.)
   Center  Symbol    Alpha    Beta     Spin     Total
       1     H     0.42753  0.42753  0.00000  0.14494
       2     C     2.83523  2.83523  0.00000  0.32953
       3     C     3.21461  3.21461  0.00000 -0.42921
       4     O     4.23675  4.23675  0.00000 -0.47349
       5     C     3.14954  3.14954  0.00000 -0.29908
       6     H     0.40766  0.40766  0.00000  0.18468
       7     H     0.40587  0.40587  0.00000  0.18826
       8     C     3.15296  3.15296  0.00000 -0.30593
       9     H     0.41433  0.41433  0.00000  0.17134
      10     H     0.40998  0.40998  0.00000  0.18003
      11     C     3.23946  3.23946  0.00000 -0.47891
      12     H     0.42393  0.42393  0.00000  0.15213
      13     H     0.42374  0.42374  0.00000  0.15253
      14     H     0.41998  0.41998  0.00000  0.16003
      15     H     0.41874  0.41874  0.00000  0.16253
      16     H     0.41969  0.41969  0.00000  0.16062

   Total alpha = 24.00000, Total beta = 24.00000, Total charge = -0.00000
