                              Psi4 1.0.54 Driver

  ==> Input File <==

--------------------------------------------------------------------------
set {
	reference rhf
	basis cc-pvtz
}

set_num_threads( 4 )
memory 2 gb

molecule MOL {
0 1

O	 -0.246283	 0.126172	 2.091061
C	 0.024163	 -0.475343	 1.107757
C	 1.212590	 -1.389556	 0.947402
O	 -0.695554	 -0.422406	 0.000602
C	 2.074324	 -1.485629	 2.196065
H	 1.784147	 -1.027243	 0.100052
H	 0.832310	 -2.361865	 0.654249
H	 2.464911	 -0.516249	 2.475279
H	 2.909042	 -2.153506	 2.021324
H	 1.504428	 -1.863000	 3.034537
C	 -1.852370	 0.402254	 0.000718
C	 -3.063338	 -0.501097	 -0.000437
H	 -1.831732	 1.039442	 -0.872158
H	 -1.832493	 1.038301	 0.874430
H	 -3.071944	 -1.133732	 -0.879113
H	 -3.966302	 0.097976	 -0.000483
H	 -3.072764	 -1.134834	 0.877435

	symmetry c1
}
set optking {
	frozen_dihedral = ("
		2 4 11 13
	")
}

ee,wfn = optimize('scf', return_wfn=True)
oeprop( wfn, 'DIPOLE', 'QUADRUPOLE', 'MULLIKEN_CHARGES')
f=open( 'psi4out.xyz', 'w' )
f.write( "17  " )
f.write( str(ee) + "\n" )
f.write( MOL.save_string_xyz() )
f.close()
--------------------------------------------------------------------------

    Molecular point group: c1
  Charge       = 0
  Multiplicity = 1
  Basis Set: CC-PVTZ
  Basis Set:
  @DF-RHF Final Energy:  -345.03770594332684
    Total Energy =                       -345.0377059433268983
    Molecular point group: c1
  Basis Set: CC-PVTZ
  Basis Set:
  Basis Set: CC-PVTZ
  Basis Set:
  @DF-RHF Final Energy:  -345.03835546872324
    Total Energy =                       -345.0383554687232959
  Basis Set: CC-PVTZ
  Basis Set:
  Basis Set: CC-PVTZ
  Basis Set:
  @DF-RHF Final Energy:  -345.03858331132193
    Total Energy =                       -345.0385833113219860
  Basis Set: CC-PVTZ
  Basis Set:
  Basis Set: CC-PVTZ
  Basis Set:
  @DF-RHF Final Energy:  -345.03871113875016
    Total Energy =                       -345.0387111387503296
  Basis Set: CC-PVTZ
  Basis Set:
  Basis Set: CC-PVTZ
  Basis Set:
  @DF-RHF Final Energy:  -345.03878741983306
    Total Energy =                       -345.0387874198329428
  Basis Set: CC-PVTZ
  Basis Set:
  Charge       = 0
  Multiplicity = 1
  Basis Set: CC-PVTZ
  Basis Set:

    Orbital Energies (a.u.)
    -----------------------

    Doubly Occupied:

       1A    -20.592233     2A    -20.532421     3A    -11.364966
       4A    -11.281123     5A    -11.235378     6A    -11.219228
       7A    -11.213446     8A     -1.468067     9A     -1.365268
      10A     -1.070052    11A     -1.030622    12A     -0.915154
      13A     -0.851879    14A     -0.767277    15A     -0.703980
      16A     -0.683919    17A     -0.662714    18A     -0.625635
      19A     -0.603012    20A     -0.569955    21A     -0.553609
      22A     -0.533034    23A     -0.521272    24A     -0.515877
      25A     -0.496402    26A     -0.494204    27A     -0.451060
      28A     -0.440018

  @DF-RHF Final Energy:  -345.03879859246217

   => Energetics <=

    Nuclear Repulsion Energy =            316.7257915033590052
    One-Electron Energy =               -1098.0055651779052823
    Two-Electron Energy =                 436.2409750820844465
    DFT Exchange-Correlation Energy =       0.0000000000000000
    Empirical Dispersion Energy =           0.0000000000000000
    PCM Polarization Energy =               0.0000000000000000
    EFP Energy =                            0.0000000000000000
    Total Energy =                       -345.0387985924618306
    Molecular point group: c1
  Basis Set: CC-PVTZ
  Basis Set:

  -Total Gradient:
     Atom            X                  Y                   Z
    ------   -----------------  -----------------  -----------------
       1        0.000004872952     0.000030291879     0.000084090351
       2        0.000460121595     0.000624882261    -0.000443597878
       3       -0.000000098646     0.000020162312    -0.000019997888
       4       -0.000554487226    -0.000817265171     0.000545239818
       5       -0.000012568602     0.000006237430     0.000015012673
       6       -0.000012217209    -0.000007377387     0.000016947012
       7       -0.000010225415     0.000000074749     0.000009517721
       8       -0.000001048201    -0.000000792854    -0.000000708766
       9       -0.000001393904    -0.000000057076    -0.000006356470
      10        0.000000841016     0.000005834836    -0.000014453624
      11       -0.000341654759    -0.000600037765    -0.000621669141
      12       -0.000012381891     0.000010791462    -0.000008130424
      13        0.000522333262     0.000677100033     0.000441300132
      14       -0.000029109326     0.000030217167     0.000007193460
      15        0.000007150567     0.000005564620     0.000007256481
      16       -0.000029186109     0.000007474790    -0.000001175112
      17        0.000009051895     0.000006898713    -0.000010468345

  **** Optimization is complete! (in 6 steps) ****
    Final optimized geometry and variables:
    Molecular point group: c1

    Geometry (in Angstrom), charge = 0, multiplicity = 1:

    O            0.235546290441     0.679005087776     1.180274678081
    C            0.420065335866     0.046933415868     0.196477978064
    C            1.572341593305    -0.903047625183    -0.015421551813
    O           -0.365549348522     0.080346717047    -0.867236489620
    C            2.512014873271    -0.990917225837     1.176258757382
    H            2.095403164152    -0.578114708935    -0.907932059331
    H            1.148611529101    -1.871583152704    -0.256699619069
    H            2.944737505116    -0.025822624110     1.403215299118
    H            3.316136665583    -1.685302976408     0.965002033973
    H            1.989642172202    -1.331699458970     2.060100445161
    C           -1.501750505718     0.936157696172    -0.883654328679
    C           -2.773126479696     0.118557268779    -0.808550864359
    H           -1.443967231196     1.485788378646    -1.812551634901
    H           -1.436585217301     1.632961298520    -0.065062513516
    H           -2.818572833242    -0.599959003303    -1.617422312602
    H           -3.635213471145     0.771876597832    -0.881155626424
    H           -2.830100222195    -0.415632067161     0.131840740342

  Mulliken Charges: (a.u.)
   Center  Symbol    Alpha    Beta     Spin     Total
       1     O     4.19861  4.19861  0.00000 -0.39722
       2     C     2.80069  2.80069  0.00000  0.39863
       3     C     3.09516  3.09516  0.00000 -0.19032
       4     O     4.15769  4.15769  0.00000 -0.31539
       5     C     3.14024  3.14024  0.00000 -0.28049
       6     H     0.44181  0.44181  0.00000  0.11638
       7     H     0.44195  0.44195  0.00000  0.11609
       8     H     0.44848  0.44848  0.00000  0.10305
       9     H     0.45064  0.45064  0.00000  0.09872
      10     H     0.44860  0.44860  0.00000  0.10281
      11     C     2.99022  2.99022  0.00000  0.01956
      12     C     3.14010  3.14010  0.00000 -0.28020
      13     H     0.44870  0.44870  0.00000  0.10260
      14     H     0.44352  0.44352  0.00000  0.11297
      15     H     0.45168  0.45168  0.00000  0.09663
      16     H     0.45271  0.45271  0.00000  0.09458
      17     H     0.44920  0.44920  0.00000  0.10161

   Total alpha = 28.00000, Total beta = 28.00000, Total charge = -0.00000

*** Psi4 exiting successfully. Buy a developer a beer!
