  ==> Input File <==

--------------------------------------------------------------------------
set {
	reference rhf
	basis 6-31G*
}

set_num_threads( 4 )
memory 2 gb

molecule MOL {
0 1

O	 0.752879	 1.301710	 0.113551
C	 0.576249	 0.131685	 -0.000108
C	 -0.766779	 -0.556801	 -0.000461
O	 1.564570	 -0.741714	 -0.145225
C	 -1.945214	 0.412366	 0.000161
H	 -0.796911	 -1.211249	 -0.867467
H	 -0.796854	 -1.212390	 0.865687
C	 -3.287791	 -0.317055	 0.000105
H	 -1.876087	 1.060580	 -0.866812
H	 -1.875822	 1.059691	 0.867761
H	 -3.394745	 -0.949193	 -0.877058
H	 -4.111778	 0.388953	 0.000015
H	 -3.394954	 -0.949187	 0.877259
C	 2.882503	 -0.224034	 -0.161518
H	 3.009044	 0.467279	 -0.982259
H	 3.532527	 -1.075923	 -0.286500
H	 3.103321	 0.282595	 0.766963

	symmetry c1
}
set optking {
	frozen_dihedral = ("
		1 2 3 6
	")
}

ee = optimize('scf')
oeprop('DIPOLE', 'QUADRUPOLE', 'MULLIKEN_CHARGES')
f=open( 'psi4out.xyz', 'w' )
f.write( "17  " )
f.write( str(ee) + "\n" )
f.write( MOL.save_string_xyz() )
f.close()
--------------------------------------------------------------------------

    Molecular point group: c1
  Charge       = 0
  Multiplicity = 1
  Basis Set: 6-31G*
  Basis Set:
  @DF-RHF Final Energy:  -344.90681239956632
    Total Energy =                       -344.9068123995663200
    Molecular point group: c1
  Basis Set: 6-31G*
  Basis Set:
  Basis Set: 6-31G*
  Basis Set:
  @DF-RHF Final Energy:  -344.90662813596788
    Total Energy =                       -344.9066281359678783
  Basis Set: 6-31G*
  Basis Set:
  Basis Set: 6-31G*
  Basis Set:
  @DF-RHF Final Energy:  -344.90682817696944
    Total Energy =                       -344.9068281769691566
  Basis Set: 6-31G*
  Basis Set:
  Basis Set: 6-31G*
  Basis Set:
  @DF-RHF Final Energy:  -344.90683165937611
    Total Energy =                       -344.9068316593760528
  Basis Set: 6-31G*
  Basis Set:
  Charge       = 0
  Multiplicity = 1
  Basis Set: 6-31G*
  Basis Set:

    Orbital Energies (a.u.)
    -----------------------

    Doubly Occupied:

       1A    -20.604118     2A    -20.545809     3A    -11.372704
       4A    -11.281151     5A    -11.236067     6A    -11.222088
       7A    -11.214628     8A     -1.469785     9A     -1.363204
      10A     -1.080654    11A     -1.001521    12A     -0.939851
      13A     -0.827340    14A     -0.767466    15A     -0.700387
      16A     -0.683561    17A     -0.672332    18A     -0.637011
      19A     -0.595197    20A     -0.575081    21A     -0.568737
      22A     -0.527528    23A     -0.521929    24A     -0.498812
      25A     -0.487133    26A     -0.478819    27A     -0.456409
      28A     -0.438182

  @DF-RHF Final Energy:  -344.90683175280759

   => Energetics <=

    Nuclear Repulsion Energy =            312.4717895356919257
    One-Electron Energy =               -1089.2222384793194578
    Two-Electron Energy =                 431.8436171908202823
    DFT Exchange-Correlation Energy =       0.0000000000000000
    Empirical Dispersion Energy =           0.0000000000000000
    PCM Polarization Energy =               0.0000000000000000
    EFP Energy =                            0.0000000000000000
    Total Energy =                       -344.9068317528073067
    Molecular point group: c1
  Basis Set: 6-31G*
  Basis Set:

  -Total Gradient:
     Atom            X                  Y                   Z
    ------   -----------------  -----------------  -----------------
       1        0.000015288829    -0.000035824404     0.000275612204
       2       -0.000004816496     0.000007982366    -0.000396804113
       3       -0.000111442050     0.000228948122    -0.000002985986
       4       -0.000001594203     0.000001580146    -0.000030011670
       5        0.000000605754    -0.000000170532    -0.000038138062
       6        0.000108501490    -0.000182969149     0.000138989904
       7       -0.000007974100    -0.000013894598     0.000002074150
       8        0.000000871535    -0.000000839125     0.000008847854
       9        0.000001275852    -0.000000816207     0.000006822622
      10       -0.000000623845    -0.000000440099     0.000003817549
      11        0.000003424936     0.000002673970     0.000000901215
      12       -0.000000293269     0.000000366571    -0.000001066767
      13       -0.000003619663    -0.000002816908     0.000001228938
      14       -0.000000112569    -0.000009502727     0.000068119891
      15       -0.000015221118     0.000002596175    -0.000012847419
      16        0.000000554052     0.000002119326    -0.000011044797
      17        0.000015174859     0.000001007070    -0.000013515514

  **** Optimization is complete! (in 5 steps) ****
    Final optimized geometry and variables:
    Molecular point group: c1

    Geometry (in Angstrom), charge = 0, multiplicity = 1:

    O            0.752649828334     1.300922945051     0.129511834652
    C            0.576691066004     0.130799223203     0.015531964384
    C           -0.766212564180    -0.557970930860     0.016153209134
    O            1.566118151858    -0.743098774673    -0.118171592617
    C           -1.944985396052     0.410705808861     0.031844874112
    H           -0.802695550917    -1.213469120955    -0.848970464489
    H           -0.788976135092    -1.213267934838     0.883586392663
    C           -3.287227470586    -0.319151371688     0.045212330961
    H           -1.886550810900     1.060206640419    -0.835411279645
    H           -1.865304059474     1.056644877517     0.899158152510
    H           -3.403732495486    -0.950196070421    -0.831489441512
    H           -4.111390991527     0.386550346479     0.055315237745
    H           -3.384300297267    -0.952436160219     0.922708051653
    C            2.884603378971    -0.226490885695    -0.115162359723
    H            3.022770828084     0.466484211452    -0.932570057056
    H            3.535649155749    -1.078626423094    -0.233193275711
    H            3.093183819244     0.277960764081     0.817330428822

  Mulliken Charges: (a.u.)
   Center  Symbol    Alpha    Beta     Spin     Total
       1     O     4.28588  4.28588  0.00000 -0.57176
       2     C     2.60599  2.60599  0.00000  0.78803
       3     C     3.20615  3.20615  0.00000 -0.41230
       4     O     4.30697  4.30697  0.00000 -0.61394
       5     C     3.15208  3.15208  0.00000 -0.30416
       6     H     0.40109  0.40109  0.00000  0.19783
       7     H     0.40079  0.40079  0.00000  0.19843
       8     C     3.24275  3.24275  0.00000 -0.48551
       9     H     0.41229  0.41229  0.00000  0.17543
      10     H     0.40940  0.40940  0.00000  0.18119
      11     H     0.42135  0.42135  0.00000  0.15731
      12     H     0.41511  0.41511  0.00000  0.16978
      13     H     0.42129  0.42129  0.00000  0.15742
      14     C     3.09252  3.09252  0.00000 -0.18504
      15     H     0.40887  0.40887  0.00000  0.18226
      16     H     0.40836  0.40836  0.00000  0.18327
      17     H     0.40911  0.40911  0.00000  0.18177

   Total alpha = 28.00000, Total beta = 28.00000, Total charge = -0.00000
