  ==> Input File <==

--------------------------------------------------------------------------
set {
	reference rhf
	basis 6-31G*
}

set_num_threads( 4 )
memory 2 gb

molecule MOL {
0 1

H	 -0.944757	 -0.000069	 1.678017
O	 -0.042387	 -0.000390	 1.388199
C	 -0.001487	 0.000018	 -0.026623
C	 -1.234382	 0.721585	 -0.574303
C	 1.283682	 0.680762	 -0.501568
C	 -0.013801	 -1.471221	 -0.426279
H	 -1.254765	 0.703028	 -1.659263
H	 -1.242990	 1.763254	 -0.261642
H	 -2.139144	 0.252359	 -0.203829
H	 1.364914	 0.662454	 -1.583767
H	 1.308865	 1.721322	 -0.186079
H	 2.149942	 0.181513	 -0.081782
H	 0.015048	 -1.581275	 -1.505539
H	 -0.910399	 -1.953234	 -0.053099
H	 0.844239	 -1.981405	 -0.003346

	symmetry c1
}
set optking {
	frozen_dihedral = ("
		4 3 2 1
	")
}

ee = optimize('scf')
oeprop('DIPOLE', 'QUADRUPOLE', 'MULLIKEN_CHARGES')
f=open( 'psi4out.xyz', 'w' )
f.write( "15  " )
f.write( str(ee) + "\n" )
f.write( MOL.save_string_xyz() )
f.close()
--------------------------------------------------------------------------

    Molecular point group: c1
  Charge       = 0
  Multiplicity = 1
  Basis Set: 6-31G*
  Basis Set:
  @DF-RHF Final Energy:  -232.15046969896011
    Total Energy =                       -232.1504696989597392
    Molecular point group: c1
  Basis Set: 6-31G*
  Basis Set:
  Basis Set: 6-31G*
  Basis Set:
  @DF-RHF Final Energy:  -232.15175003430204
    Total Energy =                       -232.1517500343020970
  Basis Set: 6-31G*
  Basis Set:
  Basis Set: 6-31G*
  Basis Set:
  @DF-RHF Final Energy:  -232.15207799393662
    Total Energy =                       -232.1520779939367003
  Basis Set: 6-31G*
  Basis Set:
  Basis Set: 6-31G*
  Basis Set:
  @DF-RHF Final Energy:  -232.15206086433034
    Total Energy =                       -232.1520608643302808
  Basis Set: 6-31G*
  Basis Set:
  Basis Set: 6-31G*
  Basis Set:
  @DF-RHF Final Energy:  -232.15209202191912
    Total Energy =                       -232.1520920219190884
  Basis Set: 6-31G*
  Basis Set:
  Basis Set: 6-31G*
  Basis Set:
  @DF-RHF Final Energy:  -232.15209051732771
    Total Energy =                       -232.1520905173278493
  Basis Set: 6-31G*
  Basis Set:
  Charge       = 0
  Multiplicity = 1
  Basis Set: 6-31G*
  Basis Set:

    Orbital Energies (a.u.)
    -----------------------

    Doubly Occupied:

       1A    -20.547829     2A    -11.281961     3A    -11.216609
       4A    -11.206068     5A    -11.204905     6A     -1.359272
       7A     -1.063557     8A     -0.944439     9A     -0.936509
      10A     -0.775641    11A     -0.669680    12A     -0.622708
      13A     -0.620886    14A     -0.575131    15A     -0.556351
      16A     -0.532550    17A     -0.516805    18A     -0.508919
      19A     -0.502046    20A     -0.457439    21A     -0.423466

  @DF-RHF Final Energy:  -232.15209262840378

   => Energetics <=

    Nuclear Repulsion Energy =            200.2981434643579917
    One-Electron Energy =                -711.8549225157821638
    Two-Electron Energy =                 279.4046864230202800
    DFT Exchange-Correlation Energy =       0.0000000000000000
    Empirical Dispersion Energy =           0.0000000000000000
    PCM Polarization Energy =               0.0000000000000000
    EFP Energy =                            0.0000000000000000
    Total Energy =                       -232.1520926284039206
    Molecular point group: c1
  Basis Set: 6-31G*
  Basis Set:

  -Total Gradient:
     Atom            X                  Y                   Z
    ------   -----------------  -----------------  -----------------
       1        0.000057439422     0.002196074657    -0.000083600105
       2       -0.000333104782    -0.003130031875     0.000182390963
       3        0.000986008409     0.002116170037    -0.000073415937
       4       -0.000720171009    -0.001187332167     0.000026243202
       5        0.000020478152    -0.000021189528    -0.000013908129
       6       -0.000004851068     0.000020699092    -0.000025799204
       7       -0.000009158926     0.000007004124    -0.000002947068
       8        0.000010872399    -0.000013661635     0.000001216372
       9       -0.000016236738     0.000001978059    -0.000004252563
      10        0.000001352610     0.000003206555     0.000001372346
      11       -0.000005300263    -0.000008880989    -0.000000825441
      12        0.000014811638     0.000004109126    -0.000002773835
      13       -0.000000304906    -0.000011279890    -0.000008616231
      14       -0.000000022733     0.000006404419     0.000003190636
      15       -0.000001812207     0.000016730016     0.000001724989

  **** Optimization is complete! (in 7 steps) ****
    Final optimized geometry and variables:
    Molecular point group: c1

    Geometry (in Angstrom), charge = 0, multiplicity = 1:

    H           -0.876307192381     0.096506573881     1.718778438009
    O            0.010721177647     0.061592975737     1.390204683376
    C            0.001314221466    -0.001774698306    -0.026169086557
    C           -1.230399587741     0.721349697997    -0.572773200507
    C            1.284878549038     0.683764028383    -0.482449184537
    C           -0.009283729926    -1.471892102432    -0.449988450416
    H           -1.241511293850     0.713233465301    -1.657377992794
    H           -1.244886453724     1.754500498978    -0.239968949697
    H           -2.144397686079     0.240007512919    -0.231558559786
    H            1.387494567460     0.643308034550    -1.562308407843
    H            1.288179901664     1.722576420155    -0.171568812000
    H            2.145179648206     0.196843602813    -0.036838758073
    H            0.018992323347    -1.575359527554    -1.530637818658
    H           -0.905366065376    -1.966927865809    -0.086719100135
    H            0.848689294215    -1.985964224994    -0.031478829764

  Mulliken Charges: (a.u.)
   Center  Symbol    Alpha    Beta     Spin     Total
       1     H     0.28161  0.28161  0.00000  0.43678
       2     O     4.38000  4.38000  0.00000 -0.76001
       3     C     2.84857  2.84857  0.00000  0.30285
       4     C     3.25436  3.25436  0.00000 -0.50871
       5     C     3.23274  3.23274  0.00000 -0.46549
       6     C     3.23342  3.23342  0.00000 -0.46683
       7     H     0.41614  0.41614  0.00000  0.16771
       8     H     0.41342  0.41342  0.00000  0.17316
       9     H     0.42392  0.42392  0.00000  0.15216
      10     H     0.42479  0.42479  0.00000  0.15042
      11     H     0.41598  0.41598  0.00000  0.16804
      12     H     0.41266  0.41266  0.00000  0.17468
      13     H     0.42492  0.42492  0.00000  0.15016
      14     H     0.42443  0.42443  0.00000  0.15115
      15     H     0.41304  0.41304  0.00000  0.17393

   Total alpha = 21.00000, Total beta = 21.00000, Total charge = -0.00000
