                              Psi4 1.0.54 Driver

  ==> Input File <==

--------------------------------------------------------------------------
set {
	reference rhf
	basis cc-pvtz
}

set_num_threads( 4 )
memory 2 gb

molecule MOL {
0 1

H	 -3.124237	 -1.225226	 0.016746
O	 -2.300905	 -0.888144	 -0.284146
C	 -2.021813	 0.336996	 0.342658
C	 -0.669613	 0.837286	 -0.127252
H	 -2.786206	 1.069286	 0.095317
H	 -2.017364	 0.217887	 1.424405
C	 0.490865	 -0.082543	 0.241244
H	 -0.708709	 0.967192	 -1.204587
H	 -0.507562	 1.822272	 0.303070
C	 1.839800	 0.429565	 -0.255472
H	 0.305636	 -1.070211	 -0.165276
H	 0.527397	 -0.195943	 1.322876
C	 3.001144	 -0.485193	 0.119072
H	 1.804373	 0.541073	 -1.335756
H	 2.020437	 1.423114	 0.146921
H	 2.866892	 -1.477297	 -0.298806
H	 3.943543	 -0.095749	 -0.249061
H	 3.085064	 -0.590459	 1.195790

	symmetry c1
}
set optking {
	frozen_dihedral = ("
		2 3 4 8
	")
}

ee,wfn = optimize('scf', return_wfn=True)
oeprop( wfn, 'DIPOLE', 'QUADRUPOLE', 'MULLIKEN_CHARGES')
f=open( 'psi4out.xyz', 'w' )
f.write( "18  " )
f.write( str(ee) + "\n" )
f.write( MOL.save_string_xyz() )
f.close()
--------------------------------------------------------------------------

    Molecular point group: c1
  Charge       = 0
  Multiplicity = 1
  Basis Set: CC-PVTZ
  Basis Set:
  @DF-RHF Final Energy:  -271.28690886605284
    Total Energy =                       -271.2869088660526700
    Molecular point group: c1
  Basis Set: CC-PVTZ
  Basis Set:
  Basis Set: CC-PVTZ
  Basis Set:
  @DF-RHF Final Energy:  -271.28691257320060
    Total Energy =                       -271.2869125732005386
  Basis Set: CC-PVTZ
  Basis Set:
  Charge       = 0
  Multiplicity = 1
  Basis Set: CC-PVTZ
  Basis Set:

    Orbital Energies (a.u.)
    -----------------------

    Doubly Occupied:

       1A    -20.546258     2A    -11.265998     3A    -11.210498
       4A    -11.209047     5A    -11.204822     6A    -11.202697
       7A     -1.364170     8A     -1.076504     9A     -1.010228
      10A     -0.914517    11A     -0.818354    12A     -0.784683
      13A     -0.708124    14A     -0.643991    15A     -0.626759
      16A     -0.582499    17A     -0.572178    18A     -0.558965
      19A     -0.524311    20A     -0.502172    21A     -0.488972
      22A     -0.468397    23A     -0.459085    24A     -0.449358
      25A     -0.431632

  @DF-RHF Final Energy:  -271.28691347389349

   => Energetics <=

    Nuclear Repulsion Energy =            249.3603250080295481
    One-Electron Energy =                -862.0460341357015750
    Two-Electron Energy =                 341.3987956537786204
    DFT Exchange-Correlation Energy =       0.0000000000000000
    Empirical Dispersion Energy =           0.0000000000000000
    PCM Polarization Energy =               0.0000000000000000
    EFP Energy =                            0.0000000000000000
    Total Energy =                       -271.2869134738933781
    Molecular point group: c1
  Basis Set: CC-PVTZ
  Basis Set:

  -Total Gradient:
     Atom            X                  Y                   Z
    ------   -----------------  -----------------  -----------------
       1        0.000002040822    -0.000003952652     0.000006490101
       2        0.000159932523    -0.000211992581     0.000263471954
       3       -0.000257457335     0.000368285569    -0.000342931088
       4        0.000235945622    -0.000615939352     0.000004613216
       5        0.000002856615     0.000011782290     0.000002914266
       6        0.000006454253     0.000000572660    -0.000008518565
       7        0.000015018641    -0.000030715042     0.000020115109
       8       -0.000145986030     0.000472146583     0.000072055873
       9       -0.000011063889    -0.000006368721    -0.000006575966
      10       -0.000009341100    -0.000004990590    -0.000020478004
      11        0.000008974467     0.000009738750     0.000011456915
      12       -0.000010162518     0.000002979570     0.000002800900
      13       -0.000003855766     0.000001809974     0.000004570717
      14        0.000005942245     0.000007933435    -0.000014548466
      15        0.000001142810    -0.000001744141     0.000002856807
      16       -0.000000092131     0.000001455745    -0.000001676560
      17        0.000000183085     0.000002186340     0.000001882859
      18       -0.000000532314    -0.000003187835     0.000001499933

  **** Optimization is complete! (in 3 steps) ****
    Final optimized geometry and variables:
    Molecular point group: c1

    Geometry (in Angstrom), charge = 0, multiplicity = 1:

    H           -3.137114787957    -1.213695940750     0.012178040319
    O           -2.310775920843    -0.883338673248    -0.287674868597
    C           -2.024598877836     0.341379131416     0.336631487764
    C           -0.672527339734     0.837658420513    -0.137818952451
    H           -2.787263503988     1.076784877426     0.093346271906
    H           -2.015227543929     0.221809501211     1.418318273768
    C            0.488636355397    -0.079994429221     0.233139378977
    H           -0.712615383859     0.967786356378    -1.215120126802
    H           -0.510622351456     1.823971897322     0.289814214299
    C            1.837463839954     0.435431121728    -0.260370014057
    H            0.306664125207    -1.067957661771    -0.173594105205
    H            0.522716034949    -0.193355947656     1.314831893548
    C            2.999480999716    -0.478788487266     0.113251149940
    H            1.803419891515     0.549812133115    -1.340410104391
    H            2.016234492516     1.428075537416     0.144993892819
    H            2.866828116703    -1.470053347635    -0.307060337838
    H            3.941806813272    -0.087370667665    -0.252945855291
    H            3.082301729712    -0.586450424292     1.189798536140

  Mulliken Charges: (a.u.)
   Center  Symbol    Alpha    Beta     Spin     Total
       1     H     0.39572  0.39572  0.00000  0.20856
       2     O     4.19871  4.19871  0.00000 -0.39742
       3     C     2.97396  2.97396  0.00000  0.05207
       4     C     3.09115  3.09115  0.00000 -0.18229
       5     H     0.46531  0.46531  0.00000  0.06938
       6     H     0.47357  0.47357  0.00000  0.05286
       7     C     3.08642  3.08642  0.00000 -0.17285
       8     H     0.45230  0.45230  0.00000  0.09539
       9     H     0.45466  0.45466  0.00000  0.09068
      10     C     3.08358  3.08358  0.00000 -0.16716
      11     H     0.44410  0.44410  0.00000  0.11179
      12     H     0.45963  0.45963  0.00000  0.08075
      13     C     3.14980  3.14980  0.00000 -0.29959
      14     H     0.45440  0.45440  0.00000  0.09120
      15     H     0.45685  0.45685  0.00000  0.08631
      16     H     0.45441  0.45441  0.00000  0.09117
      17     H     0.44940  0.44940  0.00000  0.10121
      18     H     0.45603  0.45603  0.00000  0.08794

   Total alpha = 25.00000, Total beta = 25.00000, Total charge = -0.00000

*** Psi4 exiting successfully. Buy a developer a beer!
