                              Psi4 1.0.54 Driver

  ==> Input File <==

--------------------------------------------------------------------------
set {
	reference rhf
	basis cc-pvtz
}

set_num_threads( 4 )
memory 2 gb

molecule MOL {
0 1

H	 2.330960	 -0.121139	 -0.162315
O	 1.583947	 -0.677544	 -0.001533
C	 0.489979	 0.078084	 0.002623
C	 -0.763662	 -0.754014	 0.000816
O	 0.539051	 1.259395	 -0.000088
C	 -2.038001	 0.074705	 -0.000833
H	 -0.712945	 -1.405886	 -0.864342
H	 -0.715137	 -1.405770	 0.866182
H	 -2.087267	 0.710831	 -0.874232
H	 -2.903419	 -0.576199	 -0.001922
H	 -2.089467	 0.710909	 0.872389

	symmetry c1
}
set optking {
	frozen_dihedral = ("
		1 2 3 5
	")
}

ee,wfn = optimize('scf', return_wfn=True)
oeprop( wfn, 'DIPOLE', 'QUADRUPOLE', 'MULLIKEN_CHARGES')
f=open( 'psi4out.xyz', 'w' )
f.write( "11  " )
f.write( str(ee) + "\n" )
f.write( MOL.save_string_xyz() )
f.close()
--------------------------------------------------------------------------

    Molecular point group: c1
  Charge       = 0
  Multiplicity = 1
  Basis Set: CC-PVTZ
  Basis Set:
  @DF-RHF Final Energy:  -266.95268510885364
    Total Energy =                       -266.9526851088537569
    Molecular point group: c1
  Basis Set: CC-PVTZ
  Basis Set:
  Basis Set: CC-PVTZ
  Basis Set:
  @DF-RHF Final Energy:  -266.95075958009744
    Total Energy =                       -266.9507595800973832
  Basis Set: CC-PVTZ
  Basis Set:
  Basis Set: CC-PVTZ
  Basis Set:
  @DF-RHF Final Energy:  -266.95276083962398
    Total Energy =                       -266.9527608396242044
  Basis Set: CC-PVTZ
  Basis Set:
  Basis Set: CC-PVTZ
  Basis Set:
  @DF-RHF Final Energy:  -266.95277361126665
    Total Energy =                       -266.9527736112664229
  Basis Set: CC-PVTZ
  Basis Set:
  Basis Set: CC-PVTZ
  Basis Set:
  @DF-RHF Final Energy:  -266.95277544689566
    Total Energy =                       -266.9527754468956005
  Basis Set: CC-PVTZ
  Basis Set:
  Basis Set: CC-PVTZ
  Basis Set:
  @DF-RHF Final Energy:  -266.95277650606681
    Total Energy =                       -266.9527765060669253
  Basis Set: CC-PVTZ
  Basis Set:
  Basis Set: CC-PVTZ
  Basis Set:
  @DF-RHF Final Energy:  -266.95277657314682
    Total Energy =                       -266.9527765731467071
  Basis Set: CC-PVTZ
  Basis Set:
  Charge       = 0
  Multiplicity = 1
  Basis Set: CC-PVTZ
  Basis Set:

    Orbital Energies (a.u.)
    -----------------------

    Doubly Occupied:

       1A    -20.604669     2A    -20.541910     3A    -11.374413
       4A    -11.242828     5A    -11.218743     6A     -1.478208
       7A     -1.370442     8A     -1.066423     9A     -0.918701
      10A     -0.803761    11A     -0.706003    12A     -0.693329
      13A     -0.665297    14A     -0.600778    15A     -0.593304
      16A     -0.533701    17A     -0.527126    18A     -0.505858
      19A     -0.485590    20A     -0.448945

  @DF-RHF Final Energy:  -266.95277655112341

   => Energetics <=

    Nuclear Repulsion Energy =            180.1491774964829347
    One-Electron Energy =                -721.4438486787760212
    Two-Electron Energy =                 274.3418946311696800
    DFT Exchange-Correlation Energy =       0.0000000000000000
    Empirical Dispersion Energy =           0.0000000000000000
    PCM Polarization Energy =               0.0000000000000000
    EFP Energy =                            0.0000000000000000
    Total Energy =                       -266.9527765511234065
    Molecular point group: c1
  Basis Set: CC-PVTZ
  Basis Set:

  -Total Gradient:
     Atom            X                  Y                   Z
    ------   -----------------  -----------------  -----------------
       1       -0.000257107454    -0.000613321831    -0.003582505431
       2        0.000267452015     0.000767565758     0.005994261720
       3        0.000096643356    -0.000211828355    -0.005831219240
       4       -0.000000141209     0.000003001975     0.000028090977
       5       -0.000110529746     0.000060856536     0.003363264462
       6        0.000004636365    -0.000007499713     0.000005939565
       7        0.000004851021    -0.000009222209     0.000013088730
       8       -0.000002947372     0.000005220292     0.000015914598
       9       -0.000003760634     0.000003934478    -0.000003004486
      10       -0.000000221195     0.000000570066    -0.000002079165
      11        0.000001124851     0.000000723006    -0.000001751730

  **** Optimization is complete! (in 7 steps) ****
    Final optimized geometry and variables:
    Molecular point group: c1

    Geometry (in Angstrom), charge = 0, multiplicity = 1:

    H            2.337809316969    -0.126006728487    -0.112617326009
    O            1.584113591246    -0.677221634348     0.034481689647
    C            0.490023270482     0.078348131982    -0.014712956041
    C           -0.763937245244    -0.753403608597     0.002355504387
    O            0.539367324529     1.259016940236    -0.041169551904
    C           -2.038176962185     0.075081382890     0.023623341364
    H           -0.727226651508    -1.401593224392    -0.866542997734
    H           -0.701152300933    -1.409122768731     0.863679009986
    H           -2.100599841021     0.715327604281    -0.845900188589
    H           -2.903739861582    -0.575687541351     0.032847218448
    H           -2.076603080057     0.707357704417     0.900534492438

  Mulliken Charges: (a.u.)
   Center  Symbol    Alpha    Beta     Spin     Total
       1     H     0.38162  0.38162  0.00000  0.23676
       2     O     4.16115  4.16115  0.00000 -0.32230
       3     C     2.80318  2.80318  0.00000  0.39365
       4     C     3.10114  3.10114  0.00000 -0.20229
       5     O     4.18970  4.18970  0.00000 -0.37940
       6     C     3.13891  3.13891  0.00000 -0.27783
       7     H     0.44010  0.44010  0.00000  0.11979
       8     H     0.43885  0.43885  0.00000  0.12231
       9     H     0.44768  0.44768  0.00000  0.10464
      10     H     0.44968  0.44968  0.00000  0.10065
      11     H     0.44799  0.44799  0.00000  0.10403

   Total alpha = 20.00000, Total beta = 20.00000, Total charge =  0.00000

*** Psi4 exiting successfully. Buy a developer a beer!
