  ==> Input File <==

--------------------------------------------------------------------------
set {
	reference rhf
	basis cc-pvtz
}

set_num_threads( 4 )
memory 2 gb

molecule MOL {
0 1

H	 -1.364746	 0.067696	 -1.625901
C	 -0.776521	 -0.484937	 -0.925102
C	 -0.771634	 -1.865038	 -0.919312
C	 0.000000	 0.179985	 0.000046
H	 -1.368704	 -2.400767	 -1.630660
C	 0.000002	 -2.552036	 -0.000012
N	 0.000000	 1.644631	 0.000076
C	 0.776520	 -0.484975	 0.925168
H	 0.000000	 -3.625035	 -0.000032
C	 0.771636	 -1.865075	 0.919319
O	 1.050559	 2.194174	 -0.000073
O	 -1.050559	 2.194174	 -0.000074
H	 1.364752	 0.067629	 1.625984
H	 1.368703	 -2.400834	 1.630647

	symmetry c1
}
set optking {
	frozen_dihedral = ("
		2 4 7 11
	")
}

ee = optimize('scf')
oeprop('DIPOLE', 'QUADRUPOLE', 'MULLIKEN_CHARGES')
f=open( 'psi4out.xyz', 'w' )
f.write( "14  " )
f.write( str(ee) + "\n" )
f.write( MOL.save_string_xyz() )
f.close()
--------------------------------------------------------------------------

    Molecular point group: c1
  Charge       = 0
  Multiplicity = 1
  Basis Set: CC-PVTZ
  Basis Set:
  @DF-RHF Final Energy:  -434.32486762641071
    Total Energy =                       -434.3248676264107644
    Molecular point group: c1
  Basis Set: CC-PVTZ
  Basis Set:
  Basis Set: CC-PVTZ
  Basis Set:
  @DF-RHF Final Energy:  -434.31878929200116
    Total Energy =                       -434.3187892920009290
  Basis Set: CC-PVTZ
  Basis Set:
  Basis Set: CC-PVTZ
  Basis Set:
  @DF-RHF Final Energy:  -434.32511745099265
    Total Energy =                       -434.3251174509925931
  Basis Set: CC-PVTZ
  Basis Set:
  Basis Set: CC-PVTZ
  Basis Set:
  @DF-RHF Final Energy:  -434.32535797699217
    Total Energy =                       -434.3253579769923363
  Basis Set: CC-PVTZ
  Basis Set:
  Basis Set: CC-PVTZ
  Basis Set:
  @DF-RHF Final Energy:  -434.32535988587989
    Total Energy =                       -434.3253598858802889
  Basis Set: CC-PVTZ
  Basis Set:
  Charge       = 0
  Multiplicity = 1
  Basis Set: CC-PVTZ
  Basis Set:

    Orbital Energies (a.u.)
    -----------------------

    Doubly Occupied:

       1A    -20.595308     2A    -20.594958     3A    -15.847560
       4A    -11.305252     5A    -11.267966     6A    -11.267730
       7A    -11.261998     8A    -11.259707     9A    -11.259338
      10A     -1.642986    11A     -1.425930    12A     -1.206089
      13A     -1.096793    14A     -1.056446    15A     -0.959491
      16A     -0.872098    17A     -0.830145    18A     -0.786951
      19A     -0.740361    20A     -0.736356    21A     -0.715940
      22A     -0.655370    23A     -0.651248    24A     -0.626227
      25A     -0.559523    26A     -0.547881    27A     -0.533284
      28A     -0.497159    29A     -0.489041    30A     -0.457176
      31A     -0.374153    32A     -0.370311

  @DF-RHF Final Energy:  -434.32536013255776

   => Energetics <=

    Nuclear Repulsion Energy =            417.9205607360643171
    One-Electron Energy =               -1419.5102844109719626
    Two-Electron Energy =                 567.2643635423494288
    DFT Exchange-Correlation Energy =       0.0000000000000000
    Empirical Dispersion Energy =           0.0000000000000000
    PCM Polarization Energy =               0.0000000000000000
    EFP Energy =                            0.0000000000000000
    Total Energy =                       -434.3253601325582167
    Molecular point group: c1
  Basis Set: CC-PVTZ
  Basis Set:

  -Total Gradient:
     Atom            X                  Y                   Z
    ------   -----------------  -----------------  -----------------
       1        0.000009265287    -0.000000328224     0.000001763023
       2        0.003530843230    -0.000151598195    -0.002835630401
       3        0.000025539368     0.000017572166    -0.000032908306
       4       -0.004928225521     0.000151935821     0.002004932101
       5       -0.000002396407    -0.000000237465     0.000005226306
       6        0.000007915092     0.000001596616     0.000014397455
       7        0.001362335567     0.000010166121     0.006153567619
       8       -0.000093414760    -0.000015795083     0.000070622120
       9       -0.000001445545    -0.000002854385    -0.000001647411
      10       -0.000034415620    -0.000002364663     0.000015103722
      11        0.000092645353    -0.000056539689    -0.005408559130
      12        0.000035056351     0.000046246515     0.000016256835
      13       -0.000009241613    -0.000002257498     0.000002380256
      14        0.000005539213     0.000004457963    -0.000005504188

  **** Optimization is complete! (in 6 steps) ****
    Final optimized geometry and variables:
    Molecular point group: c1

    Geometry (in Angstrom), charge = 0, multiplicity = 1:

    H           -1.394514118371     0.078834766253    -1.594356728420
    C           -0.792788340631    -0.476763825426    -0.904661860832
    C           -0.767078431111    -1.857485930966    -0.918607445540
    C           -0.025946178109     0.179610015467     0.029765065283
    H           -1.349813577797    -2.391862263828    -1.642842921470
    C            0.005144999094    -2.546171402510    -0.001640585552
    N            0.000504123847     1.641183806336     0.005012607110
    C            0.776531239746    -0.480543628262     0.931575169778
    H            0.014266846636    -3.618870196139    -0.011409322798
    C            0.770879871037    -1.860978021954     0.924151162670
    O            1.063879338380     2.164637531028     0.021617785101
    O           -1.040996786510     2.202301960290    -0.071492764704
    H            1.384354680122     0.072609492976     1.617986193977
    H            1.371522488572    -2.398543088788     1.631194368399

  Mulliken Charges: (a.u.)
   Center  Symbol    Alpha    Beta     Spin     Total
       1     H     0.40714  0.40714  0.00000  0.18571
       2     C     3.08664  3.08664  0.00000 -0.17328
       3     C     3.06874  3.06874  0.00000 -0.13748
       4     C     2.93778  2.93778  0.00000  0.12443
       5     H     0.41718  0.41718  0.00000  0.16563
       6     C     3.07022  3.07022  0.00000 -0.14044
       7     N     3.27732  3.27732  0.00000  0.44535
       8     C     3.08526  3.08526  0.00000 -0.17052
       9     H     0.41754  0.41754  0.00000  0.16492
      10     C     3.06816  3.06816  0.00000 -0.13633
      11     O     4.16790  4.16790  0.00000 -0.33579
      12     O     4.17008  4.17008  0.00000 -0.34015
      13     H     0.40881  0.40881  0.00000  0.18238
      14     H     0.41722  0.41722  0.00000  0.16555

   Total alpha = 32.00000, Total beta = 32.00000, Total charge = -0.00000
