  ==> Input File <==

--------------------------------------------------------------------------
set {
	reference rhf
	basis cc-pvtz
}

set_num_threads( 4 )
memory 2 gb

molecule MOL {
0 1

O	 0.749630	 1.305591	 -0.000460
C	 0.576499	 0.134701	 -0.003900
C	 -0.765656	 -0.550508	 -0.002152
O	 1.564816	 -0.744612	 -0.000631
C	 -1.945526	 0.411052	 0.000603
H	 -0.794329	 -1.203792	 -0.868145
H	 -0.791555	 -1.205429	 0.862701
C	 -3.246172	 -0.275033	 -0.402549
H	 -1.737525	 1.233765	 -0.672652
H	 -2.048308	 0.847602	 0.986625
H	 -3.178556	 -0.693639	 -1.401302
H	 -4.071593	 0.426447	 -0.394369
H	 -3.493334	 -1.083611	 0.277481
C	 2.884339	 -0.237801	 0.002883
H	 3.064150	 0.362814	 -0.876312
H	 3.533055	 -1.098529	 0.004958
H	 3.059365	 0.363432	 0.882614

	symmetry c1
}
set optking {
	frozen_dihedral = ("
		9 5 3 6
	")
}

ee = optimize('scf')
oeprop('DIPOLE', 'QUADRUPOLE', 'MULLIKEN_CHARGES')
f=open( 'psi4out.xyz', 'w' )
f.write( "17  " )
f.write( str(ee) + "\n" )
f.write( MOL.save_string_xyz() )
f.close()
--------------------------------------------------------------------------

    Molecular point group: c1
  Charge       = 0
  Multiplicity = 1
  Basis Set: CC-PVTZ
  Basis Set:
  @DF-RHF Final Energy:  -345.03447314384732
    Total Energy =                       -345.0344731438475492
    Molecular point group: c1
  Basis Set: CC-PVTZ
  Basis Set:
  Basis Set: CC-PVTZ
  Basis Set:
  @DF-RHF Final Energy:  -345.03432353475188
    Total Energy =                       -345.0343235347513655
  Basis Set: CC-PVTZ
  Basis Set:
  Basis Set: CC-PVTZ
  Basis Set:
  @DF-RHF Final Energy:  -345.03413581662119
    Total Energy =                       -345.0341358166208465
  Basis Set: CC-PVTZ
  Basis Set:
  Basis Set: CC-PVTZ
  Basis Set:
  @DF-RHF Final Energy:  -345.03460207354522
    Total Energy =                       -345.0346020735453862
  Basis Set: CC-PVTZ
  Basis Set:
  Basis Set: CC-PVTZ
  Basis Set:
  @DF-RHF Final Energy:  -345.03460952882801
    Total Energy =                       -345.0346095288277297
  Basis Set: CC-PVTZ
  Basis Set:
  Basis Set: CC-PVTZ
  Basis Set:
  @DF-RHF Final Energy:  -345.03461107737201
    Total Energy =                       -345.0346110773722899
  Basis Set: CC-PVTZ
  Basis Set:
  Charge       = 0
  Multiplicity = 1
  Basis Set: CC-PVTZ
  Basis Set:

    Orbital Energies (a.u.)
    -----------------------

    Doubly Occupied:

       1A    -20.596809     2A    -20.534771     3A    -11.365368
       4A    -11.278853     5A    -11.234228     6A    -11.219771
       7A    -11.212924     8A     -1.472836     9A     -1.366425
      10A     -1.081273    11A     -1.002754    12A     -0.940451
      13A     -0.828324    14A     -0.769561    15A     -0.703679
      16A     -0.686311    17A     -0.676539    18A     -0.635929
      19A     -0.597737    20A     -0.575442    21A     -0.569633
      22A     -0.529436    23A     -0.523449    24A     -0.500413
      25A     -0.487884    26A     -0.477430    27A     -0.460268
      28A     -0.442300

  @DF-RHF Final Energy:  -345.03461123981720

   => Energetics <=

    Nuclear Repulsion Energy =            312.9661999351483246
    One-Electron Energy =               -1090.4600310767832525
    Two-Electron Energy =                 432.4592199018178462
    DFT Exchange-Correlation Energy =       0.0000000000000000
    Empirical Dispersion Energy =           0.0000000000000000
    PCM Polarization Energy =               0.0000000000000000
    EFP Energy =                            0.0000000000000000
    Total Energy =                       -345.0346112398170817
    Molecular point group: c1
  Basis Set: CC-PVTZ
  Basis Set:

  -Total Gradient:
     Atom            X                  Y                   Z
    ------   -----------------  -----------------  -----------------
       1        0.000007537509    -0.000005579512     0.000001188316
       2       -0.000010380328     0.000004742497    -0.000041658169
       3        0.002119999049     0.002648827455    -0.001292080008
       4        0.000003106522     0.000003369635     0.000021557564
       5       -0.001800060498    -0.002227396153    -0.002151843404
       6       -0.001467975462    -0.001828668169     0.001429955033
       7       -0.000005849616    -0.000005752381    -0.000014328488
       8        0.000003011473     0.000002338858    -0.000002714006
       9        0.001146702894     0.001403727912     0.002043730285
      10       -0.000001058402     0.000004258445     0.000010057428
      11       -0.000002415429    -0.000001312926    -0.000000441669
      12        0.000002986527    -0.000001048644    -0.000000401925
      13        0.000002346486     0.000002761144    -0.000000928471
      14        0.000002577662    -0.000000272768    -0.000001340985
      15       -0.000000591392     0.000000008698    -0.000000397932
      16        0.000000179355     0.000000485553     0.000000034015
      17       -0.000000116353    -0.000000489643    -0.000000387583

  **** Optimization is complete! (in 7 steps) ****
    Final optimized geometry and variables:
    Molecular point group: c1

    Geometry (in Angstrom), charge = 0, multiplicity = 1:

    O            0.752139838651     1.300830224491     0.071999666933
    C            0.574571280637     0.130721887573     0.053942272428
    C           -0.768821947251    -0.550445779392     0.030345709813
    O            1.560077061020    -0.751657539994     0.055732398212
    C           -1.955111504489     0.406194226476     0.034012846150
    H           -0.795288439129    -1.210020169483    -0.830972581468
    H           -0.803504869222    -1.212704758405     0.889735729693
    C           -3.263521218853    -0.288896826972    -0.322074234719
    H           -1.757659134231     1.226995399481    -0.643291814940
    H           -2.038313312460     0.858649225279     1.016251184289
    H           -3.228123558874    -0.704512179419    -1.323632246478
    H           -4.093780985868     0.405758793402    -0.281684309921
    H           -3.479443420424    -1.101193007091     0.364410570317
    C            2.880856198365    -0.249292180350     0.079861444246
    H            3.072023337150     0.362704128310    -0.789118225760
    H            3.527346863745    -1.111778953129     0.077068142697
    H            3.048597379797     0.339552210303     0.969431489198

  Mulliken Charges: (a.u.)
   Center  Symbol    Alpha    Beta     Spin     Total
       1     O     4.19642  4.19642  0.00000 -0.39283
       2     C     2.80520  2.80520  0.00000  0.38961
       3     C     3.09726  3.09726  0.00000 -0.19451
       4     O     4.14699  4.14699  0.00000 -0.29397
       5     C     3.08024  3.08024  0.00000 -0.16048
       6     H     0.44177  0.44177  0.00000  0.11646
       7     H     0.43994  0.43994  0.00000  0.12011
       8     C     3.15060  3.15060  0.00000 -0.30121
       9     H     0.44283  0.44283  0.00000  0.11434
      10     H     0.45042  0.45042  0.00000  0.09915
      11     H     0.45535  0.45535  0.00000  0.08930
      12     H     0.44586  0.44586  0.00000  0.10828
      13     H     0.45593  0.45593  0.00000  0.08814
      14     C     3.03721  3.03721  0.00000 -0.07441
      15     H     0.45430  0.45430  0.00000  0.09140
      16     H     0.44531  0.44531  0.00000  0.10939
      17     H     0.45438  0.45438  0.00000  0.09125

   Total alpha = 28.00000, Total beta = 28.00000, Total charge = -0.00000
