                              Psi4 1.0.54 Driver

  ==> Input File <==

--------------------------------------------------------------------------
set {
	reference rhf
	basis cc-pvtz
}

set_num_threads( 4 )
memory 2 gb

molecule MOL {
0 1

O	 -2.817697	 1.304178	 0.001046
C	 -2.664672	 0.129869	 0.003507
C	 -3.797908	 -0.860100	 -0.001145
O	 -1.481217	 -0.452708	 0.001092
H	 -4.408836	 -0.679689	 -0.875387
H	 -3.443486	 -1.878443	 -0.002770
H	 -4.412123	 -0.683688	 0.871605
C	 -0.332055	 0.384012	 -0.000250
C	 0.892252	 -0.506059	 -0.000295
H	 -0.360822	 1.020205	 -0.874146
H	 -0.359817	 1.021310	 0.872861
C	 2.188199	 0.299473	 -0.001416
H	 0.857046	 -1.152781	 -0.871031
H	 0.857910	 -1.151798	 0.871202
C	 3.437151	 -0.577593	 -0.000991
H	 2.209565	 0.950707	 -0.871712
H	 2.210062	 0.952234	 0.867721
C	 4.256176	 -0.451785	 -1.280983
H	 3.146274	 -1.614605	 0.140616
H	 4.057766	 -0.316246	 0.851430
H	 3.672596	 -0.739614	 -2.148989
H	 5.134394	 -1.085957	 -1.248345
H	 4.590876	 0.568887	 -1.432833

	symmetry c1
}
set optking {
	frozen_dihedral = ("
		19 15 12 16
	")
}

ee,wfn = optimize('scf', return_wfn=True)
oeprop( wfn, 'DIPOLE', 'QUADRUPOLE', 'MULLIKEN_CHARGES')
f=open( 'psi4out.xyz', 'w' )
f.write( "23  " )
f.write( str(ee) + "\n" )
f.write( MOL.save_string_xyz() )
f.close()
--------------------------------------------------------------------------

    Molecular point group: c1
  Charge       = 0
  Multiplicity = 1
  Basis Set: CC-PVTZ
  Basis Set:
  @DF-RHF Final Energy:  -423.12895197025188
    Total Energy =                       -423.1289519702520465
    Molecular point group: c1
  Basis Set: CC-PVTZ
  Basis Set:
  Basis Set: CC-PVTZ
  Basis Set:
  @DF-RHF Final Energy:  -423.12904076720514
    Total Energy =                       -423.1290407672051970
  Basis Set: CC-PVTZ
  Basis Set:
  Basis Set: CC-PVTZ
  Basis Set:
  @DF-RHF Final Energy:  -423.12913602900812
    Total Energy =                       -423.1291360290078956
  Basis Set: CC-PVTZ
  Basis Set:
  Basis Set: CC-PVTZ
  Basis Set:
  @DF-RHF Final Energy:  -423.12926484194207
    Total Energy =                       -423.1292648419423585
  Basis Set: CC-PVTZ
  Basis Set:
  Basis Set: CC-PVTZ
  Basis Set:
  @DF-RHF Final Energy:  -423.12929050382081
    Total Energy =                       -423.1292905038205845
  Basis Set: CC-PVTZ
  Basis Set:
  Charge       = 0
  Multiplicity = 1
  Basis Set: CC-PVTZ
  Basis Set:

    Orbital Energies (a.u.)
    -----------------------

    Doubly Occupied:

       1A    -20.595983     2A    -20.529546     3A    -11.366437
       4A    -11.279243     5A    -11.230722     6A    -11.222748
       7A    -11.221175     8A    -11.219286     9A    -11.211490
      10A     -1.471181    11A     -1.364000    12A     -1.093716
      13A     -1.042044    14A     -1.003802    15A     -0.931189
      16A     -0.845459    17A     -0.801596    18A     -0.775713
      19A     -0.694100    20A     -0.688480    21A     -0.672406
      22A     -0.637971    23A     -0.614042    24A     -0.595313
      25A     -0.582518    26A     -0.571909    27A     -0.550555
      28A     -0.533493    29A     -0.528744    30A     -0.504868
      31A     -0.500703    32A     -0.474798    33A     -0.465526
      34A     -0.464549    35A     -0.455375    36A     -0.438756

  @DF-RHF Final Energy:  -423.12929144657983

   => Energetics <=

    Nuclear Repulsion Energy =            451.9910901540392842
    One-Electron Energy =               -1471.8818908530831777
    Two-Electron Energy =                 596.7615092524639522
    DFT Exchange-Correlation Energy =       0.0000000000000000
    Empirical Dispersion Energy =           0.0000000000000000
    PCM Polarization Energy =               0.0000000000000000
    EFP Energy =                            0.0000000000000000
    Total Energy =                       -423.1292914465799413
    Molecular point group: c1
  Basis Set: CC-PVTZ
  Basis Set:

  -Total Gradient:
     Atom            X                  Y                   Z
    ------   -----------------  -----------------  -----------------
       1        0.000002065871     0.000105276034     0.000058975370
       2        0.000020443784    -0.000112564298    -0.000162476367
       3       -0.000001472282    -0.000015886892     0.000071532958
       4       -0.000017571685     0.000017266685     0.000004115077
       5       -0.000011444669     0.000003564596    -0.000023447036
       6        0.000002834693    -0.000005766597    -0.000001997490
       7       -0.000000678313     0.000009076876     0.000003742577
       8       -0.000001913701    -0.000008327257     0.000038609468
       9       -0.000004951577    -0.000001736354     0.000065710733
      10       -0.000027935094     0.000018566096    -0.000021716140
      11        0.000020835786    -0.000016720264    -0.000015343649
      12        0.000786186737     0.001056971404     0.000549188446
      13        0.000017685124    -0.000025016389     0.000011294115
      14       -0.000025698289     0.000030667520     0.000016535884
      15       -0.000015309680    -0.000028549268     0.001400786776
      16       -0.000643138102    -0.000910532860    -0.000698156748
      17        0.000026565537    -0.000027701689     0.000029226670
      18        0.000025601893     0.000015153841    -0.000015907825
      19       -0.000133299836    -0.000128177847    -0.001319862392
      20       -0.000020842431     0.000037569114     0.000006913875
      21       -0.000007674151     0.000009337904    -0.000007170844
      22       -0.000002304766    -0.000019183713    -0.000003887975
      23        0.000012015151    -0.000003286639     0.000013334516

  **** Optimization is complete! (in 6 steps) ****
    Final optimized geometry and variables:
    Molecular point group: c1

    Geometry (in Angstrom), charge = 0, multiplicity = 1:

    O           -2.764675441645     1.380351880918     0.113263363156
    C           -2.610523291808     0.206179641161     0.126846145266
    C           -3.742842665126    -0.785082167523     0.123387023803
    O           -1.426509971717    -0.374704142009     0.147919122334
    H           -4.345263172127    -0.616180688554    -0.759132490105
    H           -3.387449869242    -1.803029239549     0.137957907293
    H           -4.365766260321    -0.598313946547     0.987850963669
    C           -0.278760362330     0.463570801805     0.154459722020
    C            0.946768470460    -0.424078027961     0.177119741519
    H           -0.297128991300     1.093025877421    -0.724743966264
    H           -0.317755541658     1.108182034125     1.021949560932
    C            2.243306329364     0.383702955172     0.189771540905
    H            0.926198998157    -1.076278319419    -0.690557724728
    H            0.902125854921    -1.065138679625     1.051528541322
    C            3.507293499534    -0.499803124582     0.160014785280
    H            2.246541496008     1.047419442184    -0.669720445418
    H            2.254817633662     1.021636678273     1.067250083104
    C            4.302648734958    -0.373971436536    -1.136896761584
    H            3.225193821114    -1.539263418929     0.291757659029
    H            4.152155905462    -0.251497651589     0.995151517609
    H            3.692972023332    -0.635226631030    -1.995901626557
    H            5.166373220898    -1.029072474107    -1.132970127249
    H            4.656412406240     0.641235788560    -1.281129665850

  Mulliken Charges: (a.u.)
   Center  Symbol    Alpha    Beta     Spin     Total
       1     O     4.20245  4.20245  0.00000 -0.40489
       2     C     2.81502  2.81502  0.00000  0.36997
       3     C     3.13993  3.13993  0.00000 -0.27986
       4     O     4.14493  4.14493  0.00000 -0.28987
       5     H     0.44212  0.44212  0.00000  0.11577
       6     H     0.44190  0.44190  0.00000  0.11620
       7     H     0.44210  0.44210  0.00000  0.11580
       8     C     2.97932  2.97932  0.00000  0.04135
       9     C     3.08298  3.08298  0.00000 -0.16597
      10     H     0.45395  0.45395  0.00000  0.09211
      11     H     0.45424  0.45424  0.00000  0.09152
      12     C     3.10483  3.10483  0.00000 -0.20965
      13     H     0.45058  0.45058  0.00000  0.09885
      14     H     0.44999  0.44999  0.00000  0.10002
      15     C     3.08987  3.08987  0.00000 -0.17975
      16     H     0.45303  0.45303  0.00000  0.09393
      17     H     0.44636  0.44636  0.00000  0.10729
      18     C     3.14707  3.14707  0.00000 -0.29414
      19     H     0.45362  0.45362  0.00000  0.09275
      20     H     0.44782  0.44782  0.00000  0.10436
      21     H     0.45511  0.45511  0.00000  0.08978
      22     H     0.44882  0.44882  0.00000  0.10237
      23     H     0.45397  0.45397  0.00000  0.09206

   Total alpha = 36.00000, Total beta = 36.00000, Total charge =  0.00000

*** Psi4 exiting successfully. Buy a developer a beer!
