  ==> Input File <==

--------------------------------------------------------------------------
set {
	reference rhf
	basis cc-pvtz
}

set_num_threads( 4 )
memory 2 gb

molecule MOL {
0 1

H	 3.071408	 0.073316	 0.489996
O	 2.373776	 0.622014	 0.182923
C	 1.135873	 0.113391	 0.608264
C	 0.027642	 1.012027	 0.090274
H	 1.091441	 0.085385	 1.694086
H	 1.001327	 -0.904106	 0.251811
C	 -1.138737	 0.285728	 -0.581921
H	 0.464661	 1.708096	 -0.618252
H	 -0.340737	 1.603071	 0.925246
C	 -1.933983	 -0.631436	 0.343653
H	 -0.763151	 -0.285569	 -1.422081
H	 -1.808359	 1.035291	 -0.992333
H	 -2.789188	 -1.049673	 -0.174718
H	 -1.335629	 -1.461368	 0.700418
H	 -2.305435	 -0.092167	 1.209725

	symmetry c1
}
set optking {
	frozen_dihedral = ("
		2 3 4 8
	")
}

ee = optimize('scf')
oeprop('DIPOLE', 'QUADRUPOLE', 'MULLIKEN_CHARGES')
f=open( 'psi4out.xyz', 'w' )
f.write( "15  " )
f.write( str(ee) + "\n" )
f.write( MOL.save_string_xyz() )
f.close()
--------------------------------------------------------------------------

    Molecular point group: c1
  Charge       = 0
  Multiplicity = 1
  Basis Set: CC-PVTZ
  Basis Set:
  @DF-RHF Final Energy:  -232.23225134401326
    Total Energy =                       -232.2322513440130365
    Molecular point group: c1
  Basis Set: CC-PVTZ
  Basis Set:
  Basis Set: CC-PVTZ
  Basis Set:
  @DF-RHF Final Energy:  -232.23277788784836
    Total Energy =                       -232.2327778878484992
  Basis Set: CC-PVTZ
  Basis Set:
  Basis Set: CC-PVTZ
  Basis Set:
  @DF-RHF Final Energy:  -232.23279978361197
    Total Energy =                       -232.2327997836119948
  Basis Set: CC-PVTZ
  Basis Set:
  Basis Set: CC-PVTZ
  Basis Set:
  @DF-RHF Final Energy:  -232.23286682738583
    Total Energy =                       -232.2328668273857488
  Basis Set: CC-PVTZ
  Basis Set:
  Basis Set: CC-PVTZ
  Basis Set:
  @DF-RHF Final Energy:  -232.23287514011804
    Total Energy =                       -232.2328751401179829
  Basis Set: CC-PVTZ
  Basis Set:
  Charge       = 0
  Multiplicity = 1
  Basis Set: CC-PVTZ
  Basis Set:

    Orbital Energies (a.u.)
    -----------------------

    Doubly Occupied:

       1A    -20.545457     2A    -11.265696     3A    -11.215132
       4A    -11.209343     5A    -11.208822     6A     -1.362642
       7A     -1.069509     8A     -0.969869     9A     -0.870641
      10A     -0.784616    11A     -0.704049    12A     -0.648280
      13A     -0.606887    14A     -0.592386    15A     -0.557934
      16A     -0.537122    17A     -0.510906    18A     -0.476012
      19A     -0.472724    20A     -0.456198    21A     -0.432795

  @DF-RHF Final Energy:  -232.23287554557692

   => Energetics <=

    Nuclear Repulsion Energy =            188.3663963025855992
    One-Electron Energy =                -688.2045029017988327
    Two-Electron Energy =                 267.6052310536362597
    DFT Exchange-Correlation Energy =       0.0000000000000000
    Empirical Dispersion Energy =           0.0000000000000000
    PCM Polarization Energy =               0.0000000000000000
    EFP Energy =                            0.0000000000000000
    Total Energy =                       -232.2328755455769738
    Molecular point group: c1
  Basis Set: CC-PVTZ
  Basis Set:

  -Total Gradient:
     Atom            X                  Y                   Z
    ------   -----------------  -----------------  -----------------
       1       -0.000004965889    -0.000004821255    -0.000004737429
       2       -0.000133370434    -0.001238831417    -0.001991669288
       3        0.000264488612     0.001970511430     0.003059670317
       4       -0.000633143393    -0.002612450331    -0.003375293828
       5       -0.000003593398    -0.000004855762     0.000004648773
       6        0.000031680336     0.000004433647     0.000002342002
       7       -0.000009622351     0.000027771335     0.000008494028
       8        0.000493940255     0.001871817951     0.002291363604
       9       -0.000007229462    -0.000011754057     0.000002332930
      10        0.000009336435    -0.000005038653    -0.000004568293
      11       -0.000002114216    -0.000001700962     0.000011796138
      12        0.000002188227     0.000005342275    -0.000004913379
      13        0.000004950285    -0.000008510754    -0.000002749580
      14        0.000000661598     0.000004100632     0.000004069155
      15       -0.000013206601     0.000003985923    -0.000000785150

  **** Optimization is complete! (in 6 steps) ****
    Final optimized geometry and variables:
    Molecular point group: c1

    Geometry (in Angstrom), charge = 0, multiplicity = 1:

    H            2.929334810433    -0.162283359559     0.375613604057
    O            2.224060113371     0.359914840003     0.040093648301
    C            0.991782392839    -0.179663542128     0.448057233496
    C           -0.131558464928     0.737564202081    -0.044479063134
    H            0.963503415972    -0.282881876780     1.528636462733
    H            0.873138866312    -1.173892641031     0.024264160366
    C           -1.291757143600     0.014388872004    -0.724494442310
    H            0.316552140561     1.452822930951    -0.722375099180
    H           -0.515717398849     1.321321814043     0.787088083190
    C           -2.095100115305    -0.883637248239     0.213220796040
    H           -0.909796833240    -0.574512975690    -1.553805052579
    H           -1.957168310559     0.754622059221    -1.156994676747
    H           -2.909786641844    -1.367097923406    -0.313385987449
    H           -1.480494826102    -1.664153374103     0.648663274206
    H           -2.522822963869    -0.308890429418     1.028291519248

  Mulliken Charges: (a.u.)
   Center  Symbol    Alpha    Beta     Spin     Total
       1     H     0.39563  0.39563  0.00000  0.20875
       2     O     4.19804  4.19804  0.00000 -0.39607
       3     C     2.96502  2.96502  0.00000  0.06996
       4     C     3.09419  3.09419  0.00000 -0.18839
       5     H     0.47138  0.47138  0.00000  0.05725
       6     H     0.47503  0.47503  0.00000  0.04994
       7     C     3.09692  3.09692  0.00000 -0.19384
       8     H     0.43993  0.43993  0.00000  0.12014
       9     H     0.45505  0.45505  0.00000  0.08991
      10     C     3.14870  3.14870  0.00000 -0.29740
      11     H     0.45279  0.45279  0.00000  0.09442
      12     H     0.44886  0.44886  0.00000  0.10228
      13     H     0.44748  0.44748  0.00000  0.10503
      14     H     0.45655  0.45655  0.00000  0.08690
      15     H     0.45444  0.45444  0.00000  0.09112

   Total alpha = 21.00000, Total beta = 21.00000, Total charge = -0.00000
