  ==> Input File <==

--------------------------------------------------------------------------
set {
	reference rhf
	basis 6-31G*
}

set_num_threads( 1 )
memory 2 gb

molecule MOL {
0 1

O	 0.074228	 1.262779	 -0.000085
C	 0.028650	 0.075053	 -0.000277
C	 -1.233602	 -0.752807	 0.000328
O	 1.109162	 -0.694619	 -0.000298
C	 -2.501530	 0.091881	 0.000126
H	 -1.193807	 -1.406641	 -0.865785
H	 -1.193516	 -1.405779	 0.867015
H	 -2.545121	 0.729328	 -0.874513
H	 -3.377167	 -0.548497	 0.000561
H	 -2.544818	 0.730135	 0.874258
C	 1.998933	 -0.553134	 1.092349
H	 2.383775	 0.455324	 1.140548
H	 2.801205	 -1.251437	 0.911812
H	 1.499912	 -0.787853	 2.021519

	symmetry c1
}
set optking {
	frozen_dihedral = ("
		4 2 3 6
	")
}

ee = energy('scf')
oeprop('DIPOLE', 'QUADRUPOLE', 'MULLIKEN_CHARGES')
f=open( 'psi4out.xyz', 'w' )
f.write( "14  " )
f.write( str(ee) + "\n" )
f.write( MOL.save_string_xyz() )
f.close()
--------------------------------------------------------------------------

    Molecular point group: c1

    Geometry (in Angstrom), charge = 0, multiplicity = 1:

       Center              X                  Y                   Z               Mass
    ------------   -----------------  -----------------  -----------------  -----------------
           O          0.139695015301     1.354691362661    -0.195553669057    15.994914619560
           C          0.094117015301     0.166965362661    -0.195745669057    12.000000000000
           C         -1.168134984699    -0.660894637339    -0.195140669057    12.000000000000
           O          1.174629015301    -0.602706637339    -0.195766669057    15.994914619560
           C         -2.436062984699     0.183793362661    -0.195342669057    12.000000000000
           H         -1.128339984699    -1.314728637339    -1.061253669057     1.007825032070
           H         -1.128048984699    -1.313866637339     0.671546330943     1.007825032070
           H         -2.479653984699     0.821240362661    -1.069981669057     1.007825032070
           H         -3.311699984699    -0.456584637339    -0.194907669057     1.007825032070
           H         -2.479350984699     0.822047362661     0.678789330943     1.007825032070
           C          2.064400015301    -0.461221637339     0.896880330943    12.000000000000
           H          2.449242015301     0.547236362661     0.945079330943     1.007825032070
           H          2.866672015301    -1.159524637339     0.716343330943     1.007825032070
           H          1.565379015301    -0.695940637339     1.826050330943     1.007825032070

  Charge       = 0
  Multiplicity = 1
  Basis Set: 6-31G*
  Basis Set:

    Orbital Energies (a.u.)
    -----------------------

    Doubly Occupied:

       1A    -20.591251     2A    -20.552714     3A    -11.373904
       4A    -11.290285     5A    -11.239386     6A    -11.216663
       7A     -1.466232     8A     -1.365843     9A     -1.062745
      10A     -0.981724    11A     -0.884855    12A     -0.769446
      13A     -0.699868    14A     -0.680536    15A     -0.672933
      16A     -0.619317    17A     -0.613106    18A     -0.554778
      19A     -0.541432    20A     -0.522254    21A     -0.508767
      22A     -0.493177    23A     -0.455612    24A     -0.436553

  @DF-RHF Final Energy:  -305.85708964289438

   => Energetics <=

    Nuclear Repulsion Energy =            247.1712626616752857
    One-Electron Energy =                -906.8699109116246291
    Two-Electron Energy =                 353.8415586070548216
    DFT Exchange-Correlation Energy =       0.0000000000000000
    Empirical Dispersion Energy =           0.0000000000000000
    PCM Polarization Energy =               0.0000000000000000
    EFP Energy =                            0.0000000000000000
    Total Energy =                       -305.8570896428944934

  Mulliken Charges: (a.u.)
   Center  Symbol    Alpha    Beta     Spin     Total
       1     O     4.26793  4.26793  0.00000 -0.53587
       2     C     2.61191  2.61191  0.00000  0.77618
       3     C     3.20687  3.20687  0.00000 -0.41375
       4     O     4.30971  4.30971  0.00000 -0.61943
       5     C     3.24001  3.24001  0.00000 -0.48002
       6     H     0.39858  0.39858  0.00000  0.20283
       7     H     0.40556  0.40556  0.00000  0.18888
       8     H     0.40888  0.40888  0.00000  0.18223
       9     H     0.41835  0.41835  0.00000  0.16329
      10     H     0.41109  0.41109  0.00000  0.17783
      11     C     3.09448  3.09448  0.00000 -0.18896
      12     H     0.40315  0.40315  0.00000  0.19370
      13     H     0.40416  0.40416  0.00000  0.19168
      14     H     0.41931  0.41931  0.00000  0.16138

   Total alpha = 24.00000, Total beta = 24.00000, Total charge = -0.00000
