  ==> Input File <==

--------------------------------------------------------------------------
set {
	reference rhf
	basis 6-31G*
}

set_num_threads( 4 )
memory 2 gb

molecule MOL {
0 1

H	 -1.303844	 1.004383	 0.773293
C	 -0.790252	 0.431209	 0.000000
N	 0.538815	 0.649616	 0.000000
O	 -1.378747	 -0.297340	 -0.743034
C	 1.521968	 -0.411503	 0.000000
H	 0.852804	 1.592852	 0.000000
H	 2.150599	 -0.357004	 -0.881901
H	 0.999455	 -1.354525	 0.000000
H	 2.150599	 -0.357004	 0.881901

	symmetry c1
}
set optking {
	frozen_dihedral = ("
		1 2 3 6
	")
}

ee = optimize('scf')
oeprop('DIPOLE', 'QUADRUPOLE', 'MULLIKEN_CHARGES')
f=open( 'psi4out.xyz', 'w' )
f.write( "9  " )
f.write( str(ee) + "\n" )
f.write( MOL.save_string_xyz() )
f.close()
--------------------------------------------------------------------------

    Molecular point group: c1
  Charge       = 0
  Multiplicity = 1
  Basis Set: 6-31G*
  Basis Set:
  @DF-RHF Final Energy:  -207.93642401472363
    Total Energy =                       -207.9364240147235989
    Molecular point group: c1
  Basis Set: 6-31G*
  Basis Set:
  Basis Set: 6-31G*
  Basis Set:
  @DF-RHF Final Energy:  -207.94313635221880
    Total Energy =                       -207.9431363522188008
  Basis Set: 6-31G*
  Basis Set:
  Basis Set: 6-31G*
  Basis Set:
  @DF-RHF Final Energy:  -207.95057685503241
    Total Energy =                       -207.9505768550324092
  Basis Set: 6-31G*
  Basis Set:
  Basis Set: 6-31G*
  Basis Set:
  @DF-RHF Final Energy:  -207.95317096247533
    Total Energy =                       -207.9531709624753830
  Basis Set: 6-31G*
  Basis Set:
  @DF-RHF Final Energy:  -207.95410738671981
    Total Energy =                       -207.9541073867198406
  @DF-RHF Final Energy:  -207.95462935462865
    Total Energy =                       -207.9546293546286222
  @DF-RHF Final Energy:  -207.95516548764510
    Total Energy =                       -207.9551654876451323
  @DF-RHF Final Energy:  -207.95520616604045
    Total Energy =                       -207.9552061660405116
  @DF-RHF Final Energy:  -207.95520853487724
    Total Energy =                       -207.9552085348771584
  @DF-RHF Final Energy:  -207.95470363982037
    Total Energy =                       -207.9547036398203375
  Basis Set: 6-31G*
  Basis Set:
  @DF-RHF Final Energy:  -207.95520423324004
    Total Energy =                       -207.9552042332400674
  Basis Set: 6-31G*
  Basis Set:
  Basis Set: 6-31G*
  Basis Set:
  @DF-RHF Final Energy:  -207.95520544967457
    Total Energy =                       -207.9552054496745939
  Basis Set: 6-31G*
  Basis Set:
  Basis Set: 6-31G*
  Basis Set:
  @DF-RHF Final Energy:  -207.95520752496844
    Total Energy =                       -207.9552075249684435
  Basis Set: 6-31G*
  Basis Set:
  Charge       = 0
  Multiplicity = 1
  Basis Set: 6-31G*
  Basis Set:

    Orbital Energies (a.u.)
    -----------------------

    Doubly Occupied:

       1A    -20.543863     2A    -15.586918     3A    -11.347964
       4A    -11.255591     5A     -1.403141     6A     -1.233642
       7A     -0.958615     8A     -0.805940     9A     -0.738613
      10A     -0.646028    11A     -0.638897    12A     -0.579242
      13A     -0.551129    14A     -0.533398    15A     -0.434926
      16A     -0.404314

  @DF-RHF Final Energy:  -207.95520798229077

   => Energetics <=

    Nuclear Repulsion Energy =            122.8362341842104968
    One-Electron Energy =                -526.2584448555172685
    Two-Electron Energy =                 195.4670026890159704
    DFT Exchange-Correlation Energy =       0.0000000000000000
    Empirical Dispersion Energy =           0.0000000000000000
    PCM Polarization Energy =               0.0000000000000000
    EFP Energy =                            0.0000000000000000
    Total Energy =                       -207.9552079822907729
    Molecular point group: c1
  Basis Set: 6-31G*
  Basis Set:

  -Total Gradient:
     Atom            X                  Y                   Z
    ------   -----------------  -----------------  -----------------
       1       -0.002269008871    -0.005623106768     0.006601774331
       2        0.004084955146     0.006829743302    -0.011320188905
       3       -0.005377489759     0.000499653716     0.013804567013
       4       -0.000020443349    -0.000009315945     0.000014515242
       5       -0.000073333708     0.000117697923    -0.000123064473
       6        0.003708051826    -0.001805952150    -0.009008401194
       7        0.000003118808    -0.000006831778    -0.000001233607
       8       -0.000022255428    -0.000009014416     0.000006215664
       9       -0.000033594667     0.000007126116     0.000025815933

  **** Optimization is complete! (in 14 steps) ****
    Final optimized geometry and variables:
    Molecular point group: c1

    Geometry (in Angstrom), charge = 0, multiplicity = 1:

    H           -1.467650991315     1.184130418848     0.446223403320
    C           -0.791160920718     0.432427176427     0.037814392354
    N            0.477222276492     0.524225267472     0.550189857792
    O           -1.182148747730    -0.447349975471    -0.663337945307
    C            1.437537616671    -0.481480843923     0.118161219664
    H            0.851850887875     1.450503562959     0.511663182977
    H            1.634911133370    -0.445216843303    -0.948510772128
    H            1.053486384645    -1.461734655449     0.357560131366
    H            2.361971026834    -0.327609609040     0.659013129604

  Mulliken Charges: (a.u.)
   Center  Symbol    Alpha    Beta     Spin     Total
       1     H     0.42026  0.42026  0.00000  0.15948
       2     C     2.76145  2.76145  0.00000  0.47709
       3     N     3.86180  3.86180  0.00000 -0.72359
       4     O     4.26534  4.26534  0.00000 -0.53068
       5     C     3.14957  3.14957  0.00000 -0.29914
       6     H     0.31550  0.31550  0.00000  0.36900
       7     H     0.41350  0.41350  0.00000  0.17300
       8     H     0.39858  0.39858  0.00000  0.20283
       9     H     0.41400  0.41400  0.00000  0.17200

   Total alpha = 16.00000, Total beta = 16.00000, Total charge =  0.00000
