  ==> Input File <==

--------------------------------------------------------------------------
set {
	reference rhf
	basis cc-pvtz
}

set_num_threads( 4 )
memory 2 gb

molecule MOL {
0 1

H	 -2.694651	 2.098837	 1.350818
C	 -2.103078	 1.439097	 1.981428
O	 -0.806525	 1.306380	 1.503018
H	 -2.047768	 1.863682	 2.973172
H	 -2.607969	 0.476593	 2.041059
C	 -0.718530	 0.758693	 0.228682
C	 0.718529	 0.758687	 -0.228709
H	 -1.087702	 -0.266816	 0.232396
H	 -1.318516	 1.328568	 -0.477497
O	 1.401606	 -0.295166	 0.366636
H	 0.748705	 0.673477	 -1.312803
H	 1.176496	 1.708671	 0.046552
C	 2.714315	 -0.441627	 -0.061017
H	 2.765292	 -0.641548	 -1.128869
H	 3.305661	 0.447341	 0.150952
H	 3.143725	 -1.278506	 0.470147

	symmetry c1
}
set optking {
	frozen_dihedral = ("
		3 6 7 11
	")
}

ee = optimize('scf')
oeprop('DIPOLE', 'QUADRUPOLE', 'MULLIKEN_CHARGES')
f=open( 'psi4out.xyz', 'w' )
f.write( "16  " )
f.write( str(ee) + "\n" )
f.write( MOL.save_string_xyz() )
f.close()
--------------------------------------------------------------------------

    Molecular point group: c1
  Charge       = 0
  Multiplicity = 1
  Basis Set: CC-PVTZ
  Basis Set:
  @DF-RHF Final Energy:  -307.09730855875608
    Total Energy =                       -307.0973085587562537
    Molecular point group: c1
  Basis Set: CC-PVTZ
  Basis Set:
  Basis Set: CC-PVTZ
  Basis Set:
  @DF-RHF Final Energy:  -307.09773144758822
    Total Energy =                       -307.0977314475882167
  Basis Set: CC-PVTZ
  Basis Set:
  Basis Set: CC-PVTZ
  Basis Set:
  @DF-RHF Final Energy:  -307.09777009998311
    Total Energy =                       -307.0977700999830518
  Basis Set: CC-PVTZ
  Basis Set:
  Charge       = 0
  Multiplicity = 1
  Basis Set: CC-PVTZ
  Basis Set:

    Orbital Energies (a.u.)
    -----------------------

    Doubly Occupied:

       1A    -20.548467     2A    -20.548237     3A    -11.267400
       4A    -11.266718     5A    -11.261908     6A    -11.261820
       7A     -1.391624     8A     -1.375215     9A     -1.031871
      10A     -0.937749    11A     -0.891474    12A     -0.825566
      13A     -0.685659    14A     -0.683553    15A     -0.659456
      16A     -0.637131    17A     -0.634301    18A     -0.599144
      19A     -0.547195    20A     -0.538732    21A     -0.510071
      22A     -0.480507    23A     -0.464894    24A     -0.424287
      25A     -0.413395

  @DF-RHF Final Energy:  -307.09777219380908

   => Energetics <=

    Nuclear Repulsion Energy =            258.4846139453305796
    One-Electron Energy =                -931.3920188792429826
    Two-Electron Energy =                 365.8096327401034955
    DFT Exchange-Correlation Energy =       0.0000000000000000
    Empirical Dispersion Energy =           0.0000000000000000
    PCM Polarization Energy =               0.0000000000000000
    EFP Energy =                            0.0000000000000000
    Total Energy =                       -307.0977721938089076
    Molecular point group: c1
  Basis Set: CC-PVTZ
  Basis Set:

  -Total Gradient:
     Atom            X                  Y                   Z
    ------   -----------------  -----------------  -----------------
       1       -0.000009658366    -0.000009222794     0.000010128233
       2       -0.000003692244     0.000060701333     0.000037775334
       3       -0.000151176686     0.001051857307    -0.000572919102
       4       -0.000030184133    -0.000003269134     0.000014887045
       5        0.000006655122    -0.000006555872    -0.000004557307
       6        0.000214186023    -0.001055973131     0.000652102649
       7       -0.000152018850    -0.001665661992     0.000021558850
       8       -0.000004103410     0.000026580580     0.000031613926
       9       -0.000029223986     0.000010239169    -0.000010846878
      10        0.000015470609     0.000098468864    -0.000043324749
      11        0.000059824473     0.001574062880    -0.000170601626
      12        0.000026877609    -0.000032679284     0.000018055812
      13        0.000010864309    -0.000055295306     0.000014010321
      14        0.000003326546     0.000003574120     0.000008165595
      15        0.000005461573     0.000006287612     0.000000008452
      16        0.000037391414    -0.000003114352    -0.000006056555

  **** Optimization is complete! (in 4 steps) ****
    Final optimized geometry and variables:
    Molecular point group: c1

    Geometry (in Angstrom), charge = 0, multiplicity = 1:

    H           -2.941663018259     1.386449778277     0.797402206260
    C           -2.238865125235     0.816461124666     1.402419409345
    O           -0.975155322051     0.790874854381     0.827659630702
    H           -2.152714237856     1.288106024686     2.370436795655
    H           -2.635976781313    -0.187124001847     1.536132405899
    C           -0.932199718534     0.218578168769    -0.439217574693
    C            0.497971495109     0.142833577169    -0.915299548178
    H           -1.358938522534    -0.781479901267    -0.427427509482
    H           -1.508683298484     0.822168184547    -1.139975230796
    O            1.140259972834    -0.932734452090    -0.313143147979
    H            0.510694134622     0.038602665170    -1.999981780003
    H            0.999300557474     1.076326351454    -0.669413626887
    C            2.494993660264    -1.026995671290    -0.602944090919
    H            2.667994934267    -1.142991698133    -1.671279262880
    H            3.037330664236    -0.148753145328    -0.260421299574
    H            2.882927424772    -1.896358461446    -0.092434976618

  Mulliken Charges: (a.u.)
   Center  Symbol    Alpha    Beta     Spin     Total
       1     H     0.47365  0.47365  0.00000  0.05271
       2     C     3.03166  3.03166  0.00000 -0.06333
       3     O     4.17152  4.17152  0.00000 -0.34305
       4     H     0.44643  0.44643  0.00000  0.10715
       5     H     0.46996  0.46996  0.00000  0.06007
       6     C     2.96017  2.96017  0.00000  0.07966
       7     C     2.95972  2.95972  0.00000  0.08055
       8     H     0.47026  0.47026  0.00000  0.05949
       9     H     0.47640  0.47640  0.00000  0.04720
      10     O     4.17146  4.17146  0.00000 -0.34292
      11     H     0.47642  0.47642  0.00000  0.04716
      12     H     0.47074  0.47074  0.00000  0.05853
      13     C     3.03182  3.03182  0.00000 -0.06364
      14     H     0.47346  0.47346  0.00000  0.05309
      15     H     0.46994  0.46994  0.00000  0.06012
      16     H     0.44639  0.44639  0.00000  0.10721

   Total alpha = 25.00000, Total beta = 25.00000, Total charge =  0.00000
