                              Psi4 1.0.54 Driver

  ==> Input File <==

--------------------------------------------------------------------------
set {
	reference rhf
	basis cc-pvtz
}

set_num_threads( 4 )
memory 2 gb

molecule MOL {
0 1

H	 3.770683	 -0.715263	 0.371118
O	 2.875310	 -0.926525	 0.588769
C	 2.076458	 -0.067370	 -0.038225
C	 0.626018	 -0.337582	 0.258241
O	 2.498878	 0.789580	 -0.734673
C	 -0.267326	 0.883135	 0.076490
H	 0.325620	 -1.161483	 -0.378003
H	 0.574537	 -0.713685	 1.275261
C	 -1.726822	 0.642622	 0.463839
H	 -0.210803	 1.217591	 -0.953497
H	 0.129920	 1.693110	 0.675679
C	 -2.480891	 -0.340606	 -0.429852
H	 -2.243098	 1.597649	 0.438609
H	 -1.776542	 0.301208	 1.495542
C	 -3.955933	 -0.460128	 -0.060472
H	 -2.393755	 -0.020485	 -1.464726
H	 -2.024244	 -1.323637	 -0.374360
H	 -4.467673	 -1.160944	 -0.709827
H	 -4.458917	 0.497287	 -0.144505
H	 -4.076458	 -0.806900	 0.960497

	symmetry c1
}
set optking {
	frozen_dihedral = ("
		5 3 4 7
	")
}

ee,wfn = optimize('scf', return_wfn=True)
oeprop( wfn, 'DIPOLE', 'QUADRUPOLE', 'MULLIKEN_CHARGES')
f=open( 'psi4out.xyz', 'w' )
f.write( "20  " )
f.write( str(ee) + "\n" )
f.write( MOL.save_string_xyz() )
f.close()
--------------------------------------------------------------------------

    Molecular point group: c1
  Charge       = 0
  Multiplicity = 1
  Basis Set: CC-PVTZ
  Basis Set:
  @DF-RHF Final Energy:  -384.09434649983979
    Total Energy =                       -384.0943464998395029
    Molecular point group: c1
  Basis Set: CC-PVTZ
  Basis Set:
  Basis Set: CC-PVTZ
  Basis Set:
  @DF-RHF Final Energy:  -384.09356974774283
    Total Energy =                       -384.0935697477427766
  Basis Set: CC-PVTZ
  Basis Set:
  Basis Set: CC-PVTZ
  Basis Set:
  @DF-RHF Final Energy:  -384.09449340004352
    Total Energy =                       -384.0944934000436319
  Basis Set: CC-PVTZ
  Basis Set:
  Basis Set: CC-PVTZ
  Basis Set:
  @DF-RHF Final Energy:  -384.09459992116490
    Total Energy =                       -384.0945999211647859
  Basis Set: CC-PVTZ
  Basis Set:
  Charge       = 0
  Multiplicity = 1
  Basis Set: CC-PVTZ
  Basis Set:

    Orbital Energies (a.u.)
    -----------------------

    Doubly Occupied:

       1A    -20.604389     2A    -20.539603     3A    -11.373353
       4A    -11.238461     5A    -11.222033     6A    -11.219006
       7A    -11.218355     8A    -11.210631     9A     -1.477528
      10A     -1.368661    11A     -1.097765    12A     -1.042137
      13A     -0.962372    14A     -0.870031    15A     -0.818865
      16A     -0.778534    17A     -0.704032    18A     -0.692747
      19A     -0.665572    20A     -0.635514    21A     -0.607475
      22A     -0.596728    23A     -0.577203    24A     -0.557401
      25A     -0.540271    26A     -0.514338    27A     -0.496124
      28A     -0.484914    29A     -0.471304    30A     -0.468279
      31A     -0.459779    32A     -0.444483

  @DF-RHF Final Energy:  -384.09460012377787

   => Energetics <=

    Nuclear Repulsion Energy =            376.6647676808983647
    One-Electron Energy =               -1269.6029606857509862
    Two-Electron Energy =                 508.8435928810748692
    DFT Exchange-Correlation Energy =       0.0000000000000000
    Empirical Dispersion Energy =           0.0000000000000000
    PCM Polarization Energy =               0.0000000000000000
    EFP Energy =                            0.0000000000000000
    Total Energy =                       -384.0946001237776954
    Molecular point group: c1
  Basis Set: CC-PVTZ
  Basis Set:

  -Total Gradient:
     Atom            X                  Y                   Z
    ------   -----------------  -----------------  -----------------
       1        0.000010308081     0.000025146803     0.000003772246
       2        0.000054092337    -0.000093216725     0.000048342562
       3       -0.000002828816     0.001354861476     0.000878659036
       4        0.000231288530    -0.001042344277     0.000277744900
       5       -0.000091854064    -0.000848453603    -0.000669433382
       6        0.000028492969     0.000001007103     0.000117968027
       7       -0.000334260451     0.000583620086    -0.000622626094
       8        0.000034129209    -0.000002463617     0.000003670624
       9       -0.000017180528     0.000049718119    -0.000037933283
      10       -0.000008375137     0.000027935818    -0.000009032245
      11        0.000027477452    -0.000030600068     0.000009286295
      12        0.000024232472     0.000003225154    -0.000021537931
      13       -0.000007288639     0.000009391519    -0.000024010596
      14       -0.000015095523     0.000025095462     0.000014718239
      15        0.000006289358    -0.000029206457     0.000027174520
      16       -0.000007932190     0.000011410514     0.000016177711
      17        0.000074060055    -0.000041048453    -0.000014909314
      18       -0.000000842275    -0.000009216019    -0.000000723021
      19        0.000005138357     0.000007403660    -0.000005987907
      20       -0.000009851195    -0.000002266497     0.000008679611

  **** Optimization is complete! (in 5 steps) ****
    Final optimized geometry and variables:
    Molecular point group: c1

    Geometry (in Angstrom), charge = 0, multiplicity = 1:

    H            3.762273449200    -0.806715452432     0.193635101877
    O            2.876848791579    -0.999453505247     0.463661340743
    C            2.068986115698    -0.084795352048    -0.064858709404
    C            0.624168421817    -0.349627852609     0.263826607892
    O            2.475717436354     0.798746694101    -0.737283064823
    C           -0.261338697103     0.882438722949     0.106972837399
    H            0.311189934318    -1.143036000853    -0.407087557609
    H            0.570046132327    -0.754645387243     1.266746976343
    C           -1.724155643076     0.641560646547     0.481238896833
    H           -0.194344628437     1.241495037551    -0.912852003177
    H            0.135402202680     1.675117188766     0.731511816848
    C           -2.476421691331    -0.319980858304    -0.437288148335
    H           -2.235593096713     1.599524024678     0.471624156880
    H           -1.782551946352     0.279811986527     1.505489904686
    C           -3.952036488946    -0.448974646408    -0.072964700078
    H           -2.387476019664     0.024753669715    -1.463993116880
    H           -2.019626409861    -1.304021193521    -0.404396412623
    H           -4.461646124532    -1.136890095409    -0.737607449187
    H           -4.456177211744     0.509309009756    -0.138230536402
    H           -4.074045063219    -0.816915317898     0.940414664123

  Mulliken Charges: (a.u.)
   Center  Symbol    Alpha    Beta     Spin     Total
       1     H     0.38176  0.38176  0.00000  0.23648
       2     O     4.15947  4.15947  0.00000 -0.31894
       3     C     2.80675  2.80675  0.00000  0.38651
       4     C     3.10611  3.10611  0.00000 -0.21221
       5     O     4.19302  4.19302  0.00000 -0.38604
       6     C     3.09456  3.09456  0.00000 -0.18911
       7     H     0.44023  0.44023  0.00000  0.11955
       8     H     0.43626  0.43626  0.00000  0.12747
       9     C     3.09831  3.09831  0.00000 -0.19662
      10     H     0.44146  0.44146  0.00000  0.11708
      11     H     0.44314  0.44314  0.00000  0.11371
      12     C     3.08719  3.08719  0.00000 -0.17437
      13     H     0.44572  0.44572  0.00000  0.10857
      14     H     0.45408  0.45408  0.00000  0.09185
      15     C     3.14958  3.14958  0.00000 -0.29915
      16     H     0.45164  0.45164  0.00000  0.09671
      17     H     0.45464  0.45464  0.00000  0.09072
      18     H     0.44765  0.44765  0.00000  0.10470
      19     H     0.45359  0.45359  0.00000  0.09281
      20     H     0.45486  0.45486  0.00000  0.09028

   Total alpha = 32.00000, Total beta = 32.00000, Total charge = -0.00000

*** Psi4 exiting successfully. Buy a developer a beer!
