  ==> Input File <==

--------------------------------------------------------------------------
set {
	reference rhf
	basis cc-pvtz
}

set_num_threads( 4 )
memory 2 gb

molecule MOL {
0 1

H	 -2.816458	 -0.841657	 -0.064679
N	 -1.878861	 -0.711874	 0.250184
C	 -1.341419	 0.551458	 -0.220231
H	 -1.333674	 -1.468530	 -0.105118
C	 -2.115822	 1.042279	 -1.421914
H	 -1.349424	 1.334575	 0.536874
H	 -0.310411	 0.399875	 -0.520389
O	 -3.424665	 1.325517	 -1.028959
H	 -1.644294	 1.937467	 -1.824993
H	 -2.113210	 0.277795	 -2.195533
C	 -4.263228	 1.722995	 -2.062421
H	 -5.239794	 1.916275	 -1.642481
H	 -3.902586	 2.631538	 -2.540105
H	 -4.354640	 0.948893	 -2.820690

	symmetry c1
}
set optking {
	frozen_dihedral = ("
		6 3 2 4
	")
}

ee = optimize('scf')
oeprop('DIPOLE', 'QUADRUPOLE', 'MULLIKEN_CHARGES')
f=open( 'psi4out.xyz', 'w' )
f.write( "14  " )
f.write( str(ee) + "\n" )
f.write( MOL.save_string_xyz() )
f.close()
--------------------------------------------------------------------------

    Molecular point group: c1
  Charge       = 0
  Multiplicity = 1
  Basis Set: CC-PVTZ
  Basis Set:
  @DF-RHF Final Energy:  -248.22105095019484
    Total Energy =                       -248.2210509501948081
    Molecular point group: c1
  Basis Set: CC-PVTZ
  Basis Set:
  Basis Set: CC-PVTZ
  Basis Set:
  @DF-RHF Final Energy:  -248.22292819036301
    Total Energy =                       -248.2229281903632909
  Basis Set: CC-PVTZ
  Basis Set:
  Basis Set: CC-PVTZ
  Basis Set:
  @DF-RHF Final Energy:  -248.22320020341223
    Total Energy =                       -248.2232002034120342
  Basis Set: CC-PVTZ
  Basis Set:
  Basis Set: CC-PVTZ
  Basis Set:
  @DF-RHF Final Energy:  -248.22321364897218
    Total Energy =                       -248.2232136489721483
  Basis Set: CC-PVTZ
  Basis Set:
  Charge       = 0
  Multiplicity = 1
  Basis Set: CC-PVTZ
  Basis Set:

    Orbital Energies (a.u.)
    -----------------------

    Doubly Occupied:

       1A    -20.553745     2A    -15.520137     3A    -11.267131
       4A    -11.266414     5A    -11.240061     6A     -1.387883
       7A     -1.173086     8A     -1.001088     9A     -0.910067
      10A     -0.822225    11A     -0.686891    12A     -0.676448
      13A     -0.650188    14A     -0.627533    15A     -0.589592
      16A     -0.559478    17A     -0.518953    18A     -0.501529
      19A     -0.483284    20A     -0.423010    21A     -0.375687

  @DF-RHF Final Energy:  -248.22321520704361

   => Energetics <=

    Nuclear Repulsion Energy =            194.4084835933648492
    One-Electron Energy =                -722.7945368907653574
    Two-Electron Energy =                 280.1628380903570701
    DFT Exchange-Correlation Energy =       0.0000000000000000
    Empirical Dispersion Energy =           0.0000000000000000
    PCM Polarization Energy =               0.0000000000000000
    EFP Energy =                            0.0000000000000000
    Total Energy =                       -248.2232152070434381
    Molecular point group: c1
  Basis Set: CC-PVTZ
  Basis Set:

  -Total Gradient:
     Atom            X                  Y                   Z
    ------   -----------------  -----------------  -----------------
       1        0.000017945898     0.000009155783    -0.000006907200
       2       -0.002539735778    -0.000639175881    -0.003625782963
       3       -0.003608938616     0.001338251787    -0.000303772944
       4        0.002658624110     0.000337123712     0.003050333529
       5       -0.000039715027    -0.000116992003     0.000073693637
       6        0.003410037730    -0.001026457433     0.000856410572
       7        0.000042160192     0.000017158269    -0.000025547020
       8        0.000023297097     0.000041473998    -0.000030131181
       9        0.000004630423     0.000029622337    -0.000010926584
      10        0.000038664944     0.000004198273     0.000004097242
      11       -0.000020475675     0.000028967292     0.000007260990
      12       -0.000002745549    -0.000003870214    -0.000004445662
      13        0.000003562022    -0.000010852233     0.000007397699
      14        0.000012688228    -0.000008603686     0.000008319882

  **** Optimization is complete! (in 5 steps) ****
    Final optimized geometry and variables:
    Molecular point group: c1

    Geometry (in Angstrom), charge = 0, multiplicity = 1:

    H           -0.202094460233    -1.581427011912     1.083998622283
    N            0.778620059872    -1.478055712702     1.218988645782
    C            1.281681245971    -0.234694009620     0.668507561892
    H            1.261130899915    -2.274978732689     0.871292059819
    C            0.504656719264     0.293141652020    -0.520306997086
    H            1.312526231259     0.521104881204     1.446187964358
    H            2.310716107806    -0.381200746652     0.357152937417
    O           -0.819560804891     0.504579579867    -0.139690021984
    H            0.949856122111     1.224410159264    -0.869519092880
    H            0.545848546468    -0.423441663603    -1.340952327213
    C           -1.647562789728     0.964244078648    -1.155847409813
    H           -2.639445462545     1.087286090537    -0.745856024015
    H           -1.307739901219     1.922248918928    -1.542883325742
    H           -1.694565447432     0.257562677694    -1.981615655045

  Mulliken Charges: (a.u.)
   Center  Symbol    Alpha    Beta     Spin     Total
       1     H     0.41922  0.41922  0.00000  0.16157
       2     N     3.70101  3.70101  0.00000 -0.40202
       3     C     3.01766  3.01766  0.00000 -0.03532
       4     H     0.42828  0.42828  0.00000  0.14345
       5     C     2.97166  2.97166  0.00000  0.05668
       6     H     0.45846  0.45846  0.00000  0.08307
       7     H     0.46022  0.46022  0.00000  0.07956
       8     O     4.17667  4.17667  0.00000 -0.35334
       9     H     0.47035  0.47035  0.00000  0.05929
      10     H     0.47673  0.47673  0.00000  0.04654
      11     C     3.03178  3.03178  0.00000 -0.06356
      12     H     0.44664  0.44664  0.00000  0.10671
      13     H     0.47004  0.47004  0.00000  0.05992
      14     H     0.47128  0.47128  0.00000  0.05744

   Total alpha = 21.00000, Total beta = 21.00000, Total charge = -0.00000
