                              Psi4 1.0.54 Driver

  ==> Input File <==

--------------------------------------------------------------------------
set {
	reference rhf
	basis cc-pvtz
}

set_num_threads( 4 )
memory 2 gb

molecule MOL {
0 1

H	 0.345477	 2.382197	 6.592031
C	 -0.182903	 1.481693	 6.300873
C	 -0.664786	 1.567852	 4.856682
H	 0.492351	 0.643789	 6.435654
H	 -1.014416	 1.349963	 6.985734
C	 -1.424232	 0.319080	 4.414209
H	 0.186765	 1.723172	 4.204245
H	 -1.308727	 2.437084	 4.744432
C	 -1.924322	 0.379393	 2.974362
H	 -0.790136	 -0.551035	 4.531045
H	 -2.280791	 0.175959	 5.066594
C	 -0.837362	 0.258942	 1.919614
H	 -2.616042	 -0.438675	 2.789818
H	 -2.490893	 1.288871	 2.797263
C	 -1.180025	 0.697761	 0.509157
O	 0.236528	 -0.180988	 2.177488
C	 -2.285431	 -0.137488	 -0.145671
H	 -0.270345	 0.633791	 -0.072419
H	 -1.485889	 1.740235	 0.538995
C	 -3.646545	 0.082747	 0.508954
H	 -2.348635	 0.118247	 -1.199806
H	 -2.034895	 -1.192387	 -0.096473
C	 -4.757412	 -0.737227	 -0.138149
H	 -3.900211	 1.137405	 0.459735
H	 -3.580878	 -0.166775	 1.564416
H	 -4.867876	 -0.486707	 -1.187777
H	 -4.549650	 -1.800049	 -0.072540
H	 -5.709585	 -0.556397	 0.346597

	symmetry c1
}
set optking {
	frozen_dihedral = ("
		12 15 17 21
	")
}

ee,wfn = optimize('scf', return_wfn=True)
oeprop( wfn, 'DIPOLE', 'QUADRUPOLE', 'MULLIKEN_CHARGES')
f=open( 'psi4out.xyz', 'w' )
f.write( "28  " )
f.write( str(ee) + "\n" )
f.write( MOL.save_string_xyz() )
f.close()
--------------------------------------------------------------------------

    Molecular point group: c1
  Charge       = 0
  Multiplicity = 1
  Basis Set: CC-PVTZ
  Basis Set:
  @DF-RHF Final Energy:  -426.30459905946338
    Total Energy =                       -426.3045990594636123
    Molecular point group: c1
  Basis Set: CC-PVTZ
  Basis Set:
  Basis Set: CC-PVTZ
  Basis Set:
  @DF-RHF Final Energy:  -426.29347678457657
    Total Energy =                       -426.2934767845763417
  Basis Set: CC-PVTZ
  Basis Set:
  Basis Set: CC-PVTZ
  Basis Set:
  @DF-RHF Final Energy:  -426.31378962184942
    Total Energy =                       -426.3137896218497644
  Basis Set: CC-PVTZ
  Basis Set:
  Basis Set: CC-PVTZ
  Basis Set:
  @DF-RHF Final Energy:  -426.31344020166250
    Total Energy =                       -426.3134402016630702
  Basis Set: CC-PVTZ
  Basis Set:
  @DF-RHF Final Energy:  -426.31394346091065
    Total Energy =                       -426.3139434609101954
  @DF-RHF Final Energy:  -426.31524521069639
    Total Energy =                       -426.3152452106965029
  @DF-RHF Final Energy:  -426.31574446437526
    Total Energy =                       -426.3157444643757117
  @DF-RHF Final Energy:  -426.31633912005316
    Total Energy =                       -426.3163391200531578
  @DF-RHF Final Energy:  -426.31677053400040
    Total Energy =                       -426.3167705340001703
  @DF-RHF Final Energy:  -426.22719243976644
    Total Energy =                       -426.2271924397665543
  @DF-RHF Final Energy:  -426.30759631862816
    Total Energy =                       -426.3075963186274748
  @DF-RHF Final Energy:  -426.31772250719166
    Total Energy =                       -426.3177225071920020
  @DF-RHF Final Energy:  -426.31863614974031
    Total Energy =                       -426.3186361497406551
  @DF-RHF Final Energy:  -426.31641884663543
    Total Energy =                       -426.3164188466361111
  @DF-RHF Final Energy:  -426.32003391719343
    Total Energy =                       -426.3200339171933138
  @DF-RHF Final Energy:  -426.31998745799399
    Total Energy =                       -426.3199874579939888
  @DF-RHF Final Energy:  -426.31836683219592
    Total Energy =                       -426.3183668321954656
  @DF-RHF Final Energy:  -426.32065947188437
    Total Energy =                       -426.3206594718842553
  @DF-RHF Final Energy:  -426.32092435842139
    Total Energy =                       -426.3209243584213937
  @DF-RHF Final Energy:  -426.31897949070606
    Total Energy =                       -426.3189794907060559
  @DF-RHF Final Energy:  -426.32147970958988
    Total Energy =                       -426.3214797095903350
  Basis Set: CC-PVTZ
  Basis Set:
  @DF-RHF Final Energy:  -426.32142057880969
    Total Energy =                       -426.3214205788101481
  Basis Set: CC-PVTZ
  Basis Set:
  Basis Set: CC-PVTZ
  Basis Set:
  @DF-RHF Final Energy:  -426.32161546332918
    Total Energy =                       -426.3216154633287260
  Basis Set: CC-PVTZ
  Basis Set:
  Basis Set: CC-PVTZ
  Basis Set:
  @DF-RHF Final Energy:  -426.32161924479476
    Total Energy =                       -426.3216192447953290
  Basis Set: CC-PVTZ
  Basis Set:
  Charge       = 0
  Multiplicity = 1
  Basis Set: CC-PVTZ
  Basis Set:

    Orbital Energies (a.u.)
    -----------------------

    Doubly Occupied:

       1A    -20.538120     2A    -11.318847     3A    -11.229510
       4A    -11.229487     5A    -11.215944     6A    -11.215499
       7A    -11.211662     8A    -11.211307     9A    -11.204663
      10A    -11.204635    11A     -1.398973    12A     -1.089082
      13A     -1.077845    14A     -1.022306    15A     -0.990801
      16A     -0.910878    17A     -0.865849    18A     -0.808341
      19A     -0.790070    20A     -0.723838    21A     -0.678660
      22A     -0.637951    23A     -0.635155    24A     -0.615702
      25A     -0.606287    26A     -0.588476    27A     -0.578689
      28A     -0.574711    29A     -0.541000    30A     -0.525832
      31A     -0.521626    32A     -0.511199    33A     -0.500252
      34A     -0.479967    35A     -0.471043    36A     -0.468339
      37A     -0.468192    38A     -0.459262    39A     -0.458879
      40A     -0.396665

  @DF-RHF Final Energy:  -426.32162635673228

   => Energetics <=

    Nuclear Repulsion Energy =            538.7780207254505740
    One-Electron Energy =               -1646.2482056105063748
    Two-Electron Energy =                 681.1485585283240880
    DFT Exchange-Correlation Energy =       0.0000000000000000
    Empirical Dispersion Energy =           0.0000000000000000
    PCM Polarization Energy =               0.0000000000000000
    EFP Energy =                            0.0000000000000000
    Total Energy =                       -426.3216263567318265
    Molecular point group: c1
  Basis Set: CC-PVTZ
  Basis Set:

  -Total Gradient:
     Atom            X                  Y                   Z
    ------   -----------------  -----------------  -----------------
       1        0.000054215845    -0.000062399152     0.000029326471
       2        0.000004866385     0.000007776721    -0.000065005377
       3        0.000029857642    -0.000010629752     0.000070527216
       4       -0.000055024902    -0.000015218926    -0.000013230603
       5        0.000034706272     0.000082886648     0.000036226776
       6       -0.000022210879     0.000034528920    -0.000053140299
       7       -0.000032632750    -0.000076457363    -0.000037660737
       8        0.000058647222    -0.000000074395     0.000018611550
       9       -0.000017401466    -0.000015876210     0.000051807617
      10       -0.000058915559    -0.000000299876    -0.000014318403
      11        0.000030475740     0.000061286726     0.000025127314
      12       -0.000315092760     0.000670101215    -0.000176007905
      13       -0.000019583097     0.000062638725    -0.000026054538
      14        0.000055264618     0.000016513585     0.000005896600
      15        0.000462170982    -0.000672098842     0.000118060046
      16       -0.000147606262    -0.000142563720     0.000065070360
      17        0.000353826860    -0.000734748123     0.000363419563
      18        0.000021722711    -0.000011012814    -0.000015067232
      19        0.000002228227     0.000007060163    -0.000014735676
      20        0.000047198429    -0.000041169291     0.000038917782
      21       -0.000435986485     0.000829030769    -0.000357065306
      22       -0.000006118471    -0.000023353498     0.000010614572
      23       -0.000018791366     0.000015706289    -0.000054096169
      24       -0.000008743949     0.000037027965    -0.000028397963
      25        0.000007019173     0.000009932438     0.000028033131
      26       -0.000002503240    -0.000007894317    -0.000021954249
      27        0.000003224364    -0.000027953783     0.000029405507
      28       -0.000024813284     0.000007259894    -0.000014310051

  **** Optimization is complete! (in 25 steps) ****
    Final optimized geometry and variables:
    Molecular point group: c1

    Geometry (in Angstrom), charge = 0, multiplicity = 1:

    H            2.461401985306    -0.672731608827     4.549700755990
    C            1.807836564363     0.103240770103     4.167849267046
    C            1.819835618333     0.133095923687     2.643364470421
    H            0.809308122136    -0.090280236694     4.544484843370
    H            2.140385374884     1.049594997270     4.582432097667
    C            0.917849018866     1.223511987919     2.068733481529
    H            1.505672694520    -0.832532247989     2.263920049263
    H            2.838195983615     0.290922355134     2.295648035268
    C            0.912424423310     1.278138066422     0.545102459219
    H           -0.096393660125     1.077231058157     2.419993262604
    H            1.246002014803     2.188557970077     2.444048628792
    C            0.175332859611     0.140348037760    -0.136754830363
    H            0.425087917612     2.189133313341     0.203005165612
    H            1.924226233748     1.324908788671     0.152058667404
    C            0.460398715535    -0.037667217629    -1.616547434783
    O           -0.576169883989    -0.568285098963     0.450798526982
    C           -0.558201598593    -0.880161627389    -2.376611115883
    H            1.445218643529    -0.497187513870    -1.673196654337
    H            0.569670047369     0.942499066750    -2.072021612599
    C           -1.923433641263    -0.211864796523    -2.528804326077
    H           -0.158485027978    -1.082160001309    -3.366205825417
    H           -0.674308305193    -1.834864527405    -1.878144012831
    C           -2.911847917805    -1.069196031338    -3.312253547679
    H           -1.799210493468     0.743582850131    -3.033575225188
    H           -2.333639166534     0.002314215865    -1.549144334157
    H           -2.542882189878    -1.283068416298    -4.310224232120
    H           -3.084420472750    -2.016726354697    -2.813426931462
    H           -3.868686034173    -0.570133354039    -3.413657750555

  Mulliken Charges: (a.u.)
   Center  Symbol    Alpha    Beta     Spin     Total
       1     H     0.44867  0.44867  0.00000  0.10266
       2     C     3.15147  3.15147  0.00000 -0.30295
       3     C     3.08458  3.08458  0.00000 -0.16916
       4     H     0.45188  0.45188  0.00000  0.09624
       5     H     0.45681  0.45681  0.00000  0.08638
       6     C     3.08745  3.08745  0.00000 -0.17489
       7     H     0.44597  0.44597  0.00000  0.10805
       8     H     0.45841  0.45841  0.00000  0.08319
       9     C     3.11927  3.11927  0.00000 -0.23854
      10     H     0.44487  0.44487  0.00000  0.11025
      11     H     0.44745  0.44745  0.00000  0.10510
      12     C     2.86774  2.86774  0.00000  0.26452
      13     H     0.43669  0.43669  0.00000  0.12663
      14     H     0.44276  0.44276  0.00000  0.11448
      15     C     3.11965  3.11965  0.00000 -0.23929
      16     O     4.17983  4.17983  0.00000 -0.35967
      17     C     3.08612  3.08612  0.00000 -0.17225
      18     H     0.43649  0.43649  0.00000  0.12702
      19     H     0.44276  0.44276  0.00000  0.11448
      20     C     3.08589  3.08589  0.00000 -0.17178
      21     H     0.44775  0.44775  0.00000  0.10451
      22     H     0.44528  0.44528  0.00000  0.10945
      23     C     3.15148  3.15148  0.00000 -0.30297
      24     H     0.45847  0.45847  0.00000  0.08307
      25     H     0.44475  0.44475  0.00000  0.11049
      26     H     0.45685  0.45685  0.00000  0.08631
      27     H     0.45209  0.45209  0.00000  0.09583
      28     H     0.44858  0.44858  0.00000  0.10284

   Total alpha = 40.00000, Total beta = 40.00000, Total charge = -0.00000

*** Psi4 exiting successfully. Buy a developer a beer!
