                              Psi4 1.0.54 Driver

  ==> Input File <==

--------------------------------------------------------------------------
set {
	reference rhf
	basis cc-pvtz
}

set_num_threads( 4 )
memory 2 gb

molecule MOL {
0 1

H	 0.626684	 4.742065	 -0.318851
N	 -0.162902	 4.138051	 -0.404515
C	 0.211865	 2.750803	 -0.179677
H	 -0.530915	 4.263116	 -1.324446
C	 -1.008660	 1.843838	 -0.229283
H	 0.666275	 2.685500	 0.803254
H	 0.955218	 2.391295	 -0.892512
C	 -0.678115	 0.376691	 0.025731
H	 -1.730249	 2.195929	 0.500613
H	 -1.483815	 1.941645	 -1.203523
C	 -1.900706	 -0.535531	 -0.022488
H	 -0.199513	 0.279668	 0.997575
H	 0.050138	 0.035458	 -0.706443
C	 -3.220513	 0.226854	 0.028039
H	 -1.865036	 -1.134397	 -0.928236
H	 -1.857948	 -1.236381	 0.806820
H	 -3.309098	 0.911849	 -0.808725
H	 -4.066838	 -0.449485	 -0.008086
H	 -3.301685	 0.809374	 0.939860

	symmetry c1
}
set optking {
	frozen_dihedral = ("
		12 8 11 15
	")
}

ee,wfn = optimize('scf', return_wfn=True)
oeprop( wfn, 'DIPOLE', 'QUADRUPOLE', 'MULLIKEN_CHARGES')
f=open( 'psi4out.xyz', 'w' )
f.write( "19  " )
f.write( str(ee) + "\n" )
f.write( MOL.save_string_xyz() )
f.close()
--------------------------------------------------------------------------

    Molecular point group: c1
  Charge       = 0
  Multiplicity = 1
  Basis Set: CC-PVTZ
  Basis Set:
  @DF-RHF Final Energy:  -251.43549926647930
    Total Energy =                       -251.4354992664792690
    Molecular point group: c1
  Basis Set: CC-PVTZ
  Basis Set:
  Basis Set: CC-PVTZ
  Basis Set:
  @DF-RHF Final Energy:  -251.42320032272269
    Total Energy =                       -251.4232003227226642
  Basis Set: CC-PVTZ
  Basis Set:
  Basis Set: CC-PVTZ
  Basis Set:
  @DF-RHF Final Energy:  -251.43865410601646
    Total Energy =                       -251.4386541060162017
  Basis Set: CC-PVTZ
  Basis Set:
  Basis Set: CC-PVTZ
  Basis Set:
  @DF-RHF Final Energy:  -251.43948325827347
    Total Energy =                       -251.4394832582735262
  Basis Set: CC-PVTZ
  Basis Set:
  Basis Set: CC-PVTZ
  Basis Set:
  @DF-RHF Final Energy:  -251.43958503359212
    Total Energy =                       -251.4395850335922660
  Basis Set: CC-PVTZ
  Basis Set:
  Basis Set: CC-PVTZ
  Basis Set:
  @DF-RHF Final Energy:  -251.43959561064133
    Total Energy =                       -251.4395956106412768
  Basis Set: CC-PVTZ
  Basis Set:
  Charge       = 0
  Multiplicity = 1
  Basis Set: CC-PVTZ
  Basis Set:

    Orbital Energies (a.u.)
    -----------------------

    Doubly Occupied:

       1A    -15.526267     2A    -11.237683     3A    -11.212303
       4A    -11.210686     5A    -11.207376     6A    -11.204258
       7A     -1.178014     8A     -1.069910     9A     -0.995741
      10A     -0.905548    11A     -0.827117    12A     -0.771083
      13A     -0.664308    14A     -0.641474    15A     -0.609536
      16A     -0.597087    17A     -0.579182    18A     -0.535004
      19A     -0.528509    20A     -0.504517    21A     -0.490516
      22A     -0.459875    23A     -0.452295    24A     -0.444606
      25A     -0.383806

  @DF-RHF Final Energy:  -251.43959618824789

   => Energetics <=

    Nuclear Repulsion Energy =            249.5974073944321958
    One-Electron Energy =                -833.6006023402085248
    Two-Electron Energy =                 332.5635987575286663
    DFT Exchange-Correlation Energy =       0.0000000000000000
    Empirical Dispersion Energy =           0.0000000000000000
    PCM Polarization Energy =               0.0000000000000000
    EFP Energy =                            0.0000000000000000
    Total Energy =                       -251.4395961882477195
    Molecular point group: c1
  Basis Set: CC-PVTZ
  Basis Set:

  -Total Gradient:
     Atom            X                  Y                   Z
    ------   -----------------  -----------------  -----------------
       1        0.000000467910     0.000017487010    -0.000000229787
       2        0.000006940835     0.000010715007     0.000029019567
       3        0.000012432063    -0.000014351293    -0.000038880950
       4       -0.000000028885    -0.000008821762    -0.000000982523
       5       -0.000008502425    -0.000020983624     0.000012944070
       6       -0.000002040761     0.000013784191    -0.000006188164
       7        0.000018901869     0.000001472125     0.000006301113
       8       -0.004211718975     0.003766313528     0.001694637698
       9       -0.000015116390    -0.000012358559    -0.000000275044
      10        0.000000540670    -0.000005664949    -0.000001608971
      11       -0.002293248203     0.002848657817    -0.004621956876
      12        0.003903687876    -0.003601482223    -0.000676019648
      13       -0.000008442682     0.000007978560    -0.000005909945
      14        0.000014068973    -0.000004526424     0.000005825290
      15        0.002578255195    -0.003012622905     0.003608684473
      16       -0.000000720534     0.000007100434     0.000000560188
      17        0.000001617613     0.000010991477    -0.000008213286
      18        0.000004123671     0.000000426340    -0.000003858078
      19       -0.000001217817    -0.000004114744     0.000006150874

  **** Optimization is complete! (in 7 steps) ****
    Final optimized geometry and variables:
    Molecular point group: c1

    Geometry (in Angstrom), charge = 0, multiplicity = 1:

    H            1.581718284558     3.370335801971    -0.336897340161
    N            0.862188210243     2.698462044085    -0.499815179243
    C            1.234932465387     1.393951158362     0.024574299996
    H            0.716257174500     2.657286086187    -1.486924136313
    C            0.099102631581     0.395653655068    -0.147788220946
    H            1.450163456808     1.511000318068     1.081437666219
    H            2.139010070904     0.994048342435    -0.436368002666
    C            0.442167202468    -0.977503259962     0.422324178082
    H           -0.785721105322     0.803477422070     0.325278005404
    H           -0.130098555417     0.305245652702    -1.207437786631
    C           -0.620678584391    -2.090807633295     0.261634462427
    H            0.710366143326    -0.886553870167     1.470813388751
    H            1.354976610763    -1.321827759432    -0.056453168285
    C           -2.062087389771    -1.646761264561     0.030016679154
    H           -0.311408486238    -2.771555280565    -0.524771176252
    H           -0.600866718735    -2.698293105987     1.161392340912
    H           -2.175609944734    -1.088133525104    -0.890849699301
    H           -2.712406902886    -2.512058675375    -0.029772288462
    H           -2.421626652044    -1.023309743757     0.841064599203

  Mulliken Charges: (a.u.)
   Center  Symbol    Alpha    Beta     Spin     Total
       1     H     0.43035  0.43035  0.00000  0.13930
       2     N     3.68854  3.68854  0.00000 -0.37709
       3     C     3.02932  3.02932  0.00000 -0.05863
       4     H     0.43121  0.43121  0.00000  0.13758
       5     C     3.08349  3.08349  0.00000 -0.16698
       6     H     0.45710  0.45710  0.00000  0.08579
       7     H     0.46789  0.46789  0.00000  0.06422
       8     C     3.10256  3.10256  0.00000 -0.20513
       9     H     0.44578  0.44578  0.00000  0.10844
      10     H     0.45890  0.45890  0.00000  0.08220
      11     C     3.08695  3.08695  0.00000 -0.17389
      12     H     0.45192  0.45192  0.00000  0.09617
      13     H     0.45451  0.45451  0.00000  0.09098
      14     C     3.15634  3.15634  0.00000 -0.31267
      15     H     0.45251  0.45251  0.00000  0.09497
      16     H     0.45250  0.45250  0.00000  0.09500
      17     H     0.45229  0.45229  0.00000  0.09542
      18     H     0.44557  0.44557  0.00000  0.10887
      19     H     0.45227  0.45227  0.00000  0.09545

   Total alpha = 25.00000, Total beta = 25.00000, Total charge = -0.00000

*** Psi4 exiting successfully. Buy a developer a beer!
