                              Psi4 1.0.54 Driver

  ==> Input File <==

--------------------------------------------------------------------------
set {
	reference rhf
	basis cc-pvtz
}

set_num_threads( 4 )
memory 2 gb

molecule MOL {
0 1

H	 -1.088256	 -1.364742	 0.152233
O	 -1.432053	 -0.565244	 -0.200812
C	 -0.727158	 0.534527	 0.310686
C	 0.680222	 0.664433	 -0.252229
H	 -1.306802	 1.408001	 0.044211
H	 -0.690821	 0.490158	 1.397609
C	 1.518890	 1.745747	 0.422635
H	 1.178771	 -0.295118	 -0.163109
H	 0.597718	 0.881328	 -1.313737
H	 1.673841	 1.531174	 1.474335
H	 2.497697	 1.820219	 -0.035561
H	 1.043614	 2.718814	 0.343826

	symmetry c1
}
set optking {
	frozen_dihedral = ("
		8 4 3 2
	")
}

ee,wfn = optimize('scf', return_wfn=True)
oeprop( wfn, 'DIPOLE', 'QUADRUPOLE', 'MULLIKEN_CHARGES')
f=open( 'psi4out.xyz', 'w' )
f.write( "12  " )
f.write( str(ee) + "\n" )
f.write( MOL.save_string_xyz() )
f.close()
--------------------------------------------------------------------------

    Molecular point group: c1
  Charge       = 0
  Multiplicity = 1
  Basis Set: CC-PVTZ
  Basis Set:
  @DF-RHF Final Energy:  -193.19048314933775
    Total Energy =                       -193.1904831493378367
    Molecular point group: c1
  Basis Set: CC-PVTZ
  Basis Set:
  Basis Set: CC-PVTZ
  Basis Set:
  @DF-RHF Final Energy:  -193.19072180912411
    Total Energy =                       -193.1907218091240566
  Basis Set: CC-PVTZ
  Basis Set:
  Basis Set: CC-PVTZ
  Basis Set:
  @DF-RHF Final Energy:  -193.19076422635985
    Total Energy =                       -193.1907642263599314
  Basis Set: CC-PVTZ
  Basis Set:
  Basis Set: CC-PVTZ
  Basis Set:
  @DF-RHF Final Energy:  -193.19076947489461
    Total Energy =                       -193.1907694748947222
  Basis Set: CC-PVTZ
  Basis Set:
  Charge       = 0
  Multiplicity = 1
  Basis Set: CC-PVTZ
  Basis Set:

    Orbital Energies (a.u.)
    -----------------------

    Doubly Occupied:

       1A    -20.546004     2A    -11.265785     3A    -11.218051
       4A    -11.214577     5A     -1.364478     6A     -1.054533
       7A     -0.919722     8A     -0.820229     9A     -0.695839
      10A     -0.637281    11A     -0.599748    12A     -0.585606
      13A     -0.550294    14A     -0.504068    15A     -0.497787
      16A     -0.468903    17A     -0.432632

  @DF-RHF Final Energy:  -193.19076974709344

   => Energetics <=

    Nuclear Repulsion Energy =            131.1798668460386352
    One-Electron Energy =                -521.9901984438574800
    Two-Electron Energy =                 197.6195618507254324
    DFT Exchange-Correlation Energy =       0.0000000000000000
    Empirical Dispersion Energy =           0.0000000000000000
    PCM Polarization Energy =               0.0000000000000000
    EFP Energy =                            0.0000000000000000
    Total Energy =                       -193.1907697470934124
    Molecular point group: c1
  Basis Set: CC-PVTZ
  Basis Set:

  -Total Gradient:
     Atom            X                  Y                   Z
    ------   -----------------  -----------------  -----------------
       1        0.000001372414    -0.000001609814     0.000000535370
       2        0.000663912406    -0.001070017969     0.001374647945
       3       -0.001048560838     0.001335344734    -0.002336804928
       4        0.001249950242     0.000387432085     0.003107813707
       5        0.000003498519    -0.000014915538    -0.000020696404
       6       -0.000003893067     0.000004569500     0.000016332126
       7       -0.000012386095    -0.000043792644     0.000005461321
       8       -0.000825560819    -0.000614262756    -0.002125626172
       9       -0.000005617413     0.000003635962    -0.000024807934
      10        0.000003848748     0.000001994384     0.000000078569
      11       -0.000018787378    -0.000005186268     0.000014397891
      12       -0.000007776720     0.000016808324    -0.000011331490

  **** Optimization is complete! (in 5 steps) ****
    Final optimized geometry and variables:
    Molecular point group: c1

    Geometry (in Angstrom), charge = 0, multiplicity = 1:

    H           -0.972884497268    -1.916067837504    -0.034576044250
    O           -1.408147785147    -1.117037797498    -0.269737917854
    C           -0.700763081298    -0.021497659043     0.242679605239
    C            0.701718815556     0.100479776106    -0.333565307506
    H           -1.283867591996     0.856603228100    -0.002581927078
    H           -0.649907654835    -0.079902121584     1.328536118619
    C            1.528343537056     1.183685586878     0.348703570087
    H            1.201074418468    -0.862399601793    -0.253588245436
    H            0.623269886667     0.305751740940    -1.396382938926
    H            1.660895680655     0.973034362519     1.404524194641
    H            2.511613314547     1.263435935739    -0.098408330339
    H            1.049029232088     2.153376718959     0.263620489355

  Mulliken Charges: (a.u.)
   Center  Symbol    Alpha    Beta     Spin     Total
       1     H     0.39478  0.39478  0.00000  0.21043
       2     O     4.20178  4.20178  0.00000 -0.40356
       3     C     2.96641  2.96641  0.00000  0.06717
       4     C     3.08605  3.08605  0.00000 -0.17211
       5     H     0.45401  0.45401  0.00000  0.09198
       6     H     0.47429  0.47429  0.00000  0.05142
       7     C     3.15300  3.15300  0.00000 -0.30600
       8     H     0.46283  0.46283  0.00000  0.07434
       9     H     0.45063  0.45063  0.00000  0.09875
      10     H     0.45566  0.45566  0.00000  0.08867
      11     H     0.44684  0.44684  0.00000  0.10632
      12     H     0.45371  0.45371  0.00000  0.09258

   Total alpha = 17.00000, Total beta = 17.00000, Total charge = -0.00000

*** Psi4 exiting successfully. Buy a developer a beer!
