  ==> Input File <==

--------------------------------------------------------------------------
set {
	reference rhf
	basis 6-31G*
}

set_num_threads( 4 )
memory 2 gb

molecule MOL {
0 1

O	 0.074228	 1.262779	 -0.000085
C	 0.028650	 0.075053	 -0.000277
C	 -1.233602	 -0.752807	 0.000328
O	 1.109162	 -0.694619	 -0.000298
C	 -2.501530	 0.091881	 0.000126
H	 -1.193807	 -1.406641	 -0.865785
H	 -1.193516	 -1.405779	 0.867015
H	 -2.545121	 0.729328	 -0.874513
H	 -3.377167	 -0.548497	 0.000561
H	 -2.544818	 0.730135	 0.874258
C	 2.266812	 -0.177057	 0.630229
H	 2.584427	 0.737039	 0.149644
H	 3.024748	 -0.937605	 0.525526
H	 2.074698	 0.019075	 1.675263

	symmetry c1
}
set optking {
	frozen_dihedral = ("
		11 4 2 3
	")
}

ee = optimize('scf')
oeprop('DIPOLE', 'QUADRUPOLE', 'MULLIKEN_CHARGES')
f=open( 'psi4out.xyz', 'w' )
f.write( "14  " )
f.write( str(ee) + "\n" )
f.write( MOL.save_string_xyz() )
f.close()
--------------------------------------------------------------------------

    Molecular point group: c1
  Charge       = 0
  Multiplicity = 1
  Basis Set: 6-31G*
  Basis Set:
  @DF-RHF Final Energy:  -305.86694549582302
    Total Energy =                       -305.8669454958229039
    Molecular point group: c1
  Basis Set: 6-31G*
  Basis Set:
  Basis Set: 6-31G*
  Basis Set:
  @DF-RHF Final Energy:  -305.86414031322602
    Total Energy =                       -305.8641403132259597
  Basis Set: 6-31G*
  Basis Set:
  Basis Set: 6-31G*
  Basis Set:
  @DF-RHF Final Energy:  -305.86742761128062
    Total Energy =                       -305.8674276112807320
  Basis Set: 6-31G*
  Basis Set:
  Basis Set: 6-31G*
  Basis Set:
  @DF-RHF Final Energy:  -305.86756572155969
    Total Energy =                       -305.8675657215598562
  Basis Set: 6-31G*
  Basis Set:
  Basis Set: 6-31G*
  Basis Set:
  @DF-RHF Final Energy:  -305.86761103912511
    Total Energy =                       -305.8676110391249949
  Basis Set: 6-31G*
  Basis Set:
  Basis Set: 6-31G*
  Basis Set:
  @DF-RHF Final Energy:  -305.86761362682699
    Total Energy =                       -305.8676136268269374
  Basis Set: 6-31G*
  Basis Set:
  Charge       = 0
  Multiplicity = 1
  Basis Set: 6-31G*
  Basis Set:

    Orbital Energies (a.u.)
    -----------------------

    Doubly Occupied:

       1A    -20.600497     2A    -20.548210     3A    -11.373669
       4A    -11.283368     5A    -11.239627     6A    -11.217209
       7A     -1.467727     8A     -1.364218     9A     -1.064122
      10A     -0.979527    11A     -0.880967    12A     -0.768188
      13A     -0.700262    14A     -0.680528    15A     -0.672112
      16A     -0.621133    17A     -0.604246    18A     -0.550117
      19A     -0.538972    20A     -0.520690    21A     -0.511449
      22A     -0.496765    23A     -0.456621    24A     -0.438297

  @DF-RHF Final Energy:  -305.86761384021293

   => Energetics <=

    Nuclear Repulsion Energy =            246.9293169388681406
    One-Electron Energy =                -906.4368199685407035
    Two-Electron Energy =                 353.6398891894598364
    DFT Exchange-Correlation Energy =       0.0000000000000000
    Empirical Dispersion Energy =           0.0000000000000000
    PCM Polarization Energy =               0.0000000000000000
    EFP Energy =                            0.0000000000000000
    Total Energy =                       -305.8676138402126981
    Molecular point group: c1
  Basis Set: 6-31G*
  Basis Set:

  -Total Gradient:
     Atom            X                  Y                   Z
    ------   -----------------  -----------------  -----------------
       1        0.000066407978    -0.000038619686    -0.000043724146
       2       -0.001330023209    -0.000649455758    -0.005900639322
       3        0.000258361294    -0.000732182888     0.006146544716
       4        0.002705289607     0.004954883109    -0.005899063889
       5        0.000000764247    -0.000019429620    -0.000002773738
       6       -0.000004940236     0.000006418858    -0.000000737188
       7       -0.000008734367     0.000004738209     0.000004156345
       8       -0.000006669975     0.000002775462    -0.000006170196
       9        0.000000853824     0.000004646867    -0.000002196055
      10        0.000005510841    -0.000002121588     0.000006456511
      11       -0.001693522991    -0.003555139543     0.005701794874
      12        0.000008506578     0.000008846903    -0.000004615021
      13        0.000000799336     0.000012248463    -0.000004082494
      14       -0.000002602926     0.000002391212     0.000005049605

  **** Optimization is complete! (in 7 steps) ****
    Final optimized geometry and variables:
    Molecular point group: c1

    Geometry (in Angstrom), charge = 0, multiplicity = 1:

    O            0.072085434961     1.279503673931     0.139976194485
    C            0.038275510315     0.112486405625    -0.076701118713
    C           -1.214423357513    -0.727875285174    -0.116011916922
    O            1.132483803818    -0.633888194038    -0.213863856098
    C           -2.492122219817     0.097070073132    -0.205940207626
    H           -1.133080178190    -1.432266001890    -0.937168614769
    H           -1.197847888225    -1.325708436256     0.791865546679
    H           -2.515974668968     0.680527199947    -1.119198563932
    H           -3.359917154929    -0.553687213439    -0.196842658817
    H           -2.569671858510     0.784903049627     0.626460844803
    C            2.310264736258    -0.169892241904     0.421366660326
    H            2.661019072797     0.745064359306    -0.032832258770
    H            3.042454207600    -0.952296923660     0.296604817008
    H            2.125167339519     0.001488839435     1.473316930734

  Mulliken Charges: (a.u.)
   Center  Symbol    Alpha    Beta     Spin     Total
       1     O     4.27974  4.27974  0.00000 -0.55949
       2     C     2.60808  2.60808  0.00000  0.78384
       3     C     3.20547  3.20547  0.00000 -0.41094
       4     O     4.30861  4.30861  0.00000 -0.61721
       5     C     3.24050  3.24050  0.00000 -0.48101
       6     H     0.40030  0.40030  0.00000  0.19940
       7     H     0.40110  0.40110  0.00000  0.19779
       8     H     0.41215  0.41215  0.00000  0.17570
       9     H     0.41752  0.41752  0.00000  0.16495
      10     H     0.40690  0.40690  0.00000  0.18620
      11     C     3.09221  3.09221  0.00000 -0.18441
      12     H     0.40543  0.40543  0.00000  0.18914
      13     H     0.40778  0.40778  0.00000  0.18445
      14     H     0.41421  0.41421  0.00000  0.17158

   Total alpha = 24.00000, Total beta = 24.00000, Total charge =  0.00000
