                              Psi4 1.0.54 Driver

  ==> Input File <==

--------------------------------------------------------------------------
set {
	reference rhf
	basis cc-pvtz
}

set_num_threads( 4 )
memory 2 gb

molecule MOL {
0 1

H	 -2.816458	 -0.841657	 -0.064679
N	 -1.878861	 -0.711874	 0.250184
C	 -1.341419	 0.551458	 -0.220231
H	 -1.333674	 -1.468530	 -0.105118
C	 0.082190	 0.731516	 0.254705
H	 -1.357065	 0.652078	 -1.304747
H	 -1.939897	 1.357530	 0.189797
O	 0.881195	 -0.248324	 -0.336237
H	 0.440901	 1.722476	 -0.020063
H	 0.119896	 0.643586	 1.338114
C	 0.290507	 -1.502945	 -0.415193
H	 0.996422	 -2.173887	 -0.883069
H	 0.043311	 -1.888929	 0.571522
H	 -0.618091	 -1.478057	 -1.012178

	symmetry c1
}
set optking {
	frozen_dihedral = ("
		11 8 5 3
	")
}

ee,wfn = optimize('scf', return_wfn=True)
oeprop( wfn, 'DIPOLE', 'QUADRUPOLE', 'MULLIKEN_CHARGES')
f=open( 'psi4out.xyz', 'w' )
f.write( "14  " )
f.write( str(ee) + "\n" )
f.write( MOL.save_string_xyz() )
f.close()
--------------------------------------------------------------------------

    Molecular point group: c1
  Charge       = 0
  Multiplicity = 1
  Basis Set: CC-PVTZ
  Basis Set:
  @DF-RHF Final Energy:  -248.14710931200676
    Total Energy =                       -248.1471093120068190
    Molecular point group: c1
  Basis Set: CC-PVTZ
  Basis Set:
  Basis Set: CC-PVTZ
  Basis Set:
  @DF-RHF Final Energy:  -248.14182103690356
    Total Energy =                       -248.1418210369036501
  Basis Set: CC-PVTZ
  Basis Set:
  Basis Set: CC-PVTZ
  Basis Set:
  @DF-RHF Final Energy:  -248.11806366761894
    Total Energy =                       -248.1180636676187987
  Basis Set: CC-PVTZ
  Basis Set:
  Basis Set: CC-PVTZ
  Basis Set:
  @DF-RHF Final Energy:  -248.17861570581817
    Total Energy =                       -248.1786157058180606
  Basis Set: CC-PVTZ
  Basis Set:
  @DF-RHF Final Energy:  -248.21239873861066
    Total Energy =                       -248.2123987386106592
  @DF-RHF Final Energy:  -248.21473506434884
    Total Energy =                       -248.2147350643485879
  @DF-RHF Final Energy:  -248.21508160616008
    Total Energy =                       -248.2150816061600835
  @DF-RHF Final Energy:  -248.21521371106385
    Total Energy =                       -248.2152137110639387
  @DF-RHF Final Energy:  -248.21523284723565
    Total Energy =                       -248.2152328472355975
  @DF-RHF Final Energy:  -248.21523601270815
    Total Energy =                       -248.2152360127081465
  Basis Set: CC-PVTZ
  Basis Set:
  @DF-RHF Final Energy:  -248.21523035849165
    Total Energy =                       -248.2152303584917945
  Basis Set: CC-PVTZ
  Basis Set:
  Basis Set: CC-PVTZ
  Basis Set:
  @DF-RHF Final Energy:  -248.21523150194167
    Total Energy =                       -248.2152315019416733
  Basis Set: CC-PVTZ
  Basis Set:
  Basis Set: CC-PVTZ
  Basis Set:
  @DF-RHF Final Energy:  -248.21523606494370
    Total Energy =                       -248.2152360649434968
  Basis Set: CC-PVTZ
  Basis Set:
  Charge       = 0
  Multiplicity = 1
  Basis Set: CC-PVTZ
  Basis Set:

    Orbital Energies (a.u.)
    -----------------------

    Doubly Occupied:

       1A    -20.543877     2A    -15.534949     3A    -11.262941
       4A    -11.262098     5A    -11.247601     6A     -1.374939
       7A     -1.184293     8A     -1.002430     9A     -0.919361
      10A     -0.808781    11A     -0.691158    12A     -0.674139
      13A     -0.641525    14A     -0.621027    15A     -0.603783
      16A     -0.549921    17A     -0.536660    18A     -0.514469
      19A     -0.458098    20A     -0.412287    21A     -0.391492

  @DF-RHF Final Energy:  -248.21523635988129

   => Energetics <=

    Nuclear Repulsion Energy =            197.1013599922636956
    One-Electron Energy =                -728.1615334534285466
    Two-Electron Energy =                 282.8449371012835627
    DFT Exchange-Correlation Energy =       0.0000000000000000
    Empirical Dispersion Energy =           0.0000000000000000
    PCM Polarization Energy =               0.0000000000000000
    EFP Energy =                            0.0000000000000000
    Total Energy =                       -248.2152363598812599
    Molecular point group: c1
  Basis Set: CC-PVTZ
  Basis Set:

  -Total Gradient:
     Atom            X                  Y                   Z
    ------   -----------------  -----------------  -----------------
       1       -0.000021819154     0.000007077079     0.000009575967
       2        0.000028675235    -0.000004895466    -0.000007502805
       3       -0.001134349415    -0.003366756179     0.000241606472
       4       -0.000005825599    -0.000009615236    -0.000015458153
       5        0.001050590753     0.006792326765    -0.000839759064
       6        0.000001213021     0.000004378124    -0.000008700682
       7        0.000014552487     0.000000991009    -0.000008059879
       8        0.001416344915    -0.007009564194     0.001627120177
       9        0.000001843811    -0.000003338284     0.000001553797
      10       -0.000006243032    -0.000001718496     0.000004084811
      11       -0.001370007940     0.003588796747    -0.001018162390
      12       -0.000001571134     0.000000058681     0.000009811370
      13        0.000008845122     0.000011695689    -0.000005447451
      14        0.000017750933    -0.000009436239     0.000009337829

  **** Optimization is complete! (in 14 steps) ****
    Final optimized geometry and variables:
    Molecular point group: c1

    Geometry (in Angstrom), charge = 0, multiplicity = 1:

    H           -2.449949287802    -0.023956011007     1.314787351267
    N           -1.611776636652    -0.337820405237     0.874949596019
    C           -0.615510916044     0.723105478563     0.858783189835
    H           -1.857509011040    -0.641281473786    -0.041295548671
    C            0.809755272557     0.231538353501     0.630307166577
    H           -0.840650837088     1.522640960804     0.153661674789
    H           -0.618706556402     1.172957747029     1.844855644880
    O            1.213203039971     0.006790884679    -0.693011068399
    H            1.496930341336     0.976866718983     1.007982041868
    H            0.943342423926    -0.677571006709     1.211584787512
    C            0.324080838393    -0.578948010869    -1.583125969298
    H            0.855870347863    -0.725478252842    -2.512313544024
    H           -0.026486681536    -1.546833778739    -1.232438053593
    H           -0.534273537580     0.055328086395    -1.785426014221

  Mulliken Charges: (a.u.)
   Center  Symbol    Alpha    Beta     Spin     Total
       1     H     0.42710  0.42710  0.00000  0.14581
       2     N     3.68866  3.68866  0.00000 -0.37731
       3     C     3.05905  3.05905  0.00000 -0.11811
       4     H     0.42819  0.42819  0.00000  0.14362
       5     C     2.96876  2.96876  0.00000  0.06248
       6     H     0.45554  0.45554  0.00000  0.08892
       7     H     0.44945  0.44945  0.00000  0.10109
       8     O     4.17824  4.17824  0.00000 -0.35649
       9     H     0.45547  0.45547  0.00000  0.08905
      10     H     0.46666  0.46666  0.00000  0.06667
      11     C     3.03569  3.03569  0.00000 -0.07138
      12     H     0.44274  0.44274  0.00000  0.11452
      13     H     0.46869  0.46869  0.00000  0.06262
      14     H     0.47575  0.47575  0.00000  0.04851

   Total alpha = 21.00000, Total beta = 21.00000, Total charge = -0.00000

*** Psi4 exiting successfully. Buy a developer a beer!
