                              Psi4 1.0.54 Driver

  ==> Input File <==

--------------------------------------------------------------------------
set {
	reference rhf
	basis cc-pvtz
}

set_num_threads( 4 )
memory 2 gb

molecule MOL {
0 1

H	 -3.162190	 0.493205	 -0.000107
C	 -2.363908	 -0.234727	 0.000005
O	 -1.158738	 0.454634	 -0.000087
H	 -2.464314	 -0.863616	 -0.882153
H	 -2.464327	 -0.863359	 0.882345
C	 -0.028611	 -0.359694	 0.000037
C	 1.212847	 0.509314	 -0.000053
H	 -0.034155	 -1.007047	 -0.877198
H	 -0.034195	 -1.006836	 0.877430
C	 0.946930	 1.904576	 -0.554022
H	 1.588066	 0.575729	 1.015193
H	 1.980366	 0.015079	 -0.585372
H	 0.198290	 2.426769	 0.032442
H	 1.849403	 2.503265	 -0.542373
H	 0.593503	 1.862392	 -1.578901

	symmetry c1
}
set optking {
	frozen_dihedral = ("
		11 7 6 8
	")
}

ee,wfn = optimize('scf', return_wfn=True)
oeprop( wfn, 'DIPOLE', 'QUADRUPOLE', 'MULLIKEN_CHARGES')
f=open( 'psi4out.xyz', 'w' )
f.write( "15  " )
f.write( str(ee) + "\n" )
f.write( MOL.save_string_xyz() )
f.close()
--------------------------------------------------------------------------

    Molecular point group: c1
  Charge       = 0
  Multiplicity = 1
  Basis Set: CC-PVTZ
  Basis Set:
  @DF-RHF Final Energy:  -232.22102291557215
    Total Energy =                       -232.2210229155720640
    Molecular point group: c1
  Basis Set: CC-PVTZ
  Basis Set:
  Basis Set: CC-PVTZ
  Basis Set:
  @DF-RHF Final Energy:  -232.22180077916994
    Total Energy =                       -232.2218007791699961
  Basis Set: CC-PVTZ
  Basis Set:
  Basis Set: CC-PVTZ
  Basis Set:
  @DF-RHF Final Energy:  -232.22277623302276
    Total Energy =                       -232.2227762330227279
  Basis Set: CC-PVTZ
  Basis Set:
  Basis Set: CC-PVTZ
  Basis Set:
  @DF-RHF Final Energy:  -232.22282026488486
    Total Energy =                       -232.2228202648847741
  Basis Set: CC-PVTZ
  Basis Set:
  Basis Set: CC-PVTZ
  Basis Set:
  @DF-RHF Final Energy:  -232.22282314746238
    Total Energy =                       -232.2228231474623499
  Basis Set: CC-PVTZ
  Basis Set:
  Charge       = 0
  Multiplicity = 1
  Basis Set: CC-PVTZ
  Basis Set:

    Orbital Energies (a.u.)
    -----------------------

    Doubly Occupied:

       1A    -20.548904     2A    -11.265206     3A    -11.262718
       4A    -11.214031     5A    -11.200338     6A     -1.383622
       7A     -1.051419     8A     -0.950641     9A     -0.890971
      10A     -0.795033    11A     -0.673624    12A     -0.660293
      13A     -0.636588    14A     -0.600410    15A     -0.556238
      16A     -0.542289    17A     -0.506957    18A     -0.484641
      19A     -0.473182    20A     -0.461268    21A     -0.412647

  @DF-RHF Final Energy:  -232.22282336109177

   => Energetics <=

    Nuclear Repulsion Energy =            193.3474963930657111
    One-Electron Energy =                -697.9985999060213544
    Two-Electron Energy =                 272.4282801518637029
    DFT Exchange-Correlation Energy =       0.0000000000000000
    Empirical Dispersion Energy =           0.0000000000000000
    PCM Polarization Energy =               0.0000000000000000
    EFP Energy =                            0.0000000000000000
    Total Energy =                       -232.2228233610919119
    Molecular point group: c1
  Basis Set: CC-PVTZ
  Basis Set:

  -Total Gradient:
     Atom            X                  Y                   Z
    ------   -----------------  -----------------  -----------------
       1        0.000001032590     0.000004193893     0.000000295171
       2        0.000015511815     0.000005178569    -0.000001306487
       3       -0.000054852442     0.000030858288     0.000009468710
       4        0.000003738073    -0.000000657928    -0.000001790145
       5        0.000005974326     0.000001692697     0.000000931625
       6       -0.002775356767     0.004312420885    -0.004203076613
       7       -0.003591085932     0.005132710776     0.002010387374
       8        0.002918043594    -0.004455317441     0.003170506387
       9        0.000007572536     0.000008319427    -0.000001982016
      10       -0.000001688071    -0.000002688514    -0.000004224941
      11        0.003473445291    -0.005034613994    -0.000980769394
      12        0.000001358657     0.000001431590    -0.000000675195
      13        0.000003200711    -0.000002817360    -0.000003847339
      14       -0.000004490022    -0.000006435411     0.000000894645
      15       -0.000002404365     0.000005724522     0.000005188218

  **** Optimization is complete! (in 6 steps) ****
    Final optimized geometry and variables:
    Molecular point group: c1

    Geometry (in Angstrom), charge = 0, multiplicity = 1:

    H           -2.898693829217    -0.019577733039     0.162971417179
    C           -2.079813304087    -0.723429623469     0.126304533121
    O           -0.895160145049    -0.000179539486     0.134914551487
    H           -2.173884368030    -1.323077350915    -0.776670285789
    H           -2.148964117244    -1.386153307268     0.986409542421
    C            0.253426894488    -0.783290549789     0.083828860671
    C            1.517869292305     0.077961375751     0.133866899310
    H            0.259235229765    -1.412870357658    -0.805609871671
    H            0.260967483966    -1.474336633986     0.926706157703
    C            1.375401669252     1.469594127781    -0.470303633926
    H            1.884298622631     0.130532833902     1.153294879956
    H            2.290676727521    -0.462596496448    -0.405832482713
    H            0.657223778208     2.064882862861     0.075243549605
    H            2.329799492328     1.983343744216    -0.452933137709
    H            1.042970498270     1.416482578459    -1.500899364784

  Mulliken Charges: (a.u.)
   Center  Symbol    Alpha    Beta     Spin     Total
       1     H     0.44748  0.44748  0.00000  0.10503
       2     C     3.03115  3.03115  0.00000 -0.06231
       3     O     4.17062  4.17062  0.00000 -0.34124
       4     H     0.47165  0.47165  0.00000  0.05670
       5     H     0.47163  0.47163  0.00000  0.05674
       6     C     2.96791  2.96791  0.00000  0.06418
       7     C     3.08976  3.08976  0.00000 -0.17952
       8     H     0.47356  0.47356  0.00000  0.05288
       9     H     0.47033  0.47033  0.00000  0.05934
      10     C     3.14098  3.14098  0.00000 -0.28196
      11     H     0.45269  0.45269  0.00000  0.09462
      12     H     0.45683  0.45683  0.00000  0.08633
      13     H     0.44663  0.44663  0.00000  0.10673
      14     H     0.45282  0.45282  0.00000  0.09435
      15     H     0.45594  0.45594  0.00000  0.08812

   Total alpha = 21.00000, Total beta = 21.00000, Total charge = -0.00000

*** Psi4 exiting successfully. Buy a developer a beer!
