                              Psi4 1.0.54 Driver

  ==> Input File <==

--------------------------------------------------------------------------
set {
	reference rhf
	basis cc-pvtz
}

set_num_threads( 4 )
memory 2 gb

molecule MOL {
0 1

H	 0.941048	 1.621430	 -0.138029
O	 0.057669	 1.301365	 -0.158528
C	 0.004145	 -0.005141	 0.363049
C	 1.199168	 -0.827145	 -0.096690
C	 -1.316386	 -0.602081	 -0.083515
H	 0.012026	 0.043363	 1.450619
H	 1.216685	 -0.896776	 -1.178167
H	 2.129940	 -0.372354	 0.228035
H	 1.160783	 -1.829622	 0.314294
H	 -1.357882	 -0.655920	 -1.165207
H	 -2.140147	 0.011735	 0.257253
H	 -1.440790	 -1.601175	 0.317669

	symmetry c1
}
set optking {
	frozen_dihedral = ("
		1 2 3 4
	")
}

ee,wfn = optimize('scf', return_wfn=True)
oeprop( wfn, 'DIPOLE', 'QUADRUPOLE', 'MULLIKEN_CHARGES')
f=open( 'psi4out.xyz', 'w' )
f.write( "12  " )
f.write( str(ee) + "\n" )
f.write( MOL.save_string_xyz() )
f.close()
--------------------------------------------------------------------------

    Molecular point group: c1
  Charge       = 0
  Multiplicity = 1
  Basis Set: CC-PVTZ
  Basis Set:
  @DF-RHF Final Energy:  -193.19559643994347
    Total Energy =                       -193.1955964399435857
    Molecular point group: c1
  Basis Set: CC-PVTZ
  Basis Set:
  Basis Set: CC-PVTZ
  Basis Set:
  @DF-RHF Final Energy:  -193.19562084287588
    Total Energy =                       -193.1956208428758828
  Basis Set: CC-PVTZ
  Basis Set:
  Basis Set: CC-PVTZ
  Basis Set:
  @DF-RHF Final Energy:  -193.19562864225261
    Total Energy =                       -193.1956286422525579
  Basis Set: CC-PVTZ
  Basis Set:
  Charge       = 0
  Multiplicity = 1
  Basis Set: CC-PVTZ
  Basis Set:

    Orbital Energies (a.u.)
    -----------------------

    Doubly Occupied:

       1A    -20.543711     2A    -11.273949     3A    -11.214322
       4A    -11.205177     5A     -1.364389     6A     -1.043723
       7A     -0.942592     8A     -0.806299     9A     -0.693823
      10A     -0.636070    11A     -0.607637    12A     -0.547298
      13A     -0.535357    14A     -0.529400    15A     -0.513702
      16A     -0.470362    17A     -0.431931

  @DF-RHF Final Energy:  -193.19562875843411

   => Energetics <=

    Nuclear Repulsion Energy =            135.7643371541716419
    One-Electron Energy =                -531.2004450075520481
    Two-Electron Energy =                 202.2404790949463518
    DFT Exchange-Correlation Energy =       0.0000000000000000
    Empirical Dispersion Energy =           0.0000000000000000
    PCM Polarization Energy =               0.0000000000000000
    EFP Energy =                            0.0000000000000000
    Total Energy =                       -193.1956287584340544
    Molecular point group: c1
  Basis Set: CC-PVTZ
  Basis Set:

  -Total Gradient:
     Atom            X                  Y                   Z
    ------   -----------------  -----------------  -----------------
       1        0.000241693091    -0.000535544998    -0.001371987130
       2       -0.000092648284     0.000792777125     0.001969374229
       3       -0.000627854279    -0.000520724795    -0.001349527623
       4        0.000480447429     0.000278751941     0.000757722228
       5       -0.000005294099    -0.000010463973    -0.000003513436
       6        0.000006218827    -0.000013188746    -0.000003736735
       7       -0.000009767261     0.000000492778     0.000003813172
       8        0.000006834903     0.000000513150    -0.000003307892
       9       -0.000001838748     0.000005665992     0.000000516371
      10       -0.000000238223     0.000000974718     0.000003979713
      11        0.000004358980    -0.000003492382    -0.000002902660
      12       -0.000001912337     0.000004239194    -0.000000430236

  **** Optimization is complete! (in 4 steps) ****
    Final optimized geometry and variables:
    Molecular point group: c1

    Geometry (in Angstrom), charge = 0, multiplicity = 1:

    H            0.936775045884     1.630400224612    -0.120768172603
    O            0.055428790855     1.306118984242    -0.146568921858
    C            0.003078977479    -0.005792322920     0.362168083844
    C            1.199325583568    -0.824722069348    -0.097953532916
    C           -1.319278685590    -0.602303969293    -0.079206073420
    H            0.016301246539     0.038190560756     1.449928139836
    H            1.222065007275    -0.892914140164    -1.179916205803
    H            2.128873226099    -0.372281501106     0.234564793186
    H            1.159154466531    -1.828216860941     0.309240915750
    H           -1.358890388523    -0.676161756881    -1.159785386277
    H           -2.139158778500     0.024221002907     0.247857963164
    H           -1.453214781376    -1.591970870347     0.342168858377

  Mulliken Charges: (a.u.)
   Center  Symbol    Alpha    Beta     Spin     Total
       1     H     0.39458  0.39458  0.00000  0.21084
       2     O     4.20597  4.20597  0.00000 -0.41194
       3     C     2.91996  2.91996  0.00000  0.16009
       4     C     3.14977  3.14977  0.00000 -0.29954
       5     C     3.14098  3.14098  0.00000 -0.28196
       6     H     0.46675  0.46675  0.00000  0.06650
       7     H     0.45053  0.45053  0.00000  0.09894
       8     H     0.45762  0.45762  0.00000  0.08477
       9     H     0.45432  0.45432  0.00000  0.09136
      10     H     0.45442  0.45442  0.00000  0.09115
      11     H     0.44594  0.44594  0.00000  0.10811
      12     H     0.45916  0.45916  0.00000  0.08168

   Total alpha = 17.00000, Total beta = 17.00000, Total charge =  0.00000

*** Psi4 exiting successfully. Buy a developer a beer!
