  ==> Input File <==

--------------------------------------------------------------------------
set {
	reference rhf
	basis 6-31G*
}

set_num_threads( 4 )
memory 2 gb

molecule MOL {
0 1

H	 3.120532	 -1.441901	 -0.738033
O	 2.826016	 -1.159218	 0.122261
C	 2.077727	 -0.067559	 -0.035091
C	 0.624473	 -0.343591	 0.253101
O	 2.542965	 0.974826	 -0.363729
C	 -0.265902	 0.883932	 0.072916
H	 0.324016	 -1.163849	 -0.390541
H	 0.565024	 -0.726111	 1.268924
C	 -1.728698	 0.646073	 0.462102
H	 -0.209144	 1.219470	 -0.958188
H	 0.135059	 1.692851	 0.673903
C	 -2.482460	 -0.343073	 -0.431425
H	 -2.245265	 1.602650	 0.432430
H	 -1.779332	 0.308348	 1.496285
C	 -3.960546	 -0.461025	 -0.060175
H	 -2.395034	 -0.026811	 -1.468912
H	 -2.024850	 -1.327147	 -0.371646
H	 -4.472726	 -1.168004	 -0.705284
H	 -4.465146	 0.496508	 -0.151489
H	 -4.081218	 -0.800940	 0.964585

	symmetry c1
}
set optking {
	frozen_dihedral = ("
		1 2 3 5
	")
}

ee = optimize('scf')
oeprop('DIPOLE', 'QUADRUPOLE', 'MULLIKEN_CHARGES')
f=open( 'psi4out.xyz', 'w' )
f.write( "20  " )
f.write( str(ee) + "\n" )
f.write( MOL.save_string_xyz() )
f.close()
--------------------------------------------------------------------------

    Molecular point group: c1
  Charge       = 0
  Multiplicity = 1
  Basis Set: 6-31G*
  Basis Set:
  @DF-RHF Final Energy:  -383.92913905614239
    Total Energy =                       -383.9291390561421622
    Molecular point group: c1
  Basis Set: 6-31G*
  Basis Set:
  Basis Set: 6-31G*
  Basis Set:
  @DF-RHF Final Energy:  -383.92778823608057
    Total Energy =                       -383.9277882360805734
  Basis Set: 6-31G*
  Basis Set:
  Basis Set: 6-31G*
  Basis Set:
  @DF-RHF Final Energy:  -383.93034642064782
    Total Energy =                       -383.9303464206478793
  Basis Set: 6-31G*
  Basis Set:
  Basis Set: 6-31G*
  Basis Set:
  @DF-RHF Final Energy:  -383.93075623261990
    Total Energy =                       -383.9307562326200696
  Basis Set: 6-31G*
  Basis Set:
  Basis Set: 6-31G*
  Basis Set:
  @DF-RHF Final Energy:  -383.93076150578759
    Total Energy =                       -383.9307615057877570
  Basis Set: 6-31G*
  Basis Set:
  Charge       = 0
  Multiplicity = 1
  Basis Set: 6-31G*
  Basis Set:

    Orbital Energies (a.u.)
    -----------------------

    Doubly Occupied:

       1A    -20.596133     2A    -20.560703     3A    -11.381278
       4A    -11.240480     5A    -11.223259     6A    -11.221760
       7A    -11.220911     8A    -11.213370     9A     -1.461227
      10A     -1.366596    11A     -1.096266    12A     -1.040300
      13A     -0.959282    14A     -0.866177    15A     -0.816201
      16A     -0.779375    17A     -0.707474    18A     -0.678958
      19A     -0.663093    20A     -0.631529    21A     -0.616313
      22A     -0.587304    23A     -0.560409    24A     -0.551066
      25A     -0.536629    26A     -0.508300    27A     -0.502644
      28A     -0.487421    29A     -0.470272    30A     -0.465952
      31A     -0.458180    32A     -0.443121

  @DF-RHF Final Energy:  -383.93076176939218

   => Energetics <=

    Nuclear Repulsion Energy =            375.1801817893459088
    One-Electron Energy =               -1266.3979167906318253
    Two-Electron Energy =                 507.2869732318937963
    DFT Exchange-Correlation Energy =       0.0000000000000000
    Empirical Dispersion Energy =           0.0000000000000000
    PCM Polarization Energy =               0.0000000000000000
    EFP Energy =                            0.0000000000000000
    Total Energy =                       -383.9307617693921770
    Molecular point group: c1
  Basis Set: 6-31G*
  Basis Set:

  -Total Gradient:
     Atom            X                  Y                   Z
    ------   -----------------  -----------------  -----------------
       1       -0.006964655680    -0.005323772920    -0.001223047609
       2        0.008908214697     0.007675469785     0.004981881266
       3       -0.002429411655    -0.004386735013    -0.011286719809
       4       -0.000007078360    -0.000001181947    -0.000083273653
       5        0.000463150201     0.002017661798     0.007547085420
       6       -0.000008958612     0.000004954953     0.000043239371
       7       -0.000013130811    -0.000009497883     0.000013378787
       8        0.000015532023     0.000016741941     0.000012410250
       9       -0.000011279802     0.000021974771    -0.000005071728
      10        0.000001040932     0.000010572766    -0.000001562272
      11        0.000010111206    -0.000018552467     0.000008657364
      12        0.000020929255    -0.000002965172    -0.000007162126
      13       -0.000000889285    -0.000002660765    -0.000018548364
      14       -0.000011282544     0.000019830947     0.000011660653
      15        0.000000863740    -0.000005652377     0.000008083422
      16       -0.000009370080    -0.000000295036     0.000006324745
      17        0.000036593660    -0.000014167579    -0.000009846204
      18        0.000000991919    -0.000000328456     0.000000453612
      19        0.000001210428     0.000000317402     0.000000852214
      20       -0.000002581248    -0.000001714749     0.000001204664

  **** Optimization is complete! (in 6 steps) ****
    Final optimized geometry and variables:
    Molecular point group: c1

    Geometry (in Angstrom), charge = 0, multiplicity = 1:

    H            3.255818588027    -1.482123767354    -0.620074542811
    O            2.864058571403    -1.150988344093     0.179263613479
    C            2.080046270939    -0.068195165997    -0.066882448602
    C            0.626636201033    -0.337636396749     0.228864590252
    O            2.534037554769     0.974723433341    -0.385114824444
    C           -0.266617586386     0.890874441479     0.075904270339
    H            0.316336335325    -1.151916970393    -0.419731624746
    H            0.579986698851    -0.737349398258     1.238998855443
    C           -1.725783980617     0.647817860826     0.475679836643
    H           -0.220400037823     1.243338404885    -0.950340060157
    H            0.140594985088     1.690172869967     0.685680495639
    C           -2.487366341546    -0.330802939699    -0.422789266538
    H           -2.243197132489     1.604283053656     0.462433228731
    H           -1.766547569440     0.297446787257     1.506005455640
    C           -3.961225737683    -0.456545858609    -0.037549804807
    H           -2.411660650046    -0.000694482529    -1.456971708021
    H           -2.027400683594    -1.314804335268    -0.380710352318
    H           -4.479176944433    -1.155678763632    -0.686621234154
    H           -4.468300423190     0.501224380713    -0.110541289306
    H           -4.070295219546    -0.810397225767     0.983748258611

  Mulliken Charges: (a.u.)
   Center  Symbol    Alpha    Beta     Spin     Total
       1     H     0.26587  0.26587  0.00000  0.46827
       2     O     4.36809  4.36809  0.00000 -0.73619
       3     C     2.62983  2.62983  0.00000  0.74034
       4     C     3.21130  3.21130  0.00000 -0.42259
       5     O     4.25094  4.25094  0.00000 -0.50188
       6     C     3.15474  3.15474  0.00000 -0.30948
       7     H     0.40492  0.40492  0.00000  0.19016
       8     H     0.39749  0.39749  0.00000  0.20502
       9     C     3.15537  3.15537  0.00000 -0.31074
      10     H     0.41374  0.41374  0.00000  0.17252
      11     H     0.40744  0.40744  0.00000  0.18512
      12     C     3.15473  3.15473  0.00000 -0.30945
      13     H     0.41777  0.41777  0.00000  0.16447
      14     H     0.42316  0.42316  0.00000  0.15368
      15     C     3.23919  3.23919  0.00000 -0.47837
      16     H     0.42202  0.42202  0.00000  0.15596
      17     H     0.42343  0.42343  0.00000  0.15315
      18     H     0.41854  0.41854  0.00000  0.16292
      19     H     0.42042  0.42042  0.00000  0.15915
      20     H     0.42103  0.42103  0.00000  0.15795

   Total alpha = 32.00000, Total beta = 32.00000, Total charge = -0.00000
