  ==> Input File <==

--------------------------------------------------------------------------
set {
	reference rhf
	basis 6-31G*
}

set_num_threads( 4 )
memory 2 gb

molecule MOL {
0 1

H	 -2.698709	 -0.000305	 0.034435
C	 -1.693833	 0.000034	 0.434417
O	 -0.828952	 -0.000968	 -0.659236
H	 -1.574200	 0.882896	 1.055746
H	 -1.574147	 -0.881698	 1.057355
C	 0.429455	 -0.619328	 -0.523049
C	 1.313869	 0.074934	 0.510745
C	 0.319464	 -2.122765	 -0.277006
H	 0.881589	 -0.474779	 -1.497067
H	 1.328167	 1.145275	 0.335489
H	 2.331430	 -0.295776	 0.437398
H	 0.974952	 -0.101842	 1.526643
H	 -0.355049	 -2.573432	 -0.996999
H	 1.293924	 -2.588770	 -0.385321
H	 -0.041682	 -2.350616	 0.720740

	symmetry c1
}
set optking {
	frozen_dihedral = ("
		6 3 2 1
	")
}

ee = optimize('scf')
oeprop('DIPOLE', 'QUADRUPOLE', 'MULLIKEN_CHARGES')
f=open( 'psi4out.xyz', 'w' )
f.write( "15  " )
f.write( str(ee) + "\n" )
f.write( MOL.save_string_xyz() )
f.close()
--------------------------------------------------------------------------

    Molecular point group: c1
  Charge       = 0
  Multiplicity = 1
  Basis Set: 6-31G*
  Basis Set:
  @DF-RHF Final Energy:  -232.13632892893216
    Total Energy =                       -232.1363289289319596
    Molecular point group: c1
  Basis Set: 6-31G*
  Basis Set:
  Basis Set: 6-31G*
  Basis Set:
  @DF-RHF Final Energy:  -232.13596313640164
    Total Energy =                       -232.1359631364014149
  Basis Set: 6-31G*
  Basis Set:
  Basis Set: 6-31G*
  Basis Set:
  @DF-RHF Final Energy:  -232.13670413145996
    Total Energy =                       -232.1367041314600783
  Basis Set: 6-31G*
  Basis Set:
  Basis Set: 6-31G*
  Basis Set:
  @DF-RHF Final Energy:  -232.13673135967835
    Total Energy =                       -232.1367313596783788
  Basis Set: 6-31G*
  Basis Set:
  Basis Set: 6-31G*
  Basis Set:
  @DF-RHF Final Energy:  -232.13673395015434
    Total Energy =                       -232.1367339501545644
  Basis Set: 6-31G*
  Basis Set:
  Charge       = 0
  Multiplicity = 1
  Basis Set: 6-31G*
  Basis Set:

    Orbital Energies (a.u.)
    -----------------------

    Doubly Occupied:

       1A    -20.547103     2A    -11.274621     3A    -11.261430
       4A    -11.211300     5A    -11.209755     6A     -1.369344
       7A     -1.050084     8A     -0.940140     9A     -0.930988
      10A     -0.781450    11A     -0.675196    12A     -0.639971
      13A     -0.632385    14A     -0.570279    15A     -0.564092
      16A     -0.552546    17A     -0.536599    18A     -0.499818
      19A     -0.497429    20A     -0.442471    21A     -0.404697

  @DF-RHF Final Energy:  -232.13673449450474

   => Energetics <=

    Nuclear Repulsion Energy =            198.7876234391419246
    One-Electron Energy =                -708.6653179661589093
    Two-Electron Energy =                 277.7409600325122483
    DFT Exchange-Correlation Energy =       0.0000000000000000
    Empirical Dispersion Energy =           0.0000000000000000
    PCM Polarization Energy =               0.0000000000000000
    EFP Energy =                            0.0000000000000000
    Total Energy =                       -232.1367344945047080
    Molecular point group: c1
  Basis Set: 6-31G*
  Basis Set:

  -Total Gradient:
     Atom            X                  Y                   Z
    ------   -----------------  -----------------  -----------------
       1        0.000036760253    -0.001952605439     0.000197459451
       2       -0.000361847359     0.001732152722    -0.000428944251
       3        0.000971236664     0.001732145850     0.000587453579
       4       -0.000015543942    -0.000017763412     0.000001149977
       5        0.000032108012    -0.000029768781     0.000015450763
       6       -0.000669292853    -0.001443620869    -0.000407212128
       7       -0.000000820599    -0.000014478395     0.000012368122
       8        0.000016050115     0.000005120480     0.000015630503
       9        0.000021421877    -0.000013405844    -0.000006149078
      10        0.000002774286    -0.000004212383    -0.000012645294
      11       -0.000012307808    -0.000002312074     0.000000839189
      12       -0.000004897733     0.000002280032     0.000017121808
      13        0.000001418997     0.000001155947    -0.000002488457
      14       -0.000005854694     0.000000574679     0.000003574241
      15       -0.000011205214     0.000004737486     0.000006391572

  **** Optimization is complete! (in 6 steps) ****
    Final optimized geometry and variables:
    Molecular point group: c1

    Geometry (in Angstrom), charge = 0, multiplicity = 1:

    H           -2.583801609430     0.525315462336     0.204502085754
    C           -1.557975812290     0.578190696049     0.545983191591
    O           -0.735947167418     0.488676460788    -0.579280919503
    H           -1.407929092191     1.515812704634     1.073478066217
    H           -1.402227749603    -0.236507668380     1.245417940981
    C            0.539070442096    -0.093312852369    -0.439771670676
    C            1.390445470092     0.610454929957     0.614536891804
    C            0.460102314129    -1.602821051509    -0.220279272031
    H            0.998239090143     0.075652412520    -1.406530528883
    H            1.410333947672     1.679278471088     0.430477891720
    H            2.410461684735     0.240679130943     0.581470105091
    H            1.013408000693     0.443866057710     1.618997470037
    H           -0.174221358901    -2.055561753468    -0.974224179786
    H            1.449469486125    -2.043525865268    -0.296292363218
    H            0.064059461465    -1.858083024968     0.757311758750

  Mulliken Charges: (a.u.)
   Center  Symbol    Alpha    Beta     Spin     Total
       1     H     0.41456  0.41456  0.00000  0.17087
       2     C     3.08029  3.08029  0.00000 -0.16058
       3     O     4.31343  4.31343  0.00000 -0.62687
       4     H     0.42584  0.42584  0.00000  0.14832
       5     H     0.43071  0.43071  0.00000  0.13858
       6     C     2.91012  2.91012  0.00000  0.17975
       7     C     3.25367  3.25367  0.00000 -0.50734
       8     C     3.24985  3.24985  0.00000 -0.49969
       9     H     0.41550  0.41550  0.00000  0.16900
      10     H     0.41179  0.41179  0.00000  0.17642
      11     H     0.41883  0.41883  0.00000  0.16233
      12     H     0.42142  0.42142  0.00000  0.15716
      13     H     0.41137  0.41137  0.00000  0.17726
      14     H     0.42066  0.42066  0.00000  0.15868
      15     H     0.42196  0.42196  0.00000  0.15608

   Total alpha = 21.00000, Total beta = 21.00000, Total charge =  0.00000
