  ==> Input File <==

--------------------------------------------------------------------------
set {
	reference rhf
	basis 6-31G*
}

set_num_threads( 1 )
memory 2 gb

molecule MOL {
0 1

H	 3.893188	 0.355400	 -0.101367
N	 3.092854	 -0.246221	 -0.068770
C	 1.865559	 0.531981	 0.018834
H	 3.199514	 -0.826043	 0.741946
C	 0.645745	 -0.382037	 -0.029944
H	 1.841966	 1.207024	 -0.831236
H	 1.815756	 1.155410	 0.915079
C	 -0.679275	 0.379305	 0.025956
H	 0.698998	 -0.976915	 -0.937203
H	 0.693479	 -1.083846	 0.802235
C	 -1.833605	 -0.370156	 -0.642030
H	 -0.558447	 1.349429	 -0.453742
H	 -0.938906	 0.583361	 1.063646
C	 -3.154736	 0.396094	 -0.587408
H	 -1.577012	 -0.573971	 -1.679254
H	 -1.958432	 -1.338983	 -0.163024
H	 -3.071977	 1.356394	 -1.088696
H	 -3.952839	 -0.160291	 -1.069146
H	 -3.456411	 0.585246	 0.439044

	symmetry c1
}
set optking {
	frozen_dihedral = ("
		6 3 5 9,
		12 8 11 15,
		1 2 3 6
	")
}

ee = energy('scf')
oeprop('DIPOLE', 'QUADRUPOLE', 'MULLIKEN_CHARGES')
f=open( 'psi4out.xyz', 'w' )
f.write( "19  " )
f.write( str(ee) + "\n" )
f.write( MOL.save_string_xyz() )
f.close()
--------------------------------------------------------------------------

    Molecular point group: c1

    Geometry (in Angstrom), charge = 0, multiplicity = 1:

       Center              X                  Y                   Z               Mass
    ------------   -----------------  -----------------  -----------------  -----------------
           H          3.869811362709     0.299612256013     0.104342605411     1.007825032070
           N          3.069477362709    -0.302008743987     0.136939605411    14.003074004780
           C          1.842182362709     0.476193256013     0.224543605411    12.000000000000
           H          3.176137362709    -0.881830743987     0.947655605411     1.007825032070
           C          0.622368362709    -0.437824743987     0.175765605411    12.000000000000
           H          1.818589362709     1.151236256013    -0.625526394589     1.007825032070
           H          1.792379362709     1.099622256013     1.120788605411     1.007825032070
           C         -0.702651637291     0.323517256013     0.231665605411    12.000000000000
           H          0.675621362709    -1.032702743987    -0.731493394589     1.007825032070
           H          0.670102362709    -1.139633743987     1.007944605411     1.007825032070
           C         -1.856981637291    -0.425943743987    -0.436320394589    12.000000000000
           H         -0.581823637291     1.293641256013    -0.248032394589     1.007825032070
           H         -0.962282637291     0.527573256013     1.269355605411     1.007825032070
           C         -3.178112637291     0.340306256013    -0.381698394589    12.000000000000
           H         -1.600388637291    -0.629758743987    -1.473544394589     1.007825032070
           H         -1.981808637291    -1.394770743987     0.042685605411     1.007825032070
           H         -3.095353637291     1.300606256013    -0.882986394589     1.007825032070
           H         -3.976215637291    -0.216078743987    -0.863436394589     1.007825032070
           H         -3.479787637291     0.529458256013     0.644753605411     1.007825032070

  Charge       = 0
  Multiplicity = 1
  Basis Set: 6-31G*
  Basis Set:

    Orbital Energies (a.u.)
    -----------------------

    Doubly Occupied:

       1A    -15.532415     2A    -11.239961     3A    -11.213758
       4A    -11.212203     5A    -11.208798     6A    -11.207108
       7A     -1.176605     8A     -1.072794     9A     -0.998115
      10A     -0.899903    11A     -0.813840    12A     -0.788836
      13A     -0.662773    14A     -0.640577    15A     -0.620226
      16A     -0.585915    17A     -0.568208    18A     -0.548903
      19A     -0.526261    20A     -0.500685    21A     -0.479882
      22A     -0.465547    23A     -0.458006    24A     -0.449973
      25A     -0.380862

  @DF-RHF Final Energy:  -251.34962674646664

   => Energetics <=

    Nuclear Repulsion Energy =            245.8905538301808633
    One-Electron Energy =                -825.9758253473711420
    Two-Electron Energy =                 328.7356447707239226
    DFT Exchange-Correlation Energy =       0.0000000000000000
    Empirical Dispersion Energy =           0.0000000000000000
    PCM Polarization Energy =               0.0000000000000000
    EFP Energy =                            0.0000000000000000
    Total Energy =                       -251.3496267464662992

  Mulliken Charges: (a.u.)
   Center  Symbol    Alpha    Beta     Spin     Total
       1     H     0.33253  0.33253  0.00000  0.33495
       2     N     3.92191  3.92191  0.00000 -0.84382
       3     C     3.06175  3.06175  0.00000 -0.12351
       4     H     0.33537  0.33537  0.00000  0.32926
       5     C     3.15225  3.15225  0.00000 -0.30449
       6     H     0.42067  0.42067  0.00000  0.15867
       7     H     0.43458  0.43458  0.00000  0.13084
       8     C     3.15560  3.15560  0.00000 -0.31120
       9     H     0.41246  0.41246  0.00000  0.17508
      10     H     0.42634  0.42634  0.00000  0.14733
      11     C     3.15178  3.15178  0.00000 -0.30357
      12     H     0.42411  0.42411  0.00000  0.15177
      13     H     0.42312  0.42312  0.00000  0.15376
      14     C     3.23960  3.23960  0.00000 -0.47920
      15     H     0.42159  0.42159  0.00000  0.15681
      16     H     0.42273  0.42273  0.00000  0.15453
      17     H     0.42194  0.42194  0.00000  0.15611
      18     H     0.41938  0.41938  0.00000  0.16125
      19     H     0.42228  0.42228  0.00000  0.15543

   Total alpha = 25.00000, Total beta = 25.00000, Total charge =  0.00000
