  ==> Input File <==

--------------------------------------------------------------------------
set {
	reference rhf
	basis cc-pvtz
}

set_num_threads( 4 )
memory 2 gb

molecule MOL {
0 1

H	 -1.916869	 0.928222	 0.563570
N	 -1.851927	 0.161443	 -0.071573
C	 -0.561396	 -0.500007	 0.035200
H	 -1.989986	 0.527404	 -0.990457
C	 0.575129	 0.507849	 -0.048832
H	 -0.478089	 -1.200753	 -0.788956
H	 -0.456191	 -1.081816	 0.952176
C	 1.951750	 -0.141983	 0.035101
H	 0.478254	 1.061643	 -0.975981
H	 0.467676	 1.231891	 0.755499
H	 2.101550	 -0.848142	 -0.774949
H	 2.738260	 0.600794	 -0.026526
H	 2.078939	 -0.679792	 0.968824

	symmetry c1
}
set optking {
	frozen_dihedral = ("
		1 2 3 6
	")
}

ee = optimize('scf')
oeprop('DIPOLE', 'QUADRUPOLE', 'MULLIKEN_CHARGES')
f=open( 'psi4out.xyz', 'w' )
f.write( "13  " )
f.write( str(ee) + "\n" )
f.write( MOL.save_string_xyz() )
f.close()
--------------------------------------------------------------------------

    Molecular point group: c1
  Charge       = 0
  Multiplicity = 1
  Basis Set: CC-PVTZ
  Basis Set:
  @DF-RHF Final Energy:  -173.35048567340326
    Total Energy =                       -173.3504856734032273
    Molecular point group: c1
  Basis Set: CC-PVTZ
  Basis Set:
  Basis Set: CC-PVTZ
  Basis Set:
  @DF-RHF Final Energy:  -173.35202708499764
    Total Energy =                       -173.3520270849975589
  Basis Set: CC-PVTZ
  Basis Set:
  Basis Set: CC-PVTZ
  Basis Set:
  @DF-RHF Final Energy:  -173.35223001805792
    Total Energy =                       -173.3522300180580373
  Basis Set: CC-PVTZ
  Basis Set:
  Basis Set: CC-PVTZ
  Basis Set:
  @DF-RHF Final Energy:  -173.35223211403087
    Total Energy =                       -173.3522321140309259
  Basis Set: CC-PVTZ
  Basis Set:
  Charge       = 0
  Multiplicity = 1
  Basis Set: CC-PVTZ
  Basis Set:

    Orbital Energies (a.u.)
    -----------------------

    Doubly Occupied:

       1A    -15.527134     2A    -11.238661     3A    -11.214096
       4A    -11.209860     5A     -1.179259     6A     -1.038009
       7A     -0.900093     8A     -0.807329     9A     -0.677689
      10A     -0.608918    11A     -0.606163    12A     -0.561914
      13A     -0.525656    14A     -0.515048    15A     -0.486661
      16A     -0.471370    17A     -0.381221

  @DF-RHF Final Energy:  -173.35223226059134

   => Energetics <=

    Nuclear Repulsion Energy =            131.8405893217585572
    One-Electron Energy =                -494.4874801681128247
    Two-Electron Energy =                 189.2946585857629316
    DFT Exchange-Correlation Energy =       0.0000000000000000
    Empirical Dispersion Energy =           0.0000000000000000
    PCM Polarization Energy =               0.0000000000000000
    EFP Energy =                            0.0000000000000000
    Total Energy =                       -173.3522322605913359
    Molecular point group: c1
  Basis Set: CC-PVTZ
  Basis Set:

  -Total Gradient:
     Atom            X                  Y                   Z
    ------   -----------------  -----------------  -----------------
       1        0.000532550204     0.001055022118    -0.001239378926
       2       -0.000523376604    -0.001059193295     0.001321848625
       3       -0.000568156704    -0.001099838269     0.000822050416
       4        0.000000369512    -0.000000523881     0.000004417765
       5       -0.000030923381    -0.000027201793     0.000017093393
       6        0.000550160488     0.001117955127    -0.000921178773
       7        0.000009702682     0.000000932842     0.000005549648
       8        0.000008828863     0.000013778518    -0.000015614042
       9        0.000003006183    -0.000001145710     0.000008905099
      10       -0.000004015265     0.000002813261    -0.000001750158
      11        0.000001630245    -0.000001770189     0.000007617110
      12        0.000023804078    -0.000006372474    -0.000002244742
      13       -0.000003580300     0.000005543744    -0.000007315415

  **** Optimization is complete! (in 5 steps) ****
    Final optimized geometry and variables:
    Molecular point group: c1

    Geometry (in Angstrom), charge = 0, multiplicity = 1:

    H           -1.981961579627     0.880637688798     0.583460041073
    N           -1.898496891134     0.103617103324    -0.038948024840
    C           -0.571004033130    -0.483608375608     0.038623578509
    H           -2.074727455554     0.454666986096    -0.957068905334
    C            0.590125157912     0.505497910349    -0.033726728412
    H           -0.477604850934    -1.197083170503    -0.773398145045
    H           -0.501947232976    -1.051900145292     0.960595747476
    C            1.953859595115    -0.171577522397     0.052975840399
    H            0.519348006045     1.069070340171    -0.960578788945
    H            0.491211572449     1.227881976630     0.773024768124
    H            2.093886930227    -0.876034618433    -0.760272927157
    H            2.757204171600     0.553884992115     0.002507108598
    H            2.061027799485    -0.718507151939     0.983808389395

  Mulliken Charges: (a.u.)
   Center  Symbol    Alpha    Beta     Spin     Total
       1     H     0.43260  0.43260  0.00000  0.13480
       2     N     3.68751  3.68751  0.00000 -0.37501
       3     C     3.02738  3.02738  0.00000 -0.05477
       4     H     0.43242  0.43242  0.00000  0.13516
       5     C     3.08178  3.08178  0.00000 -0.16356
       6     H     0.45512  0.45512  0.00000  0.08975
       7     H     0.45406  0.45406  0.00000  0.09189
       8     C     3.15225  3.15225  0.00000 -0.30450
       9     H     0.45949  0.45949  0.00000  0.08101
      10     H     0.45968  0.45968  0.00000  0.08063
      11     H     0.45501  0.45501  0.00000  0.08999
      12     H     0.44796  0.44796  0.00000  0.10409
      13     H     0.45474  0.45474  0.00000  0.09052

   Total alpha = 17.00000, Total beta = 17.00000, Total charge = -0.00000
