  ==> Input File <==

--------------------------------------------------------------------------
set {
	reference rhf
	basis 6-31G*
}

set_num_threads( 4 )
memory 2 gb

molecule MOL {
0 1

H	 -0.123880	 -1.801629	 0.224068
C	 -1.175608	 -1.523530	 0.249960
O	 -1.392607	 -0.295399	 -0.366433
H	 -1.747202	 -2.265251	 -0.290661
H	 -1.504590	 -1.514448	 1.288284
C	 -0.719715	 0.768384	 0.229244
C	 0.719720	 0.768376	 -0.229267
H	 -1.185038	 1.714362	 -0.050570
H	 -0.750528	 0.687237	 1.313896
O	 1.392611	 -0.295398	 0.366430
H	 0.750534	 0.687200	 -1.313918
H	 1.185043	 1.714359	 0.050526
C	 2.706965	 -0.449871	 -0.062409
H	 2.756559	 -0.644779	 -1.131878
H	 3.305899	 0.433456	 0.155466
H	 3.125548	 -1.294566	 0.467107

	symmetry c1
}
set optking {
	frozen_dihedral = ("
		2 3 6 7
	")
}

ee = optimize('scf')
oeprop('DIPOLE', 'QUADRUPOLE', 'MULLIKEN_CHARGES')
f=open( 'psi4out.xyz', 'w' )
f.write( "16  " )
f.write( str(ee) + "\n" )
f.write( MOL.save_string_xyz() )
f.close()
--------------------------------------------------------------------------

    Molecular point group: c1
  Charge       = 0
  Multiplicity = 1
  Basis Set: 6-31G*
  Basis Set:
  @DF-RHF Final Energy:  -306.97293627218346
    Total Energy =                       -306.9729362721832899
    Molecular point group: c1
  Basis Set: 6-31G*
  Basis Set:
  Basis Set: 6-31G*
  Basis Set:
  @DF-RHF Final Energy:  -306.97682073361739
    Total Energy =                       -306.9768207336174441
  Basis Set: 6-31G*
  Basis Set:
  Basis Set: 6-31G*
  Basis Set:
  @DF-RHF Final Energy:  -306.97726971374419
    Total Energy =                       -306.9772697137442492
  Basis Set: 6-31G*
  Basis Set:
  Basis Set: 6-31G*
  Basis Set:
  @DF-RHF Final Energy:  -306.97729556158674
    Total Energy =                       -306.9772955615868000
  Basis Set: 6-31G*
  Basis Set:
  Basis Set: 6-31G*
  Basis Set:
  @DF-RHF Final Energy:  -306.97729859748210
    Total Energy =                       -306.9772985974819903
  Basis Set: 6-31G*
  Basis Set:
  Charge       = 0
  Multiplicity = 1
  Basis Set: 6-31G*
  Basis Set:

    Orbital Energies (a.u.)
    -----------------------

    Doubly Occupied:

       1A    -20.561750     2A    -20.549619     3A    -11.270230
       4A    -11.269888     5A    -11.267956     6A    -11.253549
       7A     -1.389698     8A     -1.367226     9A     -1.028115
      10A     -0.944796    11A     -0.890550    12A     -0.820278
      13A     -0.687739    14A     -0.679063    15A     -0.657795
      16A     -0.633213    17A     -0.624869    18A     -0.597374
      19A     -0.553834    20A     -0.524813    21A     -0.524054
      22A     -0.483566    23A     -0.461209    24A     -0.424056
      25A     -0.402766

  @DF-RHF Final Energy:  -306.97729929526741

   => Energetics <=

    Nuclear Repulsion Energy =            263.5350877346137963
    One-Electron Energy =                -941.2887580563802885
    Two-Electron Energy =                 370.7763710264991346
    DFT Exchange-Correlation Energy =       0.0000000000000000
    Empirical Dispersion Energy =           0.0000000000000000
    PCM Polarization Energy =               0.0000000000000000
    EFP Energy =                            0.0000000000000000
    Total Energy =                       -306.9772992952674144
    Molecular point group: c1
  Basis Set: 6-31G*
  Basis Set:

  -Total Gradient:
     Atom            X                  Y                   Z
    ------   -----------------  -----------------  -----------------
       1       -0.000016516878    -0.000009357588     0.000004990601
       2        0.000227124738    -0.000060690236    -0.000224994965
       3       -0.000322423506     0.000049338511     0.000470647211
       4        0.000017299804    -0.000010451679    -0.000010137585
       5        0.000031500628    -0.000001834185    -0.000015695833
       6       -0.000049465288     0.000191754513    -0.000470380373
       7        0.000141006048    -0.000194183471     0.000237361735
       8       -0.000003643031    -0.000001067360    -0.000000347611
       9        0.000001967120     0.000025692473     0.000000379040
      10       -0.000011288788    -0.000003898914     0.000017633261
      11       -0.000012351255     0.000008557311    -0.000001028675
      12        0.000000586027     0.000004432076     0.000000245588
      13       -0.000018088113     0.000006202509    -0.000002134813
      14        0.000010056104    -0.000004303181    -0.000007487938
      15        0.000006000393    -0.000001062541     0.000001371145
      16       -0.000001764004     0.000000871763    -0.000000420788

  **** Optimization is complete! (in 6 steps) ****
    Final optimized geometry and variables:
    Molecular point group: c1

    Geometry (in Angstrom), charge = 0, multiplicity = 1:

    H           -0.636757067619    -1.819333966524    -0.028379078817
    C           -1.598985465084    -1.378055032151     0.196357514317
    O           -1.736526222857    -0.103599806538    -0.363576762154
    H           -2.383483935022    -1.991988665084    -0.225686064910
    H           -1.721592335175    -1.346540637974     1.276806786012
    C           -0.959079153167     0.911837771251     0.191855690345
    C            0.480361356950     0.929375427025    -0.287010293133
    H           -1.426591954747     1.843031794984    -0.107210007776
    H           -0.972644431624     0.861143257479     1.278788782200
    O            1.205328820950    -0.093965315033     0.327636041025
    H            0.501227576474     0.817308443776    -1.369530935657
    H            0.922298489000     1.896051478831    -0.041661182516
    C            2.536313582124    -0.170989817518    -0.075006374311
    H            2.618841101955    -0.365009050959    -1.142473194242
    H            3.073107738550     0.748496690089     0.151234656617
    H            2.995488544297    -0.986455969467     0.466597884173

  Mulliken Charges: (a.u.)
   Center  Symbol    Alpha    Beta     Spin     Total
       1     H     0.41625  0.41625  0.00000  0.16751
       2     C     3.07936  3.07936  0.00000 -0.15872
       3     O     4.30824  4.30824  0.00000 -0.61648
       4     H     0.41771  0.41771  0.00000  0.16459
       5     H     0.43121  0.43121  0.00000  0.13758
       6     C     2.99932  2.99932  0.00000  0.00137
       7     C     2.99931  2.99931  0.00000  0.00139
       8     H     0.41557  0.41557  0.00000  0.16885
       9     H     0.42349  0.42349  0.00000  0.15302
      10     O     4.30576  4.30576  0.00000 -0.61152
      11     H     0.42322  0.42322  0.00000  0.15357
      12     H     0.43221  0.43221  0.00000  0.13559
      13     C     3.08041  3.08041  0.00000 -0.16082
      14     H     0.42761  0.42761  0.00000  0.14478
      15     H     0.42913  0.42913  0.00000  0.14174
      16     H     0.41122  0.41122  0.00000  0.17756

   Total alpha = 25.00000, Total beta = 25.00000, Total charge =  0.00000
