                              Psi4 1.0.54 Driver

  ==> Input File <==

--------------------------------------------------------------------------
set {
	reference rhf
	basis cc-pvtz
}

set_num_threads( 4 )
memory 2 gb

molecule MOL {
0 1

H	 -0.795677	 1.694307	 -0.133699
O	 0.057669	 1.301365	 -0.158528
C	 0.004145	 -0.005141	 0.363049
C	 1.199168	 -0.827145	 -0.096690
C	 -1.316386	 -0.602081	 -0.083515
H	 0.012026	 0.043363	 1.450619
H	 1.216685	 -0.896776	 -1.178167
H	 2.129940	 -0.372354	 0.228035
H	 1.160783	 -1.829622	 0.314294
H	 -1.357882	 -0.655920	 -1.165207
H	 -2.140147	 0.011735	 0.257253
H	 -1.440790	 -1.601175	 0.317669

	symmetry c1
}
set optking {
	frozen_dihedral = ("
		1 2 3 4
	")
}

ee,wfn = optimize('scf', return_wfn=True)
oeprop( wfn, 'DIPOLE', 'QUADRUPOLE', 'MULLIKEN_CHARGES')
f=open( 'psi4out.xyz', 'w' )
f.write( "12  " )
f.write( str(ee) + "\n" )
f.write( MOL.save_string_xyz() )
f.close()
--------------------------------------------------------------------------

    Molecular point group: c1
  Charge       = 0
  Multiplicity = 1
  Basis Set: CC-PVTZ
  Basis Set:
  @DF-RHF Final Energy:  -193.19355192270149
    Total Energy =                       -193.1935519227015448
    Molecular point group: c1
  Basis Set: CC-PVTZ
  Basis Set:
  Basis Set: CC-PVTZ
  Basis Set:
  @DF-RHF Final Energy:  -193.13720098046960
    Total Energy =                       -193.1372009804694301
  Basis Set: CC-PVTZ
  Basis Set:
  Basis Set: CC-PVTZ
  Basis Set:
  @DF-RHF Final Energy:  -193.19203452919544
    Total Energy =                       -193.1920345291953822
  Basis Set: CC-PVTZ
  Basis Set:
  Basis Set: CC-PVTZ
  Basis Set:
  @DF-RHF Final Energy:  -193.19533553845801
    Total Energy =                       -193.1953355384579538
  Basis Set: CC-PVTZ
  Basis Set:
  Basis Set: CC-PVTZ
  Basis Set:
  @DF-RHF Final Energy:  -193.19546180295484
    Total Energy =                       -193.1954618029548101
  Basis Set: CC-PVTZ
  Basis Set:
  Basis Set: CC-PVTZ
  Basis Set:
  @DF-RHF Final Energy:  -193.19547660377165
    Total Energy =                       -193.1954766037716809
  Basis Set: CC-PVTZ
  Basis Set:
  Charge       = 0
  Multiplicity = 1
  Basis Set: CC-PVTZ
  Basis Set:

    Orbital Energies (a.u.)
    -----------------------

    Doubly Occupied:

       1A    -20.543619     2A    -11.274007     3A    -11.214682
       4A    -11.205038     5A     -1.364309     6A     -1.043893
       7A     -0.942337     8A     -0.807071     9A     -0.692362
      10A     -0.637489    11A     -0.607751    12A     -0.547163
      13A     -0.536340    14A     -0.528492    15A     -0.513985
      16A     -0.469752    17A     -0.432386

  @DF-RHF Final Energy:  -193.19547676424094

   => Energetics <=

    Nuclear Repulsion Energy =            135.8039778576922458
    One-Electron Energy =                -531.2775574010266837
    Two-Electron Energy =                 202.2781027790934729
    DFT Exchange-Correlation Energy =       0.0000000000000000
    Empirical Dispersion Energy =           0.0000000000000000
    PCM Polarization Energy =               0.0000000000000000
    EFP Energy =                            0.0000000000000000
    Total Energy =                       -193.1954767642409649
    Molecular point group: c1
  Basis Set: CC-PVTZ
  Basis Set:

  -Total Gradient:
     Atom            X                  Y                   Z
    ------   -----------------  -----------------  -----------------
       1       -0.000502730100    -0.000219559735    -0.001606133610
       2        0.000394741496     0.000243954865     0.001702456376
       3        0.000732298179     0.000227184738     0.000732264693
       4       -0.000652508022    -0.000215054339    -0.000803773035
       5        0.000019125592    -0.000007895173    -0.000024918945
       6        0.000008215158    -0.000021924363    -0.000000870761
       7        0.000002348466    -0.000000142377    -0.000005471366
       8       -0.000023027019    -0.000006170256     0.000015552222
       9        0.000003969366    -0.000006173087    -0.000007240377
      10       -0.000006760175     0.000000989440    -0.000001664250
      11        0.000022884859     0.000003675406    -0.000000446887
      12        0.000001442201     0.000001114884     0.000000245942

  **** Optimization is complete! (in 7 steps) ****
    Final optimized geometry and variables:
    Molecular point group: c1

    Geometry (in Angstrom), charge = 0, multiplicity = 1:

    H           -1.085910650904     1.449331518061     0.492988656139
    O           -0.198507671056     1.279960872109     0.235684844480
    C            0.088557652158    -0.094517260993     0.343419183820
    C            1.300445594564    -0.366098464761    -0.527370217811
    C           -1.109750883740    -0.940693461760    -0.059482408328
    H            0.341804699268    -0.322259083083     1.377076274209
    H            1.069598348147    -0.166157618353    -1.567170093197
    H            2.123185016313     0.273425899544    -0.234073791930
    H            1.617394736022    -1.398460569926    -0.433275760653
    H           -1.390272765214    -0.738493559307    -1.087204549041
    H           -1.965120675459    -0.729478648435     0.575513719719
    H           -0.885227960601    -1.996667394976     0.034176324143

  Mulliken Charges: (a.u.)
   Center  Symbol    Alpha    Beta     Spin     Total
       1     H     0.39415  0.39415  0.00000  0.21170
       2     O     4.20661  4.20661  0.00000 -0.41322
       3     C     2.91970  2.91970  0.00000  0.16059
       4     C     3.14073  3.14073  0.00000 -0.28147
       5     C     3.15098  3.15098  0.00000 -0.30196
       6     H     0.46612  0.46612  0.00000  0.06775
       7     H     0.45468  0.45468  0.00000  0.09063
       8     H     0.44603  0.44603  0.00000  0.10793
       9     H     0.45931  0.45931  0.00000  0.08138
      10     H     0.45044  0.45044  0.00000  0.09912
      11     H     0.45723  0.45723  0.00000  0.08554
      12     H     0.45400  0.45400  0.00000  0.09200

   Total alpha = 17.00000, Total beta = 17.00000, Total charge = -0.00000

*** Psi4 exiting successfully. Buy a developer a beer!
