  ==> Input File <==

--------------------------------------------------------------------------
set {
	reference rhf
	basis 6-31G*
}

set_num_threads( 4 )
memory 2 gb

molecule MOL {
0 1

H	 -3.420663	 1.227371	 -1.044276
O	 -3.452007	 0.283848	 -0.965577
C	 -3.181085	 -0.079926	 0.364119
C	 -1.765924	 0.277073	 0.805136
H	 -3.327791	 -1.152017	 0.410903
H	 -3.905698	 0.375695	 1.036898
C	 -0.677594	 -0.417312	 -0.014550
H	 -1.637766	 1.358238	 0.744969
H	 -1.659588	 0.017670	 1.857098
C	 0.738335	 -0.034840	 0.421385
H	 -0.814977	 -0.178223	 -1.064632
H	 -0.802730	 -1.495410	 0.071702
C	 1.785399	 -1.075695	 0.015970
H	 0.990921	 0.932396	 -0.006486
H	 0.761900	 0.094168	 1.502776
C	 3.207136	 -0.780757	 0.507732
H	 1.794340	 -1.173223	 -1.068514
H	 1.480470	 -2.045276	 0.404233
C	 3.845490	 0.467632	 -0.104178
H	 3.834756	 -1.639242	 0.281045
H	 3.200707	 -0.688516	 1.592008
H	 3.854302	 0.409099	 -1.189367
H	 4.873304	 0.577327	 0.228092
H	 3.316089	 1.372890	 0.174041

	symmetry c1
}
set optking {
	frozen_dihedral = ("
		13 10 7 11
	")
}

ee = optimize('scf')
oeprop('DIPOLE', 'QUADRUPOLE', 'MULLIKEN_CHARGES')
f=open( 'psi4out.xyz', 'w' )
f.write( "24  " )
f.write( str(ee) + "\n" )
f.write( MOL.save_string_xyz() )
f.close()
--------------------------------------------------------------------------

    Molecular point group: c1
  Charge       = 0
  Multiplicity = 1
  Basis Set: 6-31G*
  Basis Set:
  @DF-RHF Final Energy:  -349.24594400442891
    Total Energy =                       -349.2459440044286794
    Molecular point group: c1
  Basis Set: 6-31G*
  Basis Set:
  Basis Set: 6-31G*
  Basis Set:
  @DF-RHF Final Energy:  -349.24608661177621
    Total Energy =                       -349.2460866117763771
  Basis Set: 6-31G*
  Basis Set:
  Basis Set: 6-31G*
  Basis Set:
  @DF-RHF Final Energy:  -349.24615520424794
    Total Energy =                       -349.2461552042478274
  Basis Set: 6-31G*
  Basis Set:
  Basis Set: 6-31G*
  Basis Set:
  @DF-RHF Final Energy:  -349.24615859834302
    Total Energy =                       -349.2461585983430723
  Basis Set: 6-31G*
  Basis Set:
  Basis Set: 6-31G*
  Basis Set:
  @DF-RHF Final Energy:  -349.24616079715969
    Total Energy =                       -349.2461607971602007
  Basis Set: 6-31G*
  Basis Set:
  Basis Set: 6-31G*
  Basis Set:
  @DF-RHF Final Energy:  -349.24616582367571
    Total Energy =                       -349.2461658236762787
  Basis Set: 6-31G*
  Basis Set:
  Charge       = 0
  Multiplicity = 1
  Basis Set: 6-31G*
  Basis Set:

    Orbital Energies (a.u.)
    -----------------------

    Doubly Occupied:

       1A    -20.553660     2A    -11.267578     3A    -11.217304
       4A    -11.214070     5A    -11.212426     6A    -11.211750
       7A    -11.210900     8A    -11.207300     9A     -1.360203
      10A     -1.088049    11A     -1.048181    12A     -0.985226
      13A     -0.915006    14A     -0.850229    15A     -0.800552
      16A     -0.776633    17A     -0.678948    18A     -0.654559
      19A     -0.623477    20A     -0.620983    21A     -0.595856
      22A     -0.580549    23A     -0.564752    24A     -0.534849
      25A     -0.517911    26A     -0.512592    27A     -0.494801
      28A     -0.475981    29A     -0.466635    30A     -0.459657
      31A     -0.453113    32A     -0.450268    33A     -0.418966

  @DF-RHF Final Energy:  -349.24616594168162

   => Energetics <=

    Nuclear Repulsion Energy =            384.1336190565707511
    One-Electron Energy =               -1234.7136389309814604
    Two-Electron Energy =                 501.3338539327289709
    DFT Exchange-Correlation Energy =       0.0000000000000000
    Empirical Dispersion Energy =           0.0000000000000000
    PCM Polarization Energy =               0.0000000000000000
    EFP Energy =                            0.0000000000000000
    Total Energy =                       -349.2461659416817383
    Molecular point group: c1
  Basis Set: 6-31G*
  Basis Set:

  -Total Gradient:
     Atom            X                  Y                   Z
    ------   -----------------  -----------------  -----------------
       1        0.000000277712     0.000003606152    -0.000004272567
       2       -0.000009464296     0.000008979329     0.000010709680
       3        0.000008015207    -0.000018398099    -0.000015429309
       4       -0.000000288615     0.000012380222    -0.000021771346
       5       -0.000000614657    -0.000001396861     0.000005864244
       6        0.000001394498     0.000004942375    -0.000004359397
       7        0.001350826608    -0.004607274569    -0.000273185935
       8        0.000011032798     0.000006720030     0.000013094784
       9       -0.000007316484    -0.000010924758    -0.000008861882
      10        0.000217169759     0.002648192492    -0.002938543132
      11       -0.001216067593     0.003277713987     0.000980073246
      12       -0.000007704430    -0.000013410102    -0.000003986755
      13       -0.000369627697    -0.001308327099     0.002246738551
      14        0.000004226752    -0.000003777354     0.000012194668
      15        0.000003303186    -0.000005846465    -0.000011146446
      16       -0.000006768187     0.000002971569     0.000029656765
      17       -0.000009554842    -0.000000751278    -0.000002687747
      18        0.000000407640     0.000000597949    -0.000002867746
      19        0.000010832618     0.000010290264    -0.000006111930
      20       -0.000009681949     0.000001193010    -0.000001524455
      21        0.000012591645    -0.000006423976     0.000007326585
      22        0.000009259718     0.000003404076    -0.000006800954
      23       -0.000005136455     0.000004922861    -0.000000797957
      24        0.000012887068    -0.000009383756    -0.000003310966

  **** Optimization is complete! (in 7 steps) ****
    Final optimized geometry and variables:
    Molecular point group: c1

    Geometry (in Angstrom), charge = 0, multiplicity = 1:

    H           -3.354536720218     1.463422336177    -1.142049236064
    O           -3.411438466743     0.518504886059    -1.107060216920
    C           -3.196946440591     0.089757531473     0.213721801209
    C           -1.787736411601     0.383318327326     0.716191673191
    H           -3.376820106451    -0.978274059961     0.208602230274
    H           -3.930526050133     0.538279702033     0.881436149152
    C           -0.692531332056    -0.320722445241    -0.088695093298
    H           -1.621955455367     1.461113737430     0.696965181712
    H           -1.727296963483     0.086497706022     1.761751622186
    C            0.719898209605     0.068764249074     0.365286613816
    H           -0.825474303437    -0.061290059253    -1.133984034951
    H           -0.828344782711    -1.396800691509    -0.005077654013
    C            1.785031623107    -0.949045854814    -0.052396602157
    H            0.958704216447     1.055509184288    -0.021498624039
    H            0.739372794403     0.155683669539     1.451179501254
    C            3.209674189920    -0.609393934345     0.400339736698
    H            1.771957452135    -1.067035862050    -1.135193327202
    H            1.512278342307    -1.917762243980     0.360335212108
    C            3.812191749446     0.627152364391    -0.269320599941
    H            3.849672118520    -1.463459052262     0.192512896788
    H            3.222115626224    -0.477852858114     1.480612428583
    H            3.806512936869     0.526080341255    -1.351317818488
    H            4.842157475431     0.771107676397     0.042615821424
    H            3.267879036375     1.531601356586    -0.018834663068

  Mulliken Charges: (a.u.)
   Center  Symbol    Alpha    Beta     Spin     Total
       1     H     0.28337  0.28337  0.00000  0.43326
       2     O     4.36835  4.36835  0.00000 -0.73669
       3     C     2.99644  2.99644  0.00000  0.00712
       4     C     3.16945  3.16945  0.00000 -0.33890
       5     H     0.41638  0.41638  0.00000  0.16724
       6     H     0.42818  0.42818  0.00000  0.14364
       7     C     3.15317  3.15317  0.00000 -0.30634
       8     H     0.42840  0.42840  0.00000  0.14320
       9     H     0.42241  0.42241  0.00000  0.15517
      10     C     3.15419  3.15419  0.00000 -0.30837
      11     H     0.41042  0.41042  0.00000  0.17915
      12     H     0.42297  0.42297  0.00000  0.15406
      13     C     3.15279  3.15279  0.00000 -0.30558
      14     H     0.42114  0.42114  0.00000  0.15771
      15     H     0.42586  0.42586  0.00000  0.14828
      16     C     3.15264  3.15264  0.00000 -0.30528
      17     H     0.42345  0.42345  0.00000  0.15310
      18     H     0.42226  0.42226  0.00000  0.15549
      19     C     3.24078  3.24078  0.00000 -0.48155
      20     H     0.42107  0.42107  0.00000  0.15785
      21     H     0.42393  0.42393  0.00000  0.15214
      22     H     0.42196  0.42196  0.00000  0.15608
      23     H     0.41959  0.41959  0.00000  0.16082
      24     H     0.42081  0.42081  0.00000  0.15838

   Total alpha = 33.00000, Total beta = 33.00000, Total charge = -0.00000
