                              Psi4 1.0.54 Driver

  ==> Input File <==

--------------------------------------------------------------------------
set {
	reference rhf
	basis cc-pvtz
}

set_num_threads( 4 )
memory 2 gb

molecule MOL {
0 1

H	 -3.144994	 -1.202467	 -0.018751
O	 -2.321472	 -0.864941	 -0.318626
C	 -2.021813	 0.336996	 0.342658
C	 -0.669613	 0.837286	 -0.127252
H	 -2.780861	 1.084746	 0.127159
H	 -2.006390	 0.184138	 1.420053
C	 0.490865	 -0.082543	 0.241244
H	 -0.708709	 0.967192	 -1.204587
H	 -0.507562	 1.822272	 0.303070
C	 1.839800	 0.429565	 -0.255472
H	 0.305636	 -1.070211	 -0.165276
H	 0.527397	 -0.195943	 1.322876
C	 2.126994	 0.049027	 -1.704090
H	 1.870788	 1.511097	 -0.155310
H	 2.630995	 0.042487	 0.381608
H	 1.371650	 0.451890	 -2.370479
H	 3.089783	 0.428363	 -2.027271
H	 2.136751	 -1.028556	 -1.831223

	symmetry c1
}
set optking {
	frozen_dihedral = ("
		14 10 7 11
	")
}

ee,wfn = optimize('scf', return_wfn=True)
oeprop( wfn, 'DIPOLE', 'QUADRUPOLE', 'MULLIKEN_CHARGES')
f=open( 'psi4out.xyz', 'w' )
f.write( "18  " )
f.write( str(ee) + "\n" )
f.write( MOL.save_string_xyz() )
f.close()
--------------------------------------------------------------------------

    Molecular point group: c1
  Charge       = 0
  Multiplicity = 1
  Basis Set: CC-PVTZ
  Basis Set:
  @DF-RHF Final Energy:  -271.28410106121225
    Total Energy =                       -271.2841010612121408
    Molecular point group: c1
  Basis Set: CC-PVTZ
  Basis Set:
  Basis Set: CC-PVTZ
  Basis Set:
  @DF-RHF Final Energy:  -271.28425940573482
    Total Energy =                       -271.2842594057347583
  Basis Set: CC-PVTZ
  Basis Set:
  Basis Set: CC-PVTZ
  Basis Set:
  @DF-RHF Final Energy:  -271.28428978779101
    Total Energy =                       -271.2842897877908399
  Basis Set: CC-PVTZ
  Basis Set:
  Charge       = 0
  Multiplicity = 1
  Basis Set: CC-PVTZ
  Basis Set:

    Orbital Energies (a.u.)
    -----------------------

    Doubly Occupied:

       1A    -20.546350     2A    -11.265888     3A    -11.210268
       4A    -11.209162     5A    -11.205067     6A    -11.201401
       7A     -1.364200     8A     -1.075797     9A     -1.007574
      10A     -0.914238    11A     -0.826091    12A     -0.777175
      13A     -0.707694    14A     -0.642097    15A     -0.616100
      16A     -0.602332    17A     -0.567868    18A     -0.558135
      19A     -0.518051    20A     -0.500884    21A     -0.498212
      22A     -0.464873    23A     -0.455368    24A     -0.449743
      25A     -0.430370

  @DF-RHF Final Energy:  -271.28429028014011

   => Energetics <=

    Nuclear Repulsion Energy =            252.0744581816082928
    One-Electron Energy =                -867.4876210826769238
    Two-Electron Energy =                 344.1288726209282913
    DFT Exchange-Correlation Energy =       0.0000000000000000
    Empirical Dispersion Energy =           0.0000000000000000
    PCM Polarization Energy =               0.0000000000000000
    EFP Energy =                            0.0000000000000000
    Total Energy =                       -271.2842902801403397
    Molecular point group: c1
  Basis Set: CC-PVTZ
  Basis Set:

  -Total Gradient:
     Atom            X                  Y                   Z
    ------   -----------------  -----------------  -----------------
       1       -0.000000647099    -0.000002826615     0.000000401119
       2        0.000026436596    -0.000017400591     0.000039975129
       3       -0.000024385380     0.000021407049    -0.000085459997
       4        0.000019960166    -0.000015094816     0.000041513557
       5       -0.000004678030     0.000015267307     0.000011085727
       6        0.000005714676    -0.000017172130    -0.000009229294
       7        0.001124731123    -0.001135125511     0.001964702163
       8       -0.000009603808    -0.000000130868     0.000004143474
       9        0.000008224135     0.000015915090     0.000006070369
      10        0.000953799970    -0.000074870023     0.002354188655
      11       -0.001089632510     0.000988436182    -0.002033332725
      12        0.000008636244     0.000013568201    -0.000010992203
      13       -0.000030934340     0.000010542507     0.000023661880
      14       -0.000979835767     0.000194170340    -0.002301968496
      15       -0.000003456024    -0.000006184770    -0.000001873338
      16       -0.000006573633    -0.000000001633    -0.000012343964
      17        0.000008264662     0.000008404990     0.000004441969
      18       -0.000006020983     0.000001095291     0.000005015977

  **** Optimization is complete! (in 4 steps) ****
    Final optimized geometry and variables:
    Molecular point group: c1

    Geometry (in Angstrom), charge = 0, multiplicity = 1:

    H           -2.996187628040    -1.285118998619     0.239259724708
    O           -2.168818248281    -0.943747717698    -0.045026441294
    C           -1.881051667041     0.252797643301     0.631233817354
    C           -0.522366282123     0.758974167204     0.186581020749
    H           -2.637898168045     1.001383492299     0.410872218261
    H           -1.881843865769     0.090211897034     1.707346874373
    C            0.634463335113    -0.157858445036     0.583743137877
    H           -0.546808219331     0.890814930104    -0.890075528673
    H           -0.371361272045     1.743455978568     0.621725528017
    C            1.996250334994     0.324432112164     0.070787339797
    H            0.432392899333    -1.150312409331     0.198055610581
    H            0.659328722572    -0.234792074189     1.666949809813
    C            2.280876227217    -0.075794982535    -1.375806799758
    H            2.048266688269     1.407265836921     0.147300032323
    H            2.782919107838    -0.071979978630     0.703900541761
    H            1.527646058979     0.308780337240    -2.054058562524
    H            3.241712465007     0.305393798628    -1.703307877216
    H            2.298178988083    -1.155021529555    -1.482833644828

  Mulliken Charges: (a.u.)
   Center  Symbol    Alpha    Beta     Spin     Total
       1     H     0.39570  0.39570  0.00000  0.20860
       2     O     4.19852  4.19852  0.00000 -0.39704
       3     C     2.97364  2.97364  0.00000  0.05272
       4     C     3.09192  3.09192  0.00000 -0.18383
       5     H     0.46504  0.46504  0.00000  0.06993
       6     H     0.47315  0.47315  0.00000  0.05370
       7     C     3.09335  3.09335  0.00000 -0.18670
       8     H     0.45186  0.45186  0.00000  0.09628
       9     H     0.45406  0.45406  0.00000  0.09188
      10     C     3.08988  3.08988  0.00000 -0.17977
      11     H     0.44675  0.44675  0.00000  0.10650
      12     H     0.45321  0.45321  0.00000  0.09357
      13     C     3.14754  3.14754  0.00000 -0.29509
      14     H     0.45795  0.45795  0.00000  0.08409
      15     H     0.44877  0.44877  0.00000  0.10246
      16     H     0.45460  0.45460  0.00000  0.09080
      17     H     0.44955  0.44955  0.00000  0.10089
      18     H     0.45451  0.45451  0.00000  0.09099

   Total alpha = 25.00000, Total beta = 25.00000, Total charge = -0.00000

*** Psi4 exiting successfully. Buy a developer a beer!
