  ==> Input File <==

--------------------------------------------------------------------------
set {
	reference rhf
	basis 6-31G*
}

set_num_threads( 1 )
memory 2 gb

molecule MOL {
0 1

H	 0.948109	 -0.900333	 -1.028422
O	 1.654024	 -0.625927	 -0.460906
C	 1.135793	 0.118896	 0.612333
C	 0.031547	 1.023609	 0.088541
H	 1.915668	 0.729681	 1.063582
H	 0.754543	 -0.542641	 1.387006
C	 -1.134819	 0.293262	 -0.585751
H	 0.474374	 1.714721	 -0.623187
H	 -0.338529	 1.620940	 0.920081
C	 -1.917817	 -0.639439	 0.339494
H	 -0.758119	 -0.268455	 -1.433105
H	 -1.813832	 1.041889	 -0.986690
H	 -2.777680	 -1.057197	 -0.174994
H	 -1.310268	 -1.471279	 0.680599
H	 -2.283753	 -0.111424	 1.216626

	symmetry c1
}
set optking {
	frozen_dihedral = ("
		8 4 7 11,
		2 3 4 8
	")
}

ee = energy('scf')
oeprop('DIPOLE', 'QUADRUPOLE', 'MULLIKEN_CHARGES')
f=open( 'psi4out.xyz', 'w' )
f.write( "15  " )
f.write( str(ee) + "\n" )
f.write( MOL.save_string_xyz() )
f.close()
--------------------------------------------------------------------------

    Molecular point group: c1

    Geometry (in Angstrom), charge = 0, multiplicity = 1:

       Center              X                  Y                   Z               Mass
    ------------   -----------------  -----------------  -----------------  -----------------
           H          0.966977833870    -0.904465455182    -1.016443858126     1.007825032070
           O          1.672892833870    -0.630059455182    -0.448927858126    15.994914619560
           C          1.154661833870     0.114763544818     0.624311141874    12.000000000000
           C          0.050415833870     1.019476544818     0.100519141874    12.000000000000
           H          1.934536833870     0.725548544818     1.075560141874     1.007825032070
           H          0.773411833870    -0.546773455182     1.398984141874     1.007825032070
           C         -1.115950166130     0.289129544818    -0.573772858126    12.000000000000
           H          0.493242833870     1.710588544818    -0.611208858126     1.007825032070
           H         -0.319660166130     1.616807544818     0.932059141874     1.007825032070
           C         -1.898948166130    -0.643571455182     0.351472141874    12.000000000000
           H         -0.739250166130    -0.272587455182    -1.421126858126     1.007825032070
           H         -1.794963166130     1.037756544818    -0.974711858126     1.007825032070
           H         -2.758811166130    -1.061329455182    -0.163015858126     1.007825032070
           H         -1.291399166130    -1.475411455182     0.692577141874     1.007825032070
           H         -2.264884166130    -0.115556455182     1.228604141874     1.007825032070

  Charge       = 0
  Multiplicity = 1
  Basis Set: 6-31G*
  Basis Set:

    Orbital Energies (a.u.)
    -----------------------

    Doubly Occupied:

       1A    -20.548533     2A    -11.267303     3A    -11.229800
       4A    -11.219501     5A    -11.218581     6A     -1.358481
       7A     -1.075847     8A     -0.978140     9A     -0.884632
      10A     -0.789164    11A     -0.688297    12A     -0.650326
      13A     -0.626869    14A     -0.586022    15A     -0.576812
      16A     -0.552038    17A     -0.503125    18A     -0.487720
      19A     -0.483246    20A     -0.460484    21A     -0.427513

  @DF-RHF Final Energy:  -232.13887193215493

   => Energetics <=

    Nuclear Repulsion Energy =            193.2604621273374050
    One-Electron Energy =                -697.5737892944945315
    Two-Electron Energy =                 272.1744552350021991
    DFT Exchange-Correlation Energy =       0.0000000000000000
    Empirical Dispersion Energy =           0.0000000000000000
    PCM Polarization Energy =               0.0000000000000000
    EFP Energy =                            0.0000000000000000
    Total Energy =                       -232.1388719321549274

  Mulliken Charges: (a.u.)
   Center  Symbol    Alpha    Beta     Spin     Total
       1     H     0.27468  0.27468  0.00000  0.45064
       2     O     4.37776  4.37776  0.00000 -0.75552
       3     C     2.98928  2.98928  0.00000  0.02144
       4     C     3.17293  3.17293  0.00000 -0.34585
       5     H     0.41567  0.41567  0.00000  0.16866
       6     H     0.42876  0.42876  0.00000  0.14248
       7     C     3.16678  3.16678  0.00000 -0.33356
       8     H     0.41298  0.41298  0.00000  0.17404
       9     H     0.42279  0.42279  0.00000  0.15441
      10     C     3.24257  3.24257  0.00000 -0.48514
      11     H     0.43012  0.43012  0.00000  0.13976
      12     H     0.41277  0.41277  0.00000  0.17446
      13     H     0.41627  0.41627  0.00000  0.16747
      14     H     0.41798  0.41798  0.00000  0.16405
      15     H     0.41866  0.41866  0.00000  0.16268

   Total alpha = 21.00000, Total beta = 21.00000, Total charge =  0.00000
