  ==> Input File <==

--------------------------------------------------------------------------
set {
	reference rhf
	basis 6-31G*
}

set_num_threads( 4 )
memory 2 gb

molecule MOL {
0 1

O	 -2.042549	 -1.228399	 -0.269030
C	 -1.653912	 -0.146171	 0.050137
C	 -0.332303	 0.024011	 0.778412
C	 -2.438579	 1.106236	 -0.272369
C	 0.720398	 0.668223	 -0.137385
H	 -0.464495	 0.627914	 1.671838
H	 0.005100	 -0.960776	 1.082181
C	 2.077748	 0.830040	 0.548505
H	 0.369711	 1.642813	 -0.472462
H	 0.828358	 0.053928	 -1.026277
C	 3.128965	 1.462211	 -0.362817
H	 1.960813	 1.438416	 1.442726
H	 2.427542	 -0.143588	 0.883557
H	 2.822786	 2.452560	 -0.687649
H	 3.291229	 0.858583	 -1.250931
H	 4.081181	 1.561757	 0.148458
H	 -3.277823	 0.863061	 -0.908988
H	 -1.806773	 1.843019	 -0.759671
H	 -2.802853	 1.554979	 0.648059

	symmetry c1
}
set optking {
	frozen_dihedral = ("
		5 3 2 4
	")
}

ee = optimize('scf')
oeprop('DIPOLE', 'QUADRUPOLE', 'MULLIKEN_CHARGES')
f=open( 'psi4out.xyz', 'w' )
f.write( "19  " )
f.write( str(ee) + "\n" )
f.write( MOL.save_string_xyz() )
f.close()
--------------------------------------------------------------------------

    Molecular point group: c1
  Charge       = 0
  Multiplicity = 1
  Basis Set: 6-31G*
  Basis Set:
  @DF-RHF Final Energy:  -309.06410165300997
    Total Energy =                       -309.0641016530098568
    Molecular point group: c1
  Basis Set: 6-31G*
  Basis Set:
  Basis Set: 6-31G*
  Basis Set:
  @DF-RHF Final Energy:  -309.06439453658902
    Total Energy =                       -309.0643945365891909
  Basis Set: 6-31G*
  Basis Set:
  Basis Set: 6-31G*
  Basis Set:
  @DF-RHF Final Energy:  -309.06450856127856
    Total Energy =                       -309.0645085612783873
  Basis Set: 6-31G*
  Basis Set:
  Basis Set: 6-31G*
  Basis Set:
  @DF-RHF Final Energy:  -309.06451879133101
    Total Energy =                       -309.0645187913308405
  Basis Set: 6-31G*
  Basis Set:
  @DF-RHF Final Energy:  -309.06459198077852
    Total Energy =                       -309.0645919807783457
  @DF-RHF Final Energy:  -309.06461260091601
    Total Energy =                       -309.0646126009161208
  @DF-RHF Final Energy:  -309.06463542269000
    Total Energy =                       -309.0646354226900598
  @DF-RHF Final Energy:  -309.06464241385549
    Total Energy =                       -309.0646424138557222
  @DF-RHF Final Energy:  -309.06465633851684
    Total Energy =                       -309.0646563385167269
  Basis Set: 6-31G*
  Basis Set:
  @DF-RHF Final Energy:  -309.06467813026717
    Total Energy =                       -309.0646781302669979
  Basis Set: 6-31G*
  Basis Set:
  Basis Set: 6-31G*
  Basis Set:
  @DF-RHF Final Energy:  -309.06468394979822
    Total Energy =                       -309.0646839497978817
  Basis Set: 6-31G*
  Basis Set:
  Basis Set: 6-31G*
  Basis Set:
  @DF-RHF Final Energy:  -309.06468600117495
    Total Energy =                       -309.0646860011751187
  Basis Set: 6-31G*
  Basis Set:
  Charge       = 0
  Multiplicity = 1
  Basis Set: 6-31G*
  Basis Set:

    Orbital Energies (a.u.)
    -----------------------

    Doubly Occupied:

       1A    -20.548253     2A    -11.324385     3A    -11.233211
       4A    -11.229670     5A    -11.227432     6A    -11.226562
       7A    -11.216600     8A     -1.393329     9A     -1.093631
      10A     -1.029080    11A     -0.982536    12A     -0.892916
      13A     -0.809224    14A     -0.733284    15A     -0.664344
      16A     -0.645400    17A     -0.624785    18A     -0.613672
      19A     -0.581628    20A     -0.574938    21A     -0.554275
      22A     -0.534845    23A     -0.507145    24A     -0.505980
      25A     -0.484817    26A     -0.477332    27A     -0.470471
      28A     -0.397197

  @DF-RHF Final Energy:  -309.06468606404559

   => Energetics <=

    Nuclear Repulsion Energy =            301.0690967062760706
    One-Electron Energy =               -1015.1136766891312391
    Two-Electron Energy =                 404.9798939188096369
    DFT Exchange-Correlation Energy =       0.0000000000000000
    Empirical Dispersion Energy =           0.0000000000000000
    PCM Polarization Energy =               0.0000000000000000
    EFP Energy =                            0.0000000000000000
    Total Energy =                       -309.0646860640454747
    Molecular point group: c1
  Basis Set: 6-31G*
  Basis Set:

  -Total Gradient:
     Atom            X                  Y                   Z
    ------   -----------------  -----------------  -----------------
       1        0.000000610617     0.000004971458     0.000004753135
       2       -0.000104509686     0.000025748323     0.000166379852
       3        0.000092095097    -0.000144907112    -0.000108404276
       4        0.000057803579     0.000002810034    -0.000106587777
       5       -0.000046852974     0.000110594829     0.000042969960
       6        0.000002231374     0.000001127269    -0.000002002958
       7        0.000001079916    -0.000002874901     0.000000969415
       8        0.000002649395    -0.000004726517     0.000003263335
       9       -0.000007158586     0.000003549236    -0.000000713485
      10        0.000000357361     0.000001751677     0.000002481309
      11       -0.000001751254     0.000002286859     0.000000949260
      12        0.000005100826     0.000000846849     0.000000139446
      13       -0.000004861427    -0.000001474728     0.000000193309
      14       -0.000002231965    -0.000002919477    -0.000002998615
      15        0.000004624476    -0.000002853876     0.000000074565
      16       -0.000001176751     0.000002268865     0.000001082989
      17       -0.000001274407     0.000003492102     0.000000667539
      18        0.000003862917     0.000000576668    -0.000002331552
      19       -0.000000598506    -0.000000267553    -0.000000885454

  **** Optimization is complete! (in 13 steps) ****
    Final optimized geometry and variables:
    Molecular point group: c1

    Geometry (in Angstrom), charge = 0, multiplicity = 1:

    O           -1.968653634802    -1.635652494240    -0.305864559342
    C           -1.588962274791    -0.547160109548     0.002888601388
    C           -0.260754093320    -0.350492334219     0.711661898760
    C           -2.410165191589     0.686692526303    -0.312141036007
    C            0.801839711610     0.312270125142    -0.178806982387
    H           -0.416144323143     0.257214830723     1.600545979946
    H            0.078543767943    -1.329107825548     1.029082019542
    C            2.161327614961     0.414084177374     0.515343165253
    H            0.476374583469     1.307790198476    -0.470325920913
    H            0.907386958725    -0.262644342612    -1.095965501483
    C            3.226464730535     1.070677504718    -0.361744072176
    H            2.052427357971     0.979933666501     1.438025837262
    H            2.491897967384    -0.580876583609     0.803032561455
    H            2.939480320648     2.081146339029    -0.638687865937
    H            3.381264426004     0.508043993932    -1.277778253277
    H            4.178557065087     1.127827263182     0.156093969919
    H           -3.376462213836     0.387884808396    -0.693965157001
    H           -1.907554444429     1.293573580033    -1.059245704240
    H           -2.539018239657     1.303119847335     0.572206021202

  Mulliken Charges: (a.u.)
   Center  Symbol    Alpha    Beta     Spin     Total
       1     O     4.26004  4.26004  0.00000 -0.52009
       2     C     2.73585  2.73585  0.00000  0.52830
       3     C     3.20259  3.20259  0.00000 -0.40518
       4     C     3.28998  3.28998  0.00000 -0.57996
       5     C     3.16356  3.16356  0.00000 -0.32711
       6     H     0.41476  0.41476  0.00000  0.17048
       7     H     0.39950  0.39950  0.00000  0.20100
       8     C     3.15160  3.15160  0.00000 -0.30319
       9     H     0.41982  0.41982  0.00000  0.16035
      10     H     0.41211  0.41211  0.00000  0.17577
      11     C     3.24040  3.24040  0.00000 -0.48081
      12     H     0.42154  0.42154  0.00000  0.15692
      13     H     0.41820  0.41820  0.00000  0.16360
      14     H     0.42125  0.42125  0.00000  0.15750
      15     H     0.41931  0.41931  0.00000  0.16139
      16     H     0.41683  0.41683  0.00000  0.16635
      17     H     0.39624  0.39624  0.00000  0.20753
      18     H     0.40569  0.40569  0.00000  0.18861
      19     H     0.41074  0.41074  0.00000  0.17852

   Total alpha = 28.00000, Total beta = 28.00000, Total charge =  0.00000
