  ==> Input File <==

--------------------------------------------------------------------------
set {
	reference rhf
	basis 6-31G*
}

set_num_threads( 4 )
memory 2 gb

molecule MOL {
0 1

H	 2.433766	 -1.570011	 -0.923978
N	 1.449016	 -1.393322	 -0.944231
C	 1.191177	 0.029283	 -1.072392
C	 0.810145	 -1.944274	 0.236873
H	 1.670333	 0.393890	 -1.974745
H	 1.581442	 0.602369	 -0.228054
C	 -0.310155	 0.257310	 -1.164236
H	 1.013366	 -3.008875	 0.282662
H	 1.177332	 -1.490720	 1.160509
C	 -0.690951	 -1.715024	 0.144218
H	 -0.682723	 -0.188273	 -2.091462
H	 -0.513900	 1.322417	 -1.204009
N	 -0.975995	 -0.298722	 0.000000
H	 -1.169694	 -2.074271	 1.049366
H	 -1.089031	 -2.292747	 -0.695346
C	 -2.393863	 -0.024976	 0.000000
H	 -2.854032	 -0.467193	 -0.876721
H	 -2.854032	 -0.467193	 0.876721
H	 -2.623281	 1.044943	 0.000000

	symmetry c1
}
set optking {
	frozen_dihedral = ("
		7 13 16 19
	")
}

ee = optimize('scf')
oeprop('DIPOLE', 'QUADRUPOLE', 'MULLIKEN_CHARGES')
f=open( 'psi4out.xyz', 'w' )
f.write( "19  " )
f.write( str(ee) + "\n" )
f.write( MOL.save_string_xyz() )
f.close()
--------------------------------------------------------------------------

    Molecular point group: c1
  Charge       = 0
  Multiplicity = 1
  Basis Set: 6-31G*
  Basis Set:
  @DF-RHF Final Energy:  -305.19882776063281
    Total Energy =                       -305.1988277606326960
    Molecular point group: c1
  Basis Set: 6-31G*
  Basis Set:
  Basis Set: 6-31G*
  Basis Set:
  @DF-RHF Final Energy:  -305.19957179926394
    Total Energy =                       -305.1995717992639356
  Basis Set: 6-31G*
  Basis Set:
  Basis Set: 6-31G*
  Basis Set:
  @DF-RHF Final Energy:  -305.19968135966309
    Total Energy =                       -305.1996813596630886
  Basis Set: 6-31G*
  Basis Set:
  Charge       = 0
  Multiplicity = 1
  Basis Set: 6-31G*
  Basis Set:

    Orbital Energies (a.u.)
    -----------------------

    Doubly Occupied:

       1A    -15.541169     2A    -15.536660     3A    -11.238647
       4A    -11.238623     5A    -11.237194     6A    -11.237170
       7A    -11.234973     8A     -1.247549     9A     -1.185783
      10A     -1.022952    11A     -0.964617    12A     -0.860777
      13A     -0.857159    14A     -0.757254    15A     -0.691273
      16A     -0.633757    17A     -0.626626    18A     -0.608135
      19A     -0.603325    20A     -0.579682    21A     -0.543358
      22A     -0.529154    23A     -0.511696    24A     -0.490442
      25A     -0.466251    26A     -0.456964    27A     -0.363435
      28A     -0.345825

  @DF-RHF Final Energy:  -305.19968196754405

   => Energetics <=

    Nuclear Repulsion Energy =            339.8870044796286720
    One-Electron Energy =               -1086.9524757941703683
    Two-Electron Energy =                 441.8657893469978717
    DFT Exchange-Correlation Energy =       0.0000000000000000
    Empirical Dispersion Energy =           0.0000000000000000
    PCM Polarization Energy =               0.0000000000000000
    EFP Energy =                            0.0000000000000000
    Total Energy =                       -305.1996819675438246
    Molecular point group: c1
  Basis Set: 6-31G*
  Basis Set:

  -Total Gradient:
     Atom            X                  Y                   Z
    ------   -----------------  -----------------  -----------------
       1        0.000007355027     0.000005032511    -0.000012597384
       2        0.000030208868    -0.000012605681    -0.000023432480
       3       -0.000000696073    -0.000008285179    -0.000026272916
       4       -0.000016443257     0.000101985987     0.000006809127
       5        0.000009153927    -0.000007081404    -0.000001402390
       6       -0.000010643738    -0.000001553164    -0.000002155837
       7       -0.000098191147    -0.000298311680    -0.000155269429
       8       -0.000043589059     0.000018063011    -0.000001586880
       9        0.000013169241    -0.000004156898     0.000021294999
      10       -0.000100252012    -0.000044172157     0.000028529351
      11        0.000013231365    -0.000006891962     0.000015663314
      12        0.000009302760     0.000019257290    -0.000029497376
      13        0.000114414401     0.000442394990     0.000404892914
      14       -0.000013618669    -0.000020568636     0.000011376498
      15        0.000001386768     0.000016865069    -0.000007576446
      16        0.000002502977    -0.000187380137    -0.000784894497
      17        0.000015319352    -0.000009324958    -0.000005280885
      18        0.000035163073    -0.000011964268     0.000005901352
      19        0.000032226194     0.000008697267     0.000555498963

  **** Optimization is complete! (in 4 steps) ****
    Final optimized geometry and variables:
    Molecular point group: c1

    Geometry (in Angstrom), charge = 0, multiplicity = 1:

    H            2.578370735779    -0.834936993996    -0.517005282888
    N            1.593112207344    -0.661507466209    -0.539843995695
    C            1.330566613921     0.760228067503    -0.667925546659
    C            0.952306752067    -1.216001107472     0.638573538627
    H            1.809990476835     1.127003294686    -1.569303281029
    H            1.717341418688     1.334372536244     0.177265520840
    C           -0.171382997334     0.983051666811    -0.761892443710
    H            1.158508820065    -2.280070063156     0.683682292670
    H            1.315248274790    -0.762648244345     1.563994985179
    C           -0.549243657245    -0.991444961931     0.542265332559
    H           -0.540941561428     0.535566266358    -1.689310798484
    H           -0.378901475868     2.047476341850    -0.802870591013
    N           -0.837894277337     0.424747750830     0.401120544855
    H           -1.029186683656    -1.354856125115     1.445077238464
    H           -0.942741469186    -1.568157836511    -0.300099376316
    C           -2.256903940534     0.693524909727     0.393819076736
    H           -2.770270844565     0.262875646343    -0.471040196249
    H           -2.711277033034     0.287636187278     1.290848601241
    H           -2.428238485787     1.764428149908     0.391648542830

  Mulliken Charges: (a.u.)
   Center  Symbol    Alpha    Beta     Spin     Total
       1     H     0.32946  0.32946  0.00000  0.34107
       2     N     3.85426  3.85426  0.00000 -0.70851
       3     C     3.06342  3.06342  0.00000 -0.12683
       4     C     3.06347  3.06347  0.00000 -0.12695
       5     H     0.41758  0.41758  0.00000  0.16484
       6     H     0.42763  0.42763  0.00000  0.14473
       7     C     3.05516  3.05516  0.00000 -0.11033
       8     H     0.41760  0.41760  0.00000  0.16481
       9     H     0.42762  0.42762  0.00000  0.14477
      10     C     3.05514  3.05514  0.00000 -0.11028
      11     H     0.42790  0.42790  0.00000  0.14420
      12     H     0.41867  0.41867  0.00000  0.16265
      13     N     3.78775  3.78775  0.00000 -0.57549
      14     H     0.41866  0.41866  0.00000  0.16267
      15     H     0.42798  0.42798  0.00000  0.14404
      16     C     3.14016  3.14016  0.00000 -0.28032
      17     H     0.43331  0.43331  0.00000  0.13339
      18     H     0.41732  0.41732  0.00000  0.16537
      19     H     0.41691  0.41691  0.00000  0.16618

   Total alpha = 28.00000, Total beta = 28.00000, Total charge =  0.00000
