                              Psi4 1.0.54 Driver

  ==> Input File <==

--------------------------------------------------------------------------
set {
	reference rhf
	basis cc-pvtz
}

set_num_threads( 4 )
memory 2 gb

molecule MOL {
0 1

H	 2.987655	 -1.539737	 -0.716147
O	 2.824271	 -1.154299	 0.131461
C	 2.076458	 -0.067370	 -0.038225
C	 0.626018	 -0.337582	 0.258241
O	 2.538288	 0.965419	 -0.381593
C	 -0.267326	 0.883135	 0.076490
H	 0.325620	 -1.161483	 -0.378003
H	 0.574537	 -0.713685	 1.275261
C	 -1.726822	 0.642622	 0.463839
H	 -0.210803	 1.217591	 -0.953497
H	 0.129920	 1.693110	 0.675679
C	 -2.480891	 -0.340606	 -0.429852
H	 -2.243098	 1.597649	 0.438609
H	 -1.776542	 0.301208	 1.495542
C	 -3.955933	 -0.460128	 -0.060472
H	 -2.393755	 -0.020485	 -1.464726
H	 -2.024244	 -1.323637	 -0.374360
H	 -4.467673	 -1.160944	 -0.709827
H	 -4.458917	 0.497287	 -0.144505
H	 -4.076458	 -0.806900	 0.960497

	symmetry c1
}
set optking {
	frozen_dihedral = ("
		1 2 3 5
	")
}

ee,wfn = optimize('scf', return_wfn=True)
oeprop( wfn, 'DIPOLE', 'QUADRUPOLE', 'MULLIKEN_CHARGES')
f=open( 'psi4out.xyz', 'w' )
f.write( "20  " )
f.write( str(ee) + "\n" )
f.write( MOL.save_string_xyz() )
f.close()
--------------------------------------------------------------------------

    Molecular point group: c1
  Charge       = 0
  Multiplicity = 1
  Basis Set: CC-PVTZ
  Basis Set:
  @DF-RHF Final Energy:  -384.07478808436201
    Total Energy =                       -384.0747880843629218
    Molecular point group: c1
  Basis Set: CC-PVTZ
  Basis Set:
  Basis Set: CC-PVTZ
  Basis Set:
  @DF-RHF Final Energy:  -384.07425265086977
    Total Energy =                       -384.0742526508699939
  Basis Set: CC-PVTZ
  Basis Set:
  Basis Set: CC-PVTZ
  Basis Set:
  @DF-RHF Final Energy:  -384.07542105071497
    Total Energy =                       -384.0754210507147377
  Basis Set: CC-PVTZ
  Basis Set:
  Basis Set: CC-PVTZ
  Basis Set:
  @DF-RHF Final Energy:  -384.07643144516948
    Total Energy =                       -384.0764314451696464
  Basis Set: CC-PVTZ
  Basis Set:
  Basis Set: CC-PVTZ
  Basis Set:
  @DF-RHF Final Energy:  -384.07644126488503
    Total Energy =                       -384.0764412648854886
  Basis Set: CC-PVTZ
  Basis Set:
  Charge       = 0
  Multiplicity = 1
  Basis Set: CC-PVTZ
  Basis Set:

    Orbital Energies (a.u.)
    -----------------------

    Doubly Occupied:

       1A    -20.586178     2A    -20.550166     3A    -11.373986
       4A    -11.239977     5A    -11.222115     6A    -11.220470
       7A    -11.219626     8A    -11.212004     9A     -1.463464
      10A     -1.369868    11A     -1.098298    12A     -1.042013
      13A     -0.960577    14A     -0.867252    15A     -0.818464
      16A     -0.782035    17A     -0.712390    18A     -0.680583
      19A     -0.666343    20A     -0.633756    21A     -0.618679
      22A     -0.588828    23A     -0.561479    24A     -0.554710
      25A     -0.534728    26A     -0.509664    27A     -0.507226
      28A     -0.492165    29A     -0.471830    30A     -0.467870
      31A     -0.459671    32A     -0.446190

  @DF-RHF Final Energy:  -384.07644086809393

   => Energetics <=

    Nuclear Repulsion Energy =            375.8228847240727077
    One-Electron Energy =               -1267.9334363839607249
    Two-Electron Energy =                 508.0341107917939780
    DFT Exchange-Correlation Energy =       0.0000000000000000
    Empirical Dispersion Energy =           0.0000000000000000
    PCM Polarization Energy =               0.0000000000000000
    EFP Energy =                            0.0000000000000000
    Total Energy =                       -384.0764408680939823
    Molecular point group: c1
  Basis Set: CC-PVTZ
  Basis Set:

  -Total Gradient:
     Atom            X                  Y                   Z
    ------   -----------------  -----------------  -----------------
       1       -0.004388082396    -0.003260647220     0.000134031412
       2        0.005589614098     0.004759772529     0.001833836509
       3       -0.001592115300    -0.002840079150    -0.006523164685
       4        0.000020261653    -0.000039554308    -0.000074326970
       5        0.000361710332     0.001372264280     0.004567444316
       6        0.000025555661     0.000010753162     0.000079067175
       7       -0.000059484943    -0.000050850351    -0.000000772057
       8        0.000014708959     0.000003787804     0.000016718100
       9       -0.000015739676     0.000047601673    -0.000031587302
      10       -0.000013595675     0.000022642156    -0.000003468194
      11        0.000011018086    -0.000013206602     0.000012408103
      12        0.000022034250     0.000015870884    -0.000028710153
      13       -0.000016802392     0.000007688020    -0.000023034385
      14       -0.000010145094     0.000027102005     0.000017974689
      15        0.000007409351    -0.000026751102     0.000026304947
      16       -0.000011513466     0.000007048628     0.000009036534
      17        0.000063092636    -0.000037477650    -0.000014676676
      18       -0.000002651327    -0.000013722852    -0.000000423737
      19        0.000003574843     0.000008658279    -0.000007367491
      20       -0.000008849594    -0.000000900188     0.000010709863

  **** Optimization is complete! (in 6 steps) ****
    Final optimized geometry and variables:
    Molecular point group: c1

    Geometry (in Angstrom), charge = 0, multiplicity = 1:

    H            3.127077927692    -1.586728990227    -0.567877495603
    O            2.862976907627    -1.146425087702     0.223159698442
    C            2.079428843313    -0.066483565005    -0.038238413985
    C            0.624294981807    -0.323586951665     0.248429383343
    O            2.537349235269     0.960759563907    -0.376337628410
    C           -0.269011026210     0.895028184068     0.056343877428
    H            0.322034371311    -1.154013229581    -0.381136772132
    H            0.570390630661    -0.697251997279     1.266557472427
    C           -1.729944655182     0.658659327909     0.441273156644
    H           -0.209922044943     1.223764410427    -0.975664266001
    H            0.127679744616     1.708290768005     0.651568797879
    C           -2.479744232037    -0.336875170430    -0.442474281449
    H           -2.247138986505     1.612703759706     0.402004410629
    H           -1.782954881604     0.330434156239     1.477025133435
    C           -3.953378591583    -0.462712136322    -0.069220150880
    H           -2.396619539751    -0.025408672506    -1.480433270515
    H           -2.016830605456    -1.316663880053    -0.378974728725
    H           -4.461116634908    -1.175141452185    -0.709054853587
    H           -4.463389378943     0.489924270297    -0.164190935718
    H           -4.069767597146    -0.797701683478     0.956130721357

  Mulliken Charges: (a.u.)
   Center  Symbol    Alpha    Beta     Spin     Total
       1     H     0.38642  0.38642  0.00000  0.22716
       2     O     4.17748  4.17748  0.00000 -0.35496
       3     C     2.79881  2.79881  0.00000  0.40239
       4     C     3.11419  3.11419  0.00000 -0.22838
       5     O     4.16341  4.16341  0.00000 -0.32681
       6     C     3.09484  3.09484  0.00000 -0.18969
       7     H     0.44691  0.44691  0.00000  0.10618
       8     H     0.43618  0.43618  0.00000  0.12764
       9     C     3.09907  3.09907  0.00000 -0.19814
      10     H     0.44628  0.44628  0.00000  0.10744
      11     H     0.43818  0.43818  0.00000  0.12365
      12     C     3.08681  3.08681  0.00000 -0.17362
      13     H     0.44530  0.44530  0.00000  0.10940
      14     H     0.45329  0.45329  0.00000  0.09342
      15     C     3.14942  3.14942  0.00000 -0.29883
      16     H     0.45289  0.45289  0.00000  0.09422
      17     H     0.45484  0.45484  0.00000  0.09032
      18     H     0.44786  0.44786  0.00000  0.10428
      19     H     0.45331  0.45331  0.00000  0.09337
      20     H     0.45452  0.45452  0.00000  0.09097

   Total alpha = 32.00000, Total beta = 32.00000, Total charge = -0.00000

*** Psi4 exiting successfully. Buy a developer a beer!
