  ==> Input File <==

--------------------------------------------------------------------------
set {
	reference rhf
	basis 6-31G*
}

set_num_threads( 1 )
memory 2 gb

molecule MOL {
0 1

H	 4.807491	 3.055789	 -0.364784
C	 4.525422	 2.010279	 -0.441381
C	 3.133984	 1.769354	 0.142598
H	 4.560142	 1.734401	 -1.491156
H	 5.278319	 1.425413	 0.080038
C	 2.707543	 0.302185	 0.056719
H	 2.412949	 2.387007	 -0.382963
H	 3.121195	 2.087287	 1.183966
C	 1.325746	 0.026972	 0.650151
H	 2.716555	 -0.019166	 -0.978798
H	 3.434552	 -0.310584	 0.584936
C	 0.169600	 0.576866	 -0.172154
H	 1.166833	 -1.047454	 0.728420
H	 1.255978	 0.409067	 1.666179
C	 -1.181045	 0.701995	 0.511084
O	 0.307093	 0.883477	 -1.318231
C	 -2.285934	 -0.139295	 -0.145128
H	 -1.449051	 1.751551	 0.493206
H	 -1.071135	 0.403303	 1.551943
C	 -3.651768	 0.085446	 0.506485
H	 -2.346596	 0.110469	 -1.202272
H	 -2.034737	 -1.195320	 -0.088721
C	 -4.759797	 -0.746382	 -0.137905
H	 -3.908762	 1.140117	 0.445781
H	 -3.588286	 -0.154158	 1.565709
H	 -4.868882	 -0.505166	 -1.191300
H	 -4.548009	 -1.809175	 -0.062213
H	 -5.715422	 -0.564821	 0.343442

	symmetry c1
}
set optking {
	frozen_dihedral = ("
		10 6 3 2,
		12 15 17 21
	")
}

ee = energy('scf')
oeprop('DIPOLE', 'QUADRUPOLE', 'MULLIKEN_CHARGES')
f=open( 'psi4out.xyz', 'w' )
f.write( "28  " )
f.write( str(ee) + "\n" )
f.write( MOL.save_string_xyz() )
f.close()
--------------------------------------------------------------------------

    Molecular point group: c1

    Geometry (in Angstrom), charge = 0, multiplicity = 1:

       Center              X                  Y                   Z               Mass
    ------------   -----------------  -----------------  -----------------  -----------------
           H          4.779813284202     2.505974035466    -0.318803988314     1.007825032070
           C          4.497744284202     1.460464035466    -0.395400988314    12.000000000000
           C          3.106306284202     1.219539035466     0.188578011686    12.000000000000
           H          4.532464284202     1.184586035466    -1.445175988314     1.007825032070
           H          5.250641284202     0.875598035466     0.126018011686     1.007825032070
           C          2.679865284202    -0.247629964534     0.102699011686    12.000000000000
           H          2.385271284202     1.837192035466    -0.336982988314     1.007825032070
           H          3.093517284202     1.537472035466     1.229946011686     1.007825032070
           C          1.298068284202    -0.522842964534     0.696131011686    12.000000000000
           H          2.688877284202    -0.568980964534    -0.932817988314     1.007825032070
           H          3.406874284202    -0.860398964534     0.630916011686     1.007825032070
           C          0.141922284202     0.027051035466    -0.126173988314    12.000000000000
           H          1.139155284202    -1.597268964534     0.774400011686     1.007825032070
           H          1.228300284202    -0.140747964534     1.712159011686     1.007825032070
           C         -1.208722715798     0.152180035466     0.557064011686    12.000000000000
           O          0.279415284202     0.333662035466    -1.272250988314    15.994914619560
           C         -2.313611715798    -0.689109964534    -0.099147988314    12.000000000000
           H         -1.476728715798     1.201736035466     0.539186011686     1.007825032070
           H         -1.098812715798    -0.146511964534     1.597923011686     1.007825032070
           C         -3.679445715798    -0.464368964534     0.552465011686    12.000000000000
           H         -2.374273715798    -0.439345964534    -1.156291988314     1.007825032070
           H         -2.062414715798    -1.745134964534    -0.042740988314     1.007825032070
           C         -4.787474715798    -1.296196964534    -0.091924988314    12.000000000000
           H         -3.936439715798     0.590302035466     0.491761011686     1.007825032070
           H         -3.615963715798    -0.703972964534     1.611689011686     1.007825032070
           H         -4.896559715798    -1.054980964534    -1.145319988314     1.007825032070
           H         -4.575686715798    -2.358989964534    -0.016232988314     1.007825032070
           H         -5.743099715798    -1.114635964534     0.389422011686     1.007825032070

  Charge       = 0
  Multiplicity = 1
  Basis Set: 6-31G*
  Basis Set:

    Orbital Energies (a.u.)
    -----------------------

    Doubly Occupied:

       1A    -20.547255     2A    -11.322940     3A    -11.230511
       4A    -11.229583     5A    -11.226032     6A    -11.222242
       7A    -11.216221     8A    -11.212990     9A    -11.212449
      10A    -11.205797    11A     -1.393342    12A     -1.090014
      13A     -1.077715    14A     -1.021607    15A     -0.990977
      16A     -0.909516    17A     -0.868596    18A     -0.807101
      19A     -0.795109    20A     -0.723637    21A     -0.669378
      22A     -0.650805    23A     -0.625061    24A     -0.619517
      25A     -0.608487    26A     -0.588375    27A     -0.576512
      28A     -0.572367    29A     -0.539921    30A     -0.531224
      31A     -0.522057    32A     -0.509961    33A     -0.494518
      34A     -0.479563    35A     -0.475825    36A     -0.473257
      37A     -0.469033    38A     -0.465389    39A     -0.454891
      40A     -0.392095

  @DF-RHF Final Energy:  -426.16896148205365

   => Energetics <=

    Nuclear Repulsion Energy =            528.8206174445045917
    One-Electron Energy =               -1625.9355299239609849
    Two-Electron Energy =                 670.9459509974035427
    DFT Exchange-Correlation Energy =       0.0000000000000000
    Empirical Dispersion Energy =           0.0000000000000000
    PCM Polarization Energy =               0.0000000000000000
    EFP Energy =                            0.0000000000000000
    Total Energy =                       -426.1689614820529641

  Mulliken Charges: (a.u.)
   Center  Symbol    Alpha    Beta     Spin     Total
       1     H     0.41939  0.41939  0.00000  0.16122
       2     C     3.24006  3.24006  0.00000 -0.48013
       3     C     3.15627  3.15627  0.00000 -0.31254
       4     H     0.41831  0.41831  0.00000  0.16338
       5     H     0.42356  0.42356  0.00000  0.15288
       6     C     3.14977  3.14977  0.00000 -0.29954
       7     H     0.41064  0.41064  0.00000  0.17871
       8     H     0.42755  0.42755  0.00000  0.14490
       9     C     3.21284  3.21284  0.00000 -0.42567
      10     H     0.40658  0.40658  0.00000  0.18683
      11     H     0.42192  0.42192  0.00000  0.15616
      12     C     2.73323  2.73323  0.00000  0.53355
      13     H     0.40394  0.40394  0.00000  0.19213
      14     H     0.41179  0.41179  0.00000  0.17641
      15     C     3.19980  3.19980  0.00000 -0.39959
      16     O     4.26941  4.26941  0.00000 -0.53882
      17     C     3.15605  3.15605  0.00000 -0.31210
      18     H     0.40167  0.40167  0.00000  0.19666
      19     H     0.41667  0.41667  0.00000  0.16666
      20     C     3.15276  3.15276  0.00000 -0.30553
      21     H     0.40533  0.40533  0.00000  0.18934
      22     H     0.42054  0.42054  0.00000  0.15891
      23     C     3.24009  3.24009  0.00000 -0.48019
      24     H     0.42051  0.42051  0.00000  0.15899
      25     H     0.42318  0.42318  0.00000  0.15364
      26     H     0.41893  0.41893  0.00000  0.16213
      27     H     0.42118  0.42118  0.00000  0.15764
      28     H     0.41802  0.41802  0.00000  0.16397

   Total alpha = 40.00000, Total beta = 40.00000, Total charge = -0.00000
