  ==> Input File <==

--------------------------------------------------------------------------
set {
	reference rhf
	basis 6-31G*
}

set_num_threads( 1 )
memory 2 gb

molecule MOL {
0 1

O	 -2.042549	 -1.228399	 -0.269030
C	 -1.653912	 -0.146171	 0.050137
C	 -0.332303	 0.024011	 0.778412
C	 -2.438579	 1.106236	 -0.272369
C	 0.845713	 -0.001731	 -0.208243
H	 -0.323783	 0.953829	 1.340327
H	 -0.235459	 -0.796807	 1.480410
C	 1.388900	 1.395005	 -0.513378
H	 0.536985	 -0.477136	 -1.137630
H	 1.634369	 -0.619750	 0.210343
C	 2.566203	 1.371672	 -1.487349
H	 0.591840	 2.011336	 -0.923568
H	 1.696729	 1.869827	 0.415252
H	 2.280102	 0.932726	 -2.438940
H	 3.391929	 0.789073	 -1.089608
H	 2.932360	 2.374558	 -1.682737
H	 -3.277823	 0.863061	 -0.908988
H	 -1.806773	 1.843019	 -0.759671
H	 -2.802853	 1.554979	 0.648059

	symmetry c1
}
set optking {
	frozen_dihedral = ("
		11 8 5 9,
		5 3 2 4
	")
}

ee = energy('scf')
oeprop('DIPOLE', 'QUADRUPOLE', 'MULLIKEN_CHARGES')
f=open( 'psi4out.xyz', 'w' )
f.write( "19  " )
f.write( str(ee) + "\n" )
f.write( MOL.save_string_xyz() )
f.close()
--------------------------------------------------------------------------

    Molecular point group: c1

    Geometry (in Angstrom), charge = 0, multiplicity = 1:

       Center              X                  Y                   Z               Mass
    ------------   -----------------  -----------------  -----------------  -----------------
           O         -1.807713800760    -1.595345643157     0.020925164929    15.994914619560
           C         -1.419076800760    -0.513117643157     0.340092164929    12.000000000000
           C         -0.097467800760    -0.342935643157     1.068367164929    12.000000000000
           C         -2.203743800760     0.739289356843     0.017586164929    12.000000000000
           C          1.080548199240    -0.368677643157     0.081712164929    12.000000000000
           H         -0.088947800760     0.586882356843     1.630282164929     1.007825032070
           H         -0.000623800760    -1.163753643157     1.770365164929     1.007825032070
           C          1.623735199240     1.028058356843    -0.223422835071    12.000000000000
           H          0.771820199240    -0.844082643157    -0.847674835071     1.007825032070
           H          1.869204199240    -0.986696643157     0.500298164929     1.007825032070
           C          2.801038199240     1.004725356843    -1.197393835071    12.000000000000
           H          0.826675199240     1.644389356843    -0.633612835071     1.007825032070
           H          1.931564199240     1.502880356843     0.705207164929     1.007825032070
           H          2.514937199240     0.565779356843    -2.148984835071     1.007825032070
           H          3.626764199240     0.422126356843    -0.799652835071     1.007825032070
           H          3.167195199240     2.007611356843    -1.392781835071     1.007825032070
           H         -3.042987800760     0.496114356843    -0.619032835071     1.007825032070
           H         -1.571937800760     1.476072356843    -0.469715835071     1.007825032070
           H         -2.568017800760     1.188032356843     0.938014164929     1.007825032070

  Charge       = 0
  Multiplicity = 1
  Basis Set: 6-31G*
  Basis Set:

    Orbital Energies (a.u.)
    -----------------------

    Doubly Occupied:

       1A    -20.546598     2A    -11.324407     3A    -11.229477
       4A    -11.228269     5A    -11.228143     6A    -11.226813
       7A    -11.215950     8A     -1.392776     9A     -1.093069
      10A     -1.027993    11A     -0.985106    12A     -0.890328
      13A     -0.809528    14A     -0.734452    15A     -0.662646
      16A     -0.642777    17A     -0.622294    18A     -0.610035
      19A     -0.585562    20A     -0.575929    21A     -0.560852
      22A     -0.527885    23A     -0.519933    24A     -0.506206
      25A     -0.481506    26A     -0.473846    27A     -0.460738
      28A     -0.397162

  @DF-RHF Final Energy:  -309.05975580449348

   => Energetics <=

    Nuclear Repulsion Energy =            305.6570934112542659
    One-Electron Energy =               -1024.3129476157068893
    Two-Electron Energy =                 409.5960983999588620
    DFT Exchange-Correlation Energy =       0.0000000000000000
    Empirical Dispersion Energy =           0.0000000000000000
    PCM Polarization Energy =               0.0000000000000000
    EFP Energy =                            0.0000000000000000
    Total Energy =                       -309.0597558044938182

  Mulliken Charges: (a.u.)
   Center  Symbol    Alpha    Beta     Spin     Total
       1     O     4.26190  4.26190  0.00000 -0.52380
       2     C     2.73981  2.73981  0.00000  0.52039
       3     C     3.20241  3.20241  0.00000 -0.40483
       4     C     3.29064  3.29064  0.00000 -0.58127
       5     C     3.16162  3.16162  0.00000 -0.32324
       6     H     0.41488  0.41488  0.00000  0.17024
       7     H     0.39843  0.39843  0.00000  0.20314
       8     C     3.15597  3.15597  0.00000 -0.31194
       9     H     0.40795  0.40795  0.00000  0.18409
      10     H     0.41242  0.41242  0.00000  0.17516
      11     C     3.24044  3.24044  0.00000 -0.48088
      12     H     0.42344  0.42344  0.00000  0.15312
      13     H     0.42063  0.42063  0.00000  0.15875
      14     H     0.41929  0.41929  0.00000  0.16142
      15     H     0.41958  0.41958  0.00000  0.16083
      16     H     0.41778  0.41778  0.00000  0.16443
      17     H     0.39724  0.39724  0.00000  0.20553
      18     H     0.40904  0.40904  0.00000  0.18193
      19     H     0.40654  0.40654  0.00000  0.18692

   Total alpha = 28.00000, Total beta = 28.00000, Total charge = -0.00000
