  ==> Input File <==

--------------------------------------------------------------------------
set {
	reference rhf
	basis cc-pvtz
}

set_num_threads( 4 )
memory 2 gb

molecule MOL {
0 1

O	 -2.276000	 -0.969000	 -0.445000
N	 -1.757000	 0.006000	 0.004000
C	 -0.478000	 -0.175000	 0.736000
O	 -2.161000	 1.122000	 -0.115000
C	 0.690000	 0.053000	 -0.221000
H	 -0.494000	 -1.181000	 1.125000
H	 -0.488000	 0.547000	 1.537000
C	 2.035000	 -0.128000	 0.487000
H	 0.608000	 -0.646000	 -1.047000
H	 0.616000	 1.054000	 -0.631000
C	 3.219000	 0.096000	 -0.452000
H	 2.091000	 -1.129000	 0.908000
H	 2.100000	 0.564000	 1.323000
H	 3.199000	 -0.605000	 -1.282000
H	 3.208000	 1.100000	 -0.864000
H	 4.160000	 -0.038000	 0.072000

	symmetry c1
}
ee = optimize('scf')
oeprop('DIPOLE', 'QUADRUPOLE', 'MULLIKEN_CHARGES')
f=open( 'psi4out.xyz', 'w' )
f.write( "16  " )
f.write( str(ee) + "\n" )
f.write( MOL.save_string_xyz() )
f.close()
--------------------------------------------------------------------------

    Molecular point group: c1
  Charge       = 0
  Multiplicity = 1
  Basis Set: CC-PVTZ
  Basis Set:
  @DF-RHF Final Energy:  -360.90928792810445
    Total Energy =                       -360.9092879281045612
    Molecular point group: c1
  Basis Set: CC-PVTZ
  Basis Set:
  Basis Set: CC-PVTZ
  Basis Set:
  @DF-RHF Final Energy:  -360.89849654819312
    Total Energy =                       -360.8984965481929521
  Basis Set: CC-PVTZ
  Basis Set:
  Basis Set: CC-PVTZ
  Basis Set:
  @DF-RHF Final Energy:  -360.90728068175326
    Total Energy =                       -360.9072806817536616
  Basis Set: CC-PVTZ
  Basis Set:
  Basis Set: CC-PVTZ
  Basis Set:
  @DF-RHF Final Energy:  -360.90952528636160
    Total Energy =                       -360.9095252863609176
  Basis Set: CC-PVTZ
  Basis Set:
  Basis Set: CC-PVTZ
  Basis Set:
  @DF-RHF Final Energy:  -360.90953180995859
    Total Energy =                       -360.9095318099586507
  Basis Set: CC-PVTZ
  Basis Set:
  Basis Set: CC-PVTZ
  Basis Set:
  @DF-RHF Final Energy:  -360.90953406013421
    Total Energy =                       -360.9095340601342059
  Basis Set: CC-PVTZ
  Basis Set:
  Charge       = 0
  Multiplicity = 1
  Basis Set: CC-PVTZ
  Basis Set:

    Orbital Energies (a.u.)
    -----------------------

    Doubly Occupied:

       1A    -20.589657     2A    -20.589601     3A    -15.836195
       4A    -11.296252     5A    -11.250717     6A    -11.241912
       7A    -11.225931     8A     -1.635247     9A     -1.419546
      10A     -1.136693    11A     -1.060191    12A     -0.948768
      13A     -0.843373    14A     -0.829318    15A     -0.757721
      16A     -0.737944    17A     -0.728023    18A     -0.679603
      19A     -0.615701    20A     -0.607961    21A     -0.567867
      22A     -0.542217    23A     -0.517348    24A     -0.504224
      25A     -0.496865    26A     -0.486069    27A     -0.469951
      28A     -0.452182

  @DF-RHF Final Energy:  -360.90953381456598

   => Energetics <=

    Nuclear Repulsion Energy =            313.0230514968466196
    One-Electron Energy =               -1111.7310194602175670
    Two-Electron Energy =                 437.7984341488049722
    DFT Exchange-Correlation Energy =       0.0000000000000000
    Empirical Dispersion Energy =           0.0000000000000000
    PCM Polarization Energy =               0.0000000000000000
    EFP Energy =                            0.0000000000000000
    Total Energy =                       -360.9095338145659753
    Molecular point group: c1
  Basis Set: CC-PVTZ
  Basis Set:

  -Total Gradient:
     Atom            X                  Y                   Z
    ------   -----------------  -----------------  -----------------
       1        0.000107985680     0.000136009972     0.000081086888
       2       -0.000119465726    -0.000049730043    -0.000048119476
       3        0.000026809743     0.000075373959     0.000029696995
       4        0.000019494916    -0.000050209704    -0.000018601982
       5       -0.000012213616    -0.000070346164    -0.000012933382
       6        0.000000722173    -0.000024641885    -0.000017525440
       7       -0.000013373709    -0.000030043594    -0.000009334889
       8        0.000002513795    -0.000003157000    -0.000011600057
       9        0.000001994911     0.000000218150     0.000027315333
      10        0.000001318930     0.000013015623    -0.000022084843
      11       -0.000008106659     0.000022066301     0.000008424954
      12        0.000005315940    -0.000013094133    -0.000017279481
      13       -0.000009723089    -0.000016263473     0.000002508553
      14       -0.000001524012    -0.000001735473     0.000012924824
      15        0.000000555219     0.000002224928    -0.000008206436
      16       -0.000002304489     0.000010312535     0.000003728441

  **** Optimization is complete! (in 7 steps) ****
    Final optimized geometry and variables:
    Molecular point group: c1

    Geometry (in Angstrom), charge = 0, multiplicity = 1:

    O           -2.081319139112    -0.951530021508    -0.502732136445
    N           -1.613558626122     0.006676149933     0.014755412798
    C           -0.329345561766    -0.171617249348     0.743965323041
    O           -2.068523029973     1.100481887981    -0.024385412492
    C            0.835903725210     0.041968658144    -0.213982836097
    H           -0.346048358598    -1.174373253408     1.137183685392
    H           -0.333613530428     0.555559710806     1.538589356605
    C            2.177039040390    -0.130174653361     0.494459615328
    H            0.754455866614    -0.665922282701    -1.030569545268
    H            0.765463951521     1.037260744948    -0.637266208117
    C            3.361285782414     0.085640043437    -0.441202377069
    H            2.232896682114    -1.125819368832     0.924585384896
    H            2.239537934668     0.568390576986     1.323620731534
    H            3.343918560732    -0.621504310727    -1.262994362127
    H            3.349289559719     1.084580732378    -0.862736077229
    H            4.299068622898    -0.040937992285     0.085772692439

  Mulliken Charges: (a.u.)
   Center  Symbol    Alpha    Beta     Spin     Total
       1     O     4.17413  4.17413  0.00000 -0.34826
       2     N     3.27558  3.27558  0.00000  0.44884
       3     C     3.04017  3.04017  0.00000 -0.08033
       4     O     4.17414  4.17414  0.00000 -0.34828
       5     C     3.10123  3.10123  0.00000 -0.20247
       6     H     0.43394  0.43394  0.00000  0.13212
       7     H     0.43391  0.43391  0.00000  0.13218
       8     C     3.09350  3.09350  0.00000 -0.18701
       9     H     0.43783  0.43783  0.00000  0.12434
      10     H     0.43793  0.43793  0.00000  0.12415
      11     C     3.14827  3.14827  0.00000 -0.29654
      12     H     0.45033  0.45033  0.00000  0.09935
      13     H     0.45042  0.45042  0.00000  0.09917
      14     H     0.45171  0.45171  0.00000  0.09657
      15     H     0.45173  0.45173  0.00000  0.09653
      16     H     0.44518  0.44518  0.00000  0.10964

   Total alpha = 28.00000, Total beta = 28.00000, Total charge = -0.00000
