                              Psi4 1.0.54 Driver

  ==> Input File <==

--------------------------------------------------------------------------
set {
	reference rhf
	basis cc-pvtz
}

set_num_threads( 4 )
memory 2 gb

molecule MOL {
0 1

O	 1.134918	 1.199635	 0.496105
C	 1.121787	 0.124983	 0.000110
C	 -0.055836	 -0.500617	 -0.702237
O	 2.167739	 -0.685178	 -0.000678
C	 -1.292723	 0.385408	 -0.733775
H	 0.268743	 -0.758291	 -1.705099
H	 -0.260672	 -1.444016	 -0.206755
C	 -2.464483	 -0.277619	 -1.451885
H	 -1.048605	 1.324060	 -1.218420
H	 -1.578945	 0.637180	 0.281228
C	 -3.708816	 0.602706	 -1.491309
H	 -2.170586	 -0.530546	 -2.467214
H	 -2.704350	 -1.217638	 -0.961920
H	 -3.510325	 1.536682	 -2.005967
H	 -4.523510	 0.107174	 -2.006477
H	 -4.048048	 0.844508	 -0.489793
C	 3.449556	 -0.089977	 -0.000570
H	 3.585694	 0.522473	 -0.879546
H	 4.155805	 -0.904274	 -0.001389
H	 3.586173	 0.521118	 0.879272

	symmetry c1
}
set optking {
	frozen_dihedral = ("
		1 2 4 17
	")
}

ee,wfn = optimize('scf', return_wfn=True)
oeprop( wfn, 'DIPOLE', 'QUADRUPOLE', 'MULLIKEN_CHARGES')
f=open( 'psi4out.xyz', 'w' )
f.write( "20  " )
f.write( str(ee) + "\n" )
f.write( MOL.save_string_xyz() )
f.close()
--------------------------------------------------------------------------

    Molecular point group: c1
  Charge       = 0
  Multiplicity = 1
  Basis Set: CC-PVTZ
  Basis Set:
  @DF-RHF Final Energy:  -384.07823956089612
    Total Energy =                       -384.0782395608963498
    Molecular point group: c1
  Basis Set: CC-PVTZ
  Basis Set:
  Basis Set: CC-PVTZ
  Basis Set:
  @DF-RHF Final Energy:  -384.07350839487077
    Total Energy =                       -384.0735083948707143
  Basis Set: CC-PVTZ
  Basis Set:
  Basis Set: CC-PVTZ
  Basis Set:
  @DF-RHF Final Energy:  -384.07853401522550
    Total Energy =                       -384.0785340152257277
  Basis Set: CC-PVTZ
  Basis Set:
  Basis Set: CC-PVTZ
  Basis Set:
  @DF-RHF Final Energy:  -384.07872056222686
    Total Energy =                       -384.0787205622276588
  Basis Set: CC-PVTZ
  Basis Set:
  @DF-RHF Final Energy:  -384.07874482797541
    Total Energy =                       -384.0787448279753562
  @DF-RHF Final Energy:  -384.07875391626169
    Total Energy =                       -384.0787539162615758
  @DF-RHF Final Energy:  -384.07875628771347
    Total Energy =                       -384.0787562877133041
  @DF-RHF Final Energy:  -384.07867899396336
    Total Energy =                       -384.0786789939636492
  @DF-RHF Final Energy:  -384.05082081536978
    Total Energy =                       -384.0508208153695477
  @DF-RHF Final Energy:  -384.07862827520319
    Total Energy =                       -384.0786282752033003
  @DF-RHF Final Energy:  -384.07874186790826
    Total Energy =                       -384.0787418679083203
  @DF-RHF Final Energy:  -384.07875317317780
    Total Energy =                       -384.0787531731776880
  @DF-RHF Final Energy:  -384.07875503510758
    Total Energy =                       -384.0787550351072923
  @DF-RHF Final Energy:  -384.07875517510297
    Total Energy =                       -384.0787551751029696
  @DF-RHF Final Energy:  -384.07875294105799
    Total Energy =                       -384.0787529410577008
  @DF-RHF Final Energy:  -384.07875529880693
    Total Energy =                       -384.0787552988068683
  Basis Set: CC-PVTZ
  Basis Set:
  @DF-RHF Final Energy:  -384.07872493287505
    Total Energy =                       -384.0787249328749340
  Basis Set: CC-PVTZ
  Basis Set:
  Basis Set: CC-PVTZ
  Basis Set:
  @DF-RHF Final Energy:  -384.07875561820180
    Total Energy =                       -384.0787556182018534
  Basis Set: CC-PVTZ
  Basis Set:
  Basis Set: CC-PVTZ
  Basis Set:
  @DF-RHF Final Energy:  -384.07875579347882
    Total Energy =                       -384.0787557934791039
  Basis Set: CC-PVTZ
  Basis Set:
  Charge       = 0
  Multiplicity = 1
  Basis Set: CC-PVTZ
  Basis Set:

    Orbital Energies (a.u.)
    -----------------------

    Doubly Occupied:

       1A    -20.592050     2A    -20.536540     3A    -11.365539
       4A    -11.280588     5A    -11.234403     6A    -11.218742
       7A    -11.217597     8A    -11.208973     9A     -1.469199
      10A     -1.366625    11A     -1.090093    12A     -1.024525
      13A     -0.969805    14A     -0.888132    15A     -0.805112
      16A     -0.768790    17A     -0.698592    18A     -0.684246
      19A     -0.676008    20A     -0.646536    21A     -0.601997
      22A     -0.593170    23A     -0.581184    24A     -0.544489
      25A     -0.536387    26A     -0.522468    27A     -0.502321
      28A     -0.480062    29A     -0.475918    30A     -0.471117
      31A     -0.458161    32A     -0.438549

  @DF-RHF Final Energy:  -384.07875581401248

   => Energetics <=

    Nuclear Repulsion Energy =            381.4306591583115846
    One-Electron Energy =               -1279.1229903390787968
    Two-Electron Energy =                 513.6135753667546169
    DFT Exchange-Correlation Energy =       0.0000000000000000
    Empirical Dispersion Energy =           0.0000000000000000
    PCM Polarization Energy =               0.0000000000000000
    EFP Energy =                            0.0000000000000000
    Total Energy =                       -384.0787558140126521
    Molecular point group: c1
  Basis Set: CC-PVTZ
  Basis Set:

  -Total Gradient:
     Atom            X                  Y                   Z
    ------   -----------------  -----------------  -----------------
       1       -0.003042579119    -0.001267757599     0.007501768649
       2        0.004382882472     0.001201189483    -0.014074537041
       3        0.000038517665     0.000107889912    -0.000198820003
       4       -0.001527279966     0.001473321151     0.013254708669
       5       -0.000014745267    -0.000005115689     0.000013429395
       6        0.000003253101    -0.000013394745    -0.000005815380
       7       -0.000004510606     0.000008973128     0.000008454230
       8        0.000006850336     0.000001513960    -0.000002949821
       9        0.000006417650    -0.000003691435    -0.000004270264
      10       -0.000003735234     0.000003484508     0.000000996024
      11       -0.000007310489    -0.000001008202     0.000001619770
      12       -0.000001614888     0.000003294296    -0.000000838063
      13        0.000000253798    -0.000004082942     0.000001129555
      14       -0.000001120912     0.000002008244    -0.000003623994
      15       -0.000000900162     0.000000996854     0.000002003627
      16        0.000001021276    -0.000000083071     0.000000289905
      17        0.000130152391    -0.001533945113    -0.006481218106
      18        0.000011078853     0.000024508677    -0.000046459073
      19        0.000020322133    -0.000034627148     0.000001372421
      20        0.000003046966     0.000036525730     0.000032759503

  **** Optimization is complete! (in 20 steps) ****
    Final optimized geometry and variables:
    Molecular point group: c1

    Geometry (in Angstrom), charge = 0, multiplicity = 1:

    O            1.169055038295     1.238374403116     0.589974621242
    C            1.080158060882     0.084553561422     0.348419812394
    C           -0.154016877084    -0.604989729760    -0.171172218738
    O            2.062236183279    -0.782035087402     0.574933745732
    C           -1.379251802992     0.294348371061    -0.245040536397
    H            0.097904815485    -1.003752107039    -1.149751059075
    H           -0.332152523350    -1.468434031004     0.460512784654
    C           -2.605555768520    -0.435802475887    -0.784891583586
    H           -1.156914415502     1.151851426445    -0.869674150561
    H           -1.592861788474     0.689181000059     0.742308283012
    C           -3.839644104361     0.456506277276    -0.860954197530
    H           -2.385559457396    -0.830265033465    -1.773501478107
    H           -2.821451775794    -1.295421581667    -0.155932746572
    H           -3.666814905627     1.307594093892    -1.510848173464
    H           -4.693639337888    -0.087536622392    -1.247429516054
    H           -4.105914813878     0.839091043396     0.118485234696
    C            3.387558065425    -0.296655728913     0.494338081856
    H            3.561002695658     0.164217328822    -0.468539787794
    H            4.029362190318    -1.154823050028     0.610842133843
    H            3.586030434775     0.423562430928     1.273591196583

  Mulliken Charges: (a.u.)
   Center  Symbol    Alpha    Beta     Spin     Total
       1     O     4.19106  4.19106  0.00000 -0.38211
       2     C     2.80441  2.80441  0.00000  0.39118
       3     C     3.10136  3.10136  0.00000 -0.20273
       4     O     4.15153  4.15153  0.00000 -0.30307
       5     C     3.08246  3.08246  0.00000 -0.16492
       6     H     0.44371  0.44371  0.00000  0.11259
       7     H     0.43804  0.43804  0.00000  0.12392
       8     C     3.08647  3.08647  0.00000 -0.17293
       9     H     0.44570  0.44570  0.00000  0.10860
      10     H     0.44741  0.44741  0.00000  0.10518
      11     C     3.14924  3.14924  0.00000 -0.29847
      12     H     0.45543  0.45543  0.00000  0.08914
      13     H     0.45499  0.45499  0.00000  0.09001
      14     H     0.45387  0.45387  0.00000  0.09226
      15     H     0.44835  0.44835  0.00000  0.10330
      16     H     0.45379  0.45379  0.00000  0.09241
      17     C     3.03731  3.03731  0.00000 -0.07462
      18     H     0.46099  0.46099  0.00000  0.07801
      19     H     0.44525  0.44525  0.00000  0.10949
      20     H     0.44862  0.44862  0.00000  0.10276

   Total alpha = 32.00000, Total beta = 32.00000, Total charge =  0.00000

*** Psi4 exiting successfully. Buy a developer a beer!
