  ==> Input File <==

--------------------------------------------------------------------------
set {
	reference rhf
	basis 6-31G*
}

set_num_threads( 4 )
memory 2 gb

molecule MOL {
0 1

H	 -2.324552	 -0.811305	 0.870334
O	 -2.347518	 -0.290803	 0.079804
C	 -1.184022	 0.487508	 -0.006784
C	 0.062599	 -0.378592	 0.031606
H	 -1.176523	 1.099369	 -0.904519
H	 -1.187323	 1.153111	 0.844927
O	 1.171513	 0.459272	 -0.058250
H	 0.050699	 -1.089204	 -0.797170
H	 0.078739	 -0.954914	 0.954740
C	 2.397842	 -0.198080	 -0.002151
H	 2.508049	 -0.905315	 -0.822092
H	 3.173794	 0.550865	 -0.078850
H	 2.517602	 -0.735921	 0.936026

	symmetry c1
}
set optking {
	frozen_dihedral = ("
		1 2 3 5
	")
}

ee = optimize('scf')
oeprop('DIPOLE', 'QUADRUPOLE', 'MULLIKEN_CHARGES')
f=open( 'psi4out.xyz', 'w' )
f.write( "13  " )
f.write( str(ee) + "\n" )
f.write( MOL.save_string_xyz() )
f.close()
--------------------------------------------------------------------------

    Molecular point group: c1
  Charge       = 0
  Multiplicity = 1
  Basis Set: 6-31G*
  Basis Set:
  @DF-RHF Final Energy:  -267.94832136638286
    Total Energy =                       -267.9483213663826291
    Molecular point group: c1
  Basis Set: 6-31G*
  Basis Set:
  Basis Set: 6-31G*
  Basis Set:
  @DF-RHF Final Energy:  -267.94993201485499
    Total Energy =                       -267.9499320148551078
  Basis Set: 6-31G*
  Basis Set:
  Basis Set: 6-31G*
  Basis Set:
  @DF-RHF Final Energy:  -267.95032790286274
    Total Energy =                       -267.9503279028625684
  Basis Set: 6-31G*
  Basis Set:
  Basis Set: 6-31G*
  Basis Set:
  @DF-RHF Final Energy:  -267.95033548569575
    Total Energy =                       -267.9503354856958026
  Basis Set: 6-31G*
  Basis Set:
  Charge       = 0
  Multiplicity = 1
  Basis Set: 6-31G*
  Basis Set:

    Orbital Energies (a.u.)
    -----------------------

    Doubly Occupied:

       1A    -20.564055     2A    -20.560217     3A    -11.273360
       4A    -11.271489     5A    -11.268977     6A     -1.390442
       7A     -1.365413     8A     -1.019440     9A     -0.914161
      10A     -0.844730    11A     -0.707334    12A     -0.675242
      13A     -0.664313    14A     -0.635470    15A     -0.596000
      16A     -0.574446    17A     -0.545453    18A     -0.492500
      19A     -0.479257    20A     -0.439178    21A     -0.423832

  @DF-RHF Final Energy:  -267.95033611160272

   => Energetics <=

    Nuclear Repulsion Energy =            190.3018757730442019
    One-Electron Energy =                -743.0938030568055410
    Two-Electron Energy =                 284.8415911721589282
    DFT Exchange-Correlation Energy =       0.0000000000000000
    Empirical Dispersion Energy =           0.0000000000000000
    PCM Polarization Energy =               0.0000000000000000
    EFP Energy =                            0.0000000000000000
    Total Energy =                       -267.9503361116023825
    Molecular point group: c1
  Basis Set: 6-31G*
  Basis Set:

  -Total Gradient:
     Atom            X                  Y                   Z
    ------   -----------------  -----------------  -----------------
       1        0.000727729927    -0.001122529195    -0.000675355841
       2       -0.000791873951     0.001143018876     0.000715591439
       3       -0.000609097566     0.000930567303     0.000577023225
       4       -0.000047611881     0.000035734970    -0.000030425602
       5        0.000667661534    -0.000980388640    -0.000576299270
       6       -0.000000050117    -0.000016169682    -0.000004537163
       7        0.000040121335    -0.000006364387     0.000006918629
       8       -0.000000956919    -0.000022787770     0.000000607692
       9       -0.000005880341     0.000031796505    -0.000023786580
      10        0.000010885240     0.000011934018     0.000018051955
      11       -0.000005324491     0.000003695575    -0.000002981340
      12        0.000005102462    -0.000003302548    -0.000003487460
      13        0.000009294773    -0.000005205026    -0.000001319684

  **** Optimization is complete! (in 5 steps) ****
    Final optimized geometry and variables:
    Molecular point group: c1

    Geometry (in Angstrom), charge = 0, multiplicity = 1:

    H           -2.372404987331    -0.784396347150     0.837834280527
    O           -2.351902138940    -0.294035911076     0.027645380081
    C           -1.186880404696     0.484267161067    -0.024418391682
    C            0.062990305803    -0.378122611608     0.017986636716
    H           -1.213760101941     1.019721277749    -0.962763983232
    H           -1.155109793628     1.213176548063     0.780501977727
    O            1.169959159249     0.464758236711    -0.035882057478
    H            0.056534754341    -1.072895344065    -0.819903786025
    H            0.079456346205    -0.971608290856     0.934965781030
    C            2.397550498616    -0.193313995571    -0.037626946866
    H            2.493789765346    -0.851791447564    -0.898378308283
    H            3.171579874503     0.560067623918    -0.083436460554
    H            2.532950764376    -0.783849556754     0.866501961043

  Mulliken Charges: (a.u.)
   Center  Symbol    Alpha    Beta     Spin     Total
       1     H     0.28231  0.28231  0.00000  0.43538
       2     O     4.37093  4.37093  0.00000 -0.74186
       3     C     3.00035  3.00035  0.00000 -0.00069
       4     C     3.00042  3.00042  0.00000 -0.00083
       5     H     0.40833  0.40833  0.00000  0.18333
       6     H     0.42189  0.42189  0.00000  0.15622
       7     O     4.30680  4.30680  0.00000 -0.61361
       8     H     0.42320  0.42320  0.00000  0.15359
       9     H     0.43855  0.43855  0.00000  0.12289
      10     C     3.08035  3.08035  0.00000 -0.16070
      11     H     0.42755  0.42755  0.00000  0.14491
      12     H     0.41024  0.41024  0.00000  0.17952
      13     H     0.42907  0.42907  0.00000  0.14185

   Total alpha = 21.00000, Total beta = 21.00000, Total charge =  0.00000
