  ==> Input File <==

--------------------------------------------------------------------------
set {
	reference rhf
	basis 6-31G*
}

set_num_threads( 4 )
memory 2 gb

molecule MOL {
0 1

H	 -2.597910	 2.506920	 -1.807526
C	 -3.221424	 2.122033	 -0.991000
C	 -2.660244	 0.921717	 -0.272021
O	 -4.255438	 2.646398	 -0.730987
C	 -1.220012	 1.144545	 0.209990
H	 -3.322051	 0.675108	 0.550113
H	 -2.677775	 0.090335	 -0.975692
C	 -0.252658	 0.041456	 -0.226725
H	 -0.873521	 2.100229	 -0.171974
H	 -1.211708	 1.231594	 1.295398
C	 1.180775	 0.282413	 0.250794
H	 -0.266029	 -0.034465	 -1.312038
H	 -0.597733	 -0.921000	 0.146291
C	 2.148627	 -0.814315	 -0.201312
H	 1.516199	 1.249228	 -0.115937
H	 1.192670	 0.346017	 1.338083
C	 3.580890	 -0.659131	 0.322722
H	 2.166869	 -0.852443	 -1.289387
H	 1.762857	 -1.776509	 0.128956
C	 4.324889	 0.564933	 -0.213704
H	 4.142010	 -1.551473	 0.056605
H	 3.564836	 -0.624694	 1.410140
H	 4.342616	 0.565491	 -1.300421
H	 3.866655	 1.493402	 0.110242
H	 5.353900	 0.572371	 0.132816

	symmetry c1
}
set optking {
	frozen_dihedral = ("
		6 3 5 8
	")
}

ee = optimize('scf')
oeprop('DIPOLE', 'QUADRUPOLE', 'MULLIKEN_CHARGES')
f=open( 'psi4out.xyz', 'w' )
f.write( "25  " )
f.write( str(ee) + "\n" )
f.write( MOL.save_string_xyz() )
f.close()
--------------------------------------------------------------------------

    Molecular point group: c1
  Charge       = 0
  Multiplicity = 1
  Basis Set: 6-31G*
  Basis Set:
  @DF-RHF Final Energy:  -387.11767962259216
    Total Energy =                       -387.1176796225921635
    Molecular point group: c1
  Basis Set: 6-31G*
  Basis Set:
  Basis Set: 6-31G*
  Basis Set:
  @DF-RHF Final Energy:  -387.11792159732209
    Total Energy =                       -387.1179215973219243
  Basis Set: 6-31G*
  Basis Set:
  Basis Set: 6-31G*
  Basis Set:
  @DF-RHF Final Energy:  -387.11739256005478
    Total Energy =                       -387.1173925600550092
  Basis Set: 6-31G*
  Basis Set:
  Basis Set: 6-31G*
  Basis Set:
  @DF-RHF Final Energy:  -387.11798601040721
    Total Energy =                       -387.1179860104069803
  Basis Set: 6-31G*
  Basis Set:
  Basis Set: 6-31G*
  Basis Set:
  @DF-RHF Final Energy:  -387.11796952555835
    Total Energy =                       -387.1179695255586921
  Basis Set: 6-31G*
  Basis Set:
  Basis Set: 6-31G*
  Basis Set:
  @DF-RHF Final Energy:  -387.11801523974594
    Total Energy =                       -387.1180152397463416
  Basis Set: 6-31G*
  Basis Set:
  Charge       = 0
  Multiplicity = 1
  Basis Set: 6-31G*
  Basis Set:

    Orbital Energies (a.u.)
    -----------------------

    Doubly Occupied:

       1A    -20.561788     2A    -11.326406     3A    -11.235651
       4A    -11.234536     5A    -11.227133     6A    -11.221455
       7A    -11.220007     8A    -11.219393     9A    -11.212153
      10A     -1.402103    11A     -1.104242    12A     -1.069893
      13A     -1.014926    14A     -0.945119    15A     -0.876078
      16A     -0.816220    17A     -0.794417    18A     -0.782776
      19A     -0.670616    20A     -0.661294    21A     -0.633424
      22A     -0.621636    23A     -0.602539    24A     -0.597006
      25A     -0.572540    26A     -0.554919    27A     -0.539327
      28A     -0.521320    29A     -0.510482    30A     -0.499299
      31A     -0.485552    32A     -0.478158    33A     -0.466676
      34A     -0.460909    35A     -0.449730    36A     -0.407867

  @DF-RHF Final Energy:  -387.11801464122760

   => Energetics <=

    Nuclear Repulsion Energy =            432.0781888563462303
    One-Electron Energy =               -1380.3972283865014106
    Two-Electron Energy =                 561.2010248889279183
    DFT Exchange-Correlation Energy =       0.0000000000000000
    Empirical Dispersion Energy =           0.0000000000000000
    PCM Polarization Energy =               0.0000000000000000
    EFP Energy =                            0.0000000000000000
    Total Energy =                       -387.1180146412272052
    Molecular point group: c1
  Basis Set: 6-31G*
  Basis Set:

  -Total Gradient:
     Atom            X                  Y                   Z
    ------   -----------------  -----------------  -----------------
       1        0.000005455137     0.000004689119     0.000006955355
       2       -0.000011037081    -0.000025597352    -0.000029413145
       3        0.000576567488    -0.002307424860    -0.000843595195
       4       -0.000000899947     0.000040850200     0.000017012145
       5       -0.000458710168    -0.000489602953     0.001842623564
       6       -0.000394586424     0.002038691438     0.000254215619
       7        0.000040322556     0.000013493616     0.000013852065
       8        0.000265070386     0.000753002319    -0.001295378755
       9       -0.000027479751    -0.000000940770    -0.000016513126
      10       -0.000003939628    -0.000010340598    -0.000000540029
      11        0.000018791210    -0.000007324624     0.000016679468
      12       -0.000029003483     0.000005130460     0.000003918870
      13        0.000010514837     0.000010521964     0.000001815990
      14       -0.000007908289    -0.000020267534     0.000045498069
      15        0.000028115506     0.000032856253     0.000005932948
      16        0.000015173673    -0.000014552238    -0.000008121966
      17        0.000028173967    -0.000034299888    -0.000047588733
      18       -0.000003867833    -0.000025665607     0.000009190759
      19       -0.000011546115     0.000011947762     0.000019489287
      20       -0.000026126744     0.000010696095     0.000015966772
      21        0.000017025174     0.000012656590    -0.000018908188
      22        0.000007478208    -0.000026045298    -0.000006785025
      23        0.000006774458    -0.000010982176     0.000010276966
      24       -0.000042591573     0.000025205722    -0.000008083143
      25       -0.000001765561     0.000013302355     0.000011499429

  **** Optimization is complete! (in 7 steps) ****
    Final optimized geometry and variables:
    Molecular point group: c1

    Geometry (in Angstrom), charge = 0, multiplicity = 1:

    H           -2.600240044052     1.812854200474    -1.582196408684
    C           -3.212015308640     1.408653326518    -0.766214784708
    C           -2.623911384781     0.213204994841    -0.058355168466
    O           -4.256361624941     1.907519081536    -0.498920446114
    C           -1.166074509923     0.455590970066     0.396154352236
    H           -3.275711694290    -0.019064220603     0.774372829097
    H           -2.664108437324    -0.620623491010    -0.756909114710
    C           -0.199017933920    -0.650484317384    -0.032292330859
    H           -0.806343441614     1.401053709433    -0.006754675963
    H           -1.142674117001     0.567619138249     1.475219417938
    C            1.234010948086    -0.415716588417     0.447670294859
    H           -0.209137463758    -0.730167860941    -1.118039992437
    H           -0.556159077473    -1.606395865051     0.346660004129
    C            2.197697977393    -1.519272279768     0.002851421216
    H            1.576344816086     0.548301080623     0.079834799624
    H            1.242013937594    -0.349233573655     1.534510699994
    C            3.627774456953    -1.372635418154     0.535192771265
    H            2.223094985949    -1.558152184430    -1.085092756145
    H            1.803877950079    -2.478897996299     0.331341438869
    C            4.377799837874    -0.145940013761     0.012832635833
    H            4.187736089692    -2.264571567447     0.265406709813
    H            3.605329006779    -1.346676552935     1.622735577393
    H            4.406910375707    -0.139686739072    -1.073527994970
    H            3.917083781207     0.781284849787     0.337075556338
    H            5.403060390073    -0.140984017722     0.369634336097

  Mulliken Charges: (a.u.)
   Center  Symbol    Alpha    Beta     Spin     Total
       1     H     0.43230  0.43230  0.00000  0.13541
       2     C     2.83209  2.83209  0.00000  0.33583
       3     C     3.20985  3.20985  0.00000 -0.41970
       4     O     4.23794  4.23794  0.00000 -0.47587
       5     C     3.16698  3.16698  0.00000 -0.33395
       6     H     0.39692  0.39692  0.00000  0.20616
       7     H     0.40566  0.40566  0.00000  0.18868
       8     C     3.15396  3.15396  0.00000 -0.30793
       9     H     0.41757  0.41757  0.00000  0.16486
      10     H     0.41006  0.41006  0.00000  0.17988
      11     C     3.15533  3.15533  0.00000 -0.31065
      12     H     0.42260  0.42260  0.00000  0.15480
      13     H     0.41994  0.41994  0.00000  0.16013
      14     C     3.15290  3.15290  0.00000 -0.30581
      15     H     0.42053  0.42053  0.00000  0.15895
      16     H     0.42233  0.42233  0.00000  0.15533
      17     C     3.15266  3.15266  0.00000 -0.30531
      18     H     0.42386  0.42386  0.00000  0.15228
      19     H     0.42163  0.42163  0.00000  0.15675
      20     C     3.24155  3.24155  0.00000 -0.48309
      21     H     0.42010  0.42010  0.00000  0.15980
      22     H     0.42276  0.42276  0.00000  0.15448
      23     H     0.42211  0.42211  0.00000  0.15578
      24     H     0.42013  0.42013  0.00000  0.15975
      25     H     0.41828  0.41828  0.00000  0.16345

   Total alpha = 36.00000, Total beta = 36.00000, Total charge =  0.00000
