  ==> Input File <==

--------------------------------------------------------------------------
set {
	reference rhf
	basis cc-pvtz
}

set_num_threads( 4 )
memory 2 gb

molecule MOL {
0 1

H	 -2.123894	 -0.667238	 -0.609809
O	 -2.041679	 -0.058866	 0.103463
C	 -0.959304	 0.780994	 -0.094939
C	 0.354905	 0.037902	 -0.006215
H	 -0.985899	 1.279578	 -1.057596
H	 -0.969809	 1.529522	 0.682889
F	 1.367393	 0.879165	 0.107526
F	 0.367113	 -0.744940	 1.052372
F	 0.581964	 -0.708215	 -1.060599

	symmetry c1
}
set optking {
	frozen_dihedral = ("
		7 4 3 5
	")
}

ee = optimize('scf')
oeprop('DIPOLE', 'QUADRUPOLE', 'MULLIKEN_CHARGES')
f=open( 'psi4out.xyz', 'w' )
f.write( "9  " )
f.write( str(ee) + "\n" )
f.write( MOL.save_string_xyz() )
f.close()
--------------------------------------------------------------------------

    Molecular point group: c1
  Charge       = 0
  Multiplicity = 1
  Basis Set: CC-PVTZ
  Basis Set:
  @DF-RHF Final Energy:  -450.84565659923987
    Total Energy =                       -450.8456565992398737
    Molecular point group: c1
  Basis Set: CC-PVTZ
  Basis Set:
  Basis Set: CC-PVTZ
  Basis Set:
  @DF-RHF Final Energy:  -450.84602823191727
    Total Energy =                       -450.8460282319167618
  Basis Set: CC-PVTZ
  Basis Set:
  Basis Set: CC-PVTZ
  Basis Set:
  @DF-RHF Final Energy:  -450.84607770888005
    Total Energy =                       -450.8460777088803297
  Basis Set: CC-PVTZ
  Basis Set:
  Basis Set: CC-PVTZ
  Basis Set:
  @DF-RHF Final Energy:  -450.84608398478190
    Total Energy =                       -450.8460839847820694
  Basis Set: CC-PVTZ
  Basis Set:
  Charge       = 0
  Multiplicity = 1
  Basis Set: CC-PVTZ
  Basis Set:

    Orbital Energies (a.u.)
    -----------------------

    Doubly Occupied:

       1A    -26.339565     2A    -26.338527     3A    -26.333771
       4A    -20.583229     5A    -11.493056     6A    -11.310272
       7A     -1.747007     8A     -1.644666     9A     -1.641173
      10A     -1.406316    11A     -1.049561    12A     -0.929271
      13A     -0.837487    14A     -0.834910    15A     -0.809347
      16A     -0.733558    17A     -0.718765    18A     -0.702734
      19A     -0.671605    20A     -0.664177    21A     -0.648210
      22A     -0.633043    23A     -0.616325    24A     -0.534719
      25A     -0.484288

  @DF-RHF Final Energy:  -450.84608496897636

   => Energetics <=

    Nuclear Repulsion Energy =            277.5123420751260710
    One-Electron Energy =               -1177.3056942358539345
    Two-Electron Energy =                 448.9472671917516777
    DFT Exchange-Correlation Energy =       0.0000000000000000
    Empirical Dispersion Energy =           0.0000000000000000
    PCM Polarization Energy =               0.0000000000000000
    EFP Energy =                            0.0000000000000000
    Total Energy =                       -450.8460849689761858
    Molecular point group: c1
  Basis Set: CC-PVTZ
  Basis Set:

  -Total Gradient:
     Atom            X                  Y                   Z
    ------   -----------------  -----------------  -----------------
       1       -0.000011882293    -0.000027395861    -0.000004728077
       2       -0.000047602500    -0.000000717056    -0.000014496294
       3        0.002118309093     0.004092454835     0.002991907503
       4        0.000024185534    -0.000643514359    -0.004758498183
       5       -0.001781088548    -0.003359120721    -0.001588356264
       6       -0.000003699561    -0.000015578207    -0.000013929988
       7       -0.000281605566    -0.000045594661     0.003382313840
       8       -0.000023454999    -0.000027165929     0.000037716354
       9        0.000006838835     0.000026631959    -0.000031928892

  **** Optimization is complete! (in 5 steps) ****
    Final optimized geometry and variables:
    Molecular point group: c1

    Geometry (in Angstrom), charge = 0, multiplicity = 1:

    H           -2.147874916278    -0.639745865296    -0.656494804787
    O           -2.045615449317    -0.063186706231     0.080048369331
    C           -0.960794827888     0.780404886867    -0.103538224595
    C            0.355439819702     0.036686757076    -0.006593795945
    H           -0.989393955521     1.258230800210    -1.076310314010
    H           -0.983380226224     1.529261430328     0.672376231582
    F            1.356177181595     0.888022402627     0.083817164484
    F            0.407382468095    -0.745991361892     1.044630562456
    F            0.559614426757    -0.718868271543    -1.070024701711

  Mulliken Charges: (a.u.)
   Center  Symbol    Alpha    Beta     Spin     Total
       1     H     0.38794  0.38794  0.00000  0.22412
       2     O     4.19130  4.19130  0.00000 -0.38260
       3     C     2.99191  2.99191  0.00000  0.01619
       4     C     2.68571  2.68571  0.00000  0.62858
       5     H     0.46134  0.46134  0.00000  0.07732
       6     H     0.44624  0.44624  0.00000  0.10752
       7     F     4.61240  4.61240  0.00000 -0.22481
       8     F     4.60685  4.60685  0.00000 -0.21369
       9     F     4.61631  4.61631  0.00000 -0.23262

   Total alpha = 25.00000, Total beta = 25.00000, Total charge =  0.00000
