  ==> Input File <==

--------------------------------------------------------------------------
set {
	reference rhf
	basis 6-31G*
}

set_num_threads( 1 )
memory 2 gb

molecule MOL {
0 1

H	 3.569267	 0.747876	 0.726984
O	 2.658146	 0.600684	 0.961394
C	 2.077727	 -0.067559	 -0.035091
C	 0.624473	 -0.343591	 0.253101
O	 2.672755	 -0.385971	 -1.012624
C	 -0.265902	 0.883932	 0.072916
H	 0.324016	 -1.163849	 -0.390541
H	 0.565024	 -0.726111	 1.268924
C	 -1.728698	 0.646073	 0.462102
H	 -0.209144	 1.219470	 -0.958188
H	 0.135059	 1.692851	 0.673903
C	 -2.482460	 -0.343073	 -0.431425
H	 -2.245265	 1.602650	 0.432430
H	 -1.779332	 0.308348	 1.496285
C	 -3.960546	 -0.461025	 -0.060175
H	 -2.395034	 -0.026811	 -1.468912
H	 -2.024850	 -1.327147	 -0.371646
H	 -4.472726	 -1.168004	 -0.705284
H	 -4.465146	 0.496508	 -0.151489
H	 -4.081218	 -0.800940	 0.964585

	symmetry c1
}
set optking {
	frozen_dihedral = ("
		16 12 9 6,
		7 4 6 10,
		12 9 6 10,
		1 2 3 5
	")
}

ee = energy('scf')
oeprop('DIPOLE', 'QUADRUPOLE', 'MULLIKEN_CHARGES')
f=open( 'psi4out.xyz', 'w' )
f.write( "20  " )
f.write( str(ee) + "\n" )
f.write( MOL.save_string_xyz() )
f.close()
--------------------------------------------------------------------------

    Molecular point group: c1

    Geometry (in Angstrom), charge = 0, multiplicity = 1:

       Center              X                  Y                   Z               Mass
    ------------   -----------------  -----------------  -----------------  -----------------
           H          3.575904976880     0.678331970987     0.693847241651     1.007825032070
           O          2.664783976880     0.531139970987     0.928257241651    15.994914619560
           C          2.084364976880    -0.137103029013    -0.068227758349    12.000000000000
           C          0.631110976880    -0.413135029013     0.219964241651    12.000000000000
           O          2.679392976880    -0.455515029013    -1.045760758349    15.994914619560
           C         -0.259264023120     0.814387970987     0.039779241651    12.000000000000
           H          0.330653976880    -1.233393029013    -0.423677758349     1.007825032070
           H          0.571661976880    -0.795655029013     1.235787241651     1.007825032070
           C         -1.722060023120     0.576528970987     0.428965241651    12.000000000000
           H         -0.202506023120     1.149925970987    -0.991324758349     1.007825032070
           H          0.141696976880     1.623306970987     0.640766241651     1.007825032070
           C         -2.475822023120    -0.412617029013    -0.464561758349    12.000000000000
           H         -2.238627023120     1.533105970987     0.399293241651     1.007825032070
           H         -1.772694023120     0.238803970987     1.463148241651     1.007825032070
           C         -3.953908023120    -0.530569029013    -0.093311758349    12.000000000000
           H         -2.388396023120    -0.096355029013    -1.502048758349     1.007825032070
           H         -2.018212023120    -1.396691029013    -0.404782758349     1.007825032070
           H         -4.466088023120    -1.237548029013    -0.738420758349     1.007825032070
           H         -4.458508023120     0.426963970987    -0.184625758349     1.007825032070
           H         -4.074580023120    -0.870484029013     0.931448241651     1.007825032070

  Charge       = 0
  Multiplicity = 1
  Basis Set: 6-31G*
  Basis Set:

    Orbital Energies (a.u.)
    -----------------------

    Doubly Occupied:

       1A    -20.612441     2A    -20.549878     3A    -11.379656
       4A    -11.238037     5A    -11.232788     6A    -11.224803
       7A    -11.221934     8A    -11.213719     9A     -1.473719
      10A     -1.364159    11A     -1.100162    12A     -1.042558
      13A     -0.961163    14A     -0.865894    15A     -0.822443
      16A     -0.789510    17A     -0.700950    18A     -0.686134
      19A     -0.644497    20A     -0.632239    21A     -0.619534
      22A     -0.593466    23A     -0.578629    24A     -0.555197
      25A     -0.539418    26A     -0.520690    27A     -0.499115
      28A     -0.483650    29A     -0.476483    30A     -0.470532
      31A     -0.458736    32A     -0.435153

  @DF-RHF Final Energy:  -383.94684625495984

   => Energetics <=

    Nuclear Repulsion Energy =            376.1952176758868518
    One-Electron Energy =               -1268.3095456485400518
    Two-Electron Energy =                 508.1674817176934766
    DFT Exchange-Correlation Energy =       0.0000000000000000
    Empirical Dispersion Energy =           0.0000000000000000
    PCM Polarization Energy =               0.0000000000000000
    EFP Energy =                            0.0000000000000000
    Total Energy =                       -383.9468462549597234

  Mulliken Charges: (a.u.)
   Center  Symbol    Alpha    Beta     Spin     Total
       1     H     0.26797  0.26797  0.00000  0.46406
       2     O     4.34694  4.34694  0.00000 -0.69387
       3     C     2.63410  2.63410  0.00000  0.73180
       4     C     3.20010  3.20010  0.00000 -0.40021
       5     O     4.27770  4.27770  0.00000 -0.55541
       6     C     3.16634  3.16634  0.00000 -0.33268
       7     H     0.39688  0.39688  0.00000  0.20625
       8     H     0.40365  0.40365  0.00000  0.19270
       9     C     3.15438  3.15438  0.00000 -0.30877
      10     H     0.41120  0.41120  0.00000  0.17761
      11     H     0.40651  0.40651  0.00000  0.18698
      12     C     3.15488  3.15488  0.00000 -0.30976
      13     H     0.41782  0.41782  0.00000  0.16437
      14     H     0.42112  0.42112  0.00000  0.15776
      15     C     3.23967  3.23967  0.00000 -0.47934
      16     H     0.42045  0.42045  0.00000  0.15911
      17     H     0.42087  0.42087  0.00000  0.15827
      18     H     0.41744  0.41744  0.00000  0.16511
      19     H     0.42085  0.42085  0.00000  0.15830
      20     H     0.42114  0.42114  0.00000  0.15772

   Total alpha = 32.00000, Total beta = 32.00000, Total charge = -0.00000
