                              Psi4 1.0.54 Driver

  ==> Input File <==

--------------------------------------------------------------------------
set {
	reference rhf
	basis cc-pvtz
}

set_num_threads( 4 )
memory 2 gb

molecule MOL {
0 1

O	 -1.171169	 0.882193	 2.650953
C	 -0.557636	 1.451287	 1.807662
C	 0.706162	 0.853122	 1.221946
C	 -1.010628	 2.784820	 1.262448
C	 0.376695	 -0.140025	 0.100361
H	 1.226316	 0.339628	 2.020616
H	 1.352649	 1.637176	 0.842237
C	 1.630207	 -0.772146	 -0.501001
H	 -0.276873	 -0.903171	 0.503704
H	 -0.179610	 0.365616	 -0.685229
C	 2.907848	 -0.545876	 0.309149
H	 1.772784	 -0.391628	 -1.509394
H	 1.468529	 -1.842059	 -0.599744
C	 3.373802	 0.906639	 0.372125
H	 3.699140	 -1.146831	 -0.127906
H	 2.764321	 -0.923458	 1.318191
H	 3.519798	 1.311927	 -0.623875
H	 4.316899	 0.983758	 0.900700
H	 2.661122	 1.540651	 0.885346
H	 -0.302589	 3.551367	 1.560917
H	 -1.989455	 3.030040	 1.644984
H	 -1.027775	 2.769467	 0.178446

	symmetry c1
}
set optking {
	frozen_dihedral = ("
		3 5 8 12
	")
}

ee,wfn = optimize('scf', return_wfn=True)
oeprop( wfn, 'DIPOLE', 'QUADRUPOLE', 'MULLIKEN_CHARGES')
f=open( 'psi4out.xyz', 'w' )
f.write( "22  " )
f.write( str(ee) + "\n" )
f.write( MOL.save_string_xyz() )
f.close()
--------------------------------------------------------------------------

    Molecular point group: c1
  Charge       = 0
  Multiplicity = 1
  Basis Set: CC-PVTZ
  Basis Set:
  @DF-RHF Final Energy:  -348.18304151701193
    Total Energy =                       -348.1830415170119295
    Molecular point group: c1
  Basis Set: CC-PVTZ
  Basis Set:
  Basis Set: CC-PVTZ
  Basis Set:
  @DF-RHF Final Energy:  -348.20447767452396
    Total Energy =                       -348.2044776745239574
  Basis Set: CC-PVTZ
  Basis Set:
  Basis Set: CC-PVTZ
  Basis Set:
  @DF-RHF Final Energy:  -348.20950278601498
    Total Energy =                       -348.2095027860153209
  Basis Set: CC-PVTZ
  Basis Set:
  Basis Set: CC-PVTZ
  Basis Set:
  @DF-RHF Final Energy:  -348.20897524282623
    Total Energy =                       -348.2089752428262273
  Basis Set: CC-PVTZ
  Basis Set:
  @DF-RHF Final Energy:  -348.21115383575369
    Total Energy =                       -348.2111538357545442
  @DF-RHF Final Energy:  -348.21086340159354
    Total Energy =                       -348.2108634015939970
  @DF-RHF Final Energy:  -348.21103174092036
    Total Energy =                       -348.2110317409204754
  @DF-RHF Final Energy:  -348.21165670446783
    Total Energy =                       -348.2116567044679414
  Basis Set: CC-PVTZ
  Basis Set:
  @DF-RHF Final Energy:  -348.21177218409565
    Total Energy =                       -348.2117721840954800
  Basis Set: CC-PVTZ
  Basis Set:
  Basis Set: CC-PVTZ
  Basis Set:
  @DF-RHF Final Energy:  -348.21180072787513
    Total Energy =                       -348.2118007278750156
  Basis Set: CC-PVTZ
  Basis Set:
  Basis Set: CC-PVTZ
  Basis Set:
  @DF-RHF Final Energy:  -348.21180182027615
    Total Energy =                       -348.2118018202764915
  Basis Set: CC-PVTZ
  Basis Set:
  Charge       = 0
  Multiplicity = 1
  Basis Set: CC-PVTZ
  Basis Set:

    Orbital Energies (a.u.)
    -----------------------

    Doubly Occupied:

       1A    -20.536782     2A    -11.319189     3A    -11.229134
       4A    -11.227202     5A    -11.226852     6A    -11.221272
       7A    -11.220246     8A    -11.211759     9A     -1.396895
      10A     -1.092936    11A     -1.043625    12A     -0.999272
      13A     -0.946214    14A     -0.860949    15A     -0.781454
      16A     -0.735355    17A     -0.660086    18A     -0.656380
      19A     -0.621783    20A     -0.609147    21A     -0.605529
      22A     -0.588748    23A     -0.560163    24A     -0.550061
      25A     -0.537166    26A     -0.521603    27A     -0.506460
      28A     -0.492183    29A     -0.466300    30A     -0.458368
      31A     -0.455822    32A     -0.398802

  @DF-RHF Final Energy:  -348.21180190916272

   => Energetics <=

    Nuclear Repulsion Energy =            379.3672290439332642
    One-Electron Energy =               -1223.6825898675397184
    Two-Electron Energy =                 496.1035589144435676
    DFT Exchange-Correlation Energy =       0.0000000000000000
    Empirical Dispersion Energy =           0.0000000000000000
    PCM Polarization Energy =               0.0000000000000000
    EFP Energy =                            0.0000000000000000
    Total Energy =                       -348.2118019091628298
    Molecular point group: c1
  Basis Set: CC-PVTZ
  Basis Set:

  -Total Gradient:
     Atom            X                  Y                   Z
    ------   -----------------  -----------------  -----------------
       1       -0.000060099600    -0.000136942788     0.000097790430
       2        0.000032024950     0.000094001323    -0.000006995549
       3        0.000273174957    -0.002384985056     0.002113057755
       4        0.000013346455     0.000012357758    -0.000050377190
       5       -0.000761373526     0.002630808080    -0.003450656187
       6        0.000019479016    -0.000011767461     0.000005255411
       7        0.000030439684     0.000064878620    -0.000033655083
       8        0.002282266293     0.003296466293     0.002841520413
       9       -0.000032803654    -0.000008030165     0.000021787204
      10        0.000018079392    -0.000008421394    -0.000019520733
      11       -0.000032009202     0.000021350436    -0.000003781358
      12       -0.001759393253    -0.003516004549    -0.001495900173
      13        0.000064107548    -0.000034299553    -0.000020198234
      14       -0.000081617951    -0.000015484015     0.000000521575
      15        0.000029016539    -0.000052801520    -0.000041313001
      16       -0.000023321125     0.000017648314     0.000036654424
      17        0.000009488215    -0.000009876070    -0.000041818943
      18        0.000028810673    -0.000033836245     0.000017898682
      19       -0.000017118289     0.000049771030     0.000030996335
      20        0.000013288505     0.000037542902     0.000007214225
      21       -0.000045729605    -0.000010418738     0.000018855891
      22       -0.000000056022    -0.000001957203    -0.000027335888

  **** Optimization is complete! (in 12 steps) ****
    Final optimized geometry and variables:
    Molecular point group: c1

    Geometry (in Angstrom), charge = 0, multiplicity = 1:

    O           -2.039788658709    -0.260327948593     1.773289522062
    C           -1.621933830916     0.470618174262     0.935147113240
    C           -0.219865877012     0.305119348344     0.380215009055
    C           -2.463624065857     1.590463235558     0.370521086585
    C           -0.225545775080    -0.733127781964    -0.752448316520
    H            0.408901552124    -0.026909419405     1.193568882872
    H            0.146355538000     1.260918959355     0.026694241145
    C            1.138206142776    -1.154768971914    -1.361567599675
    H           -0.703884196266    -1.618286955993    -0.350780781069
    H           -0.868809871267    -0.383118475231    -1.552531292629
    C            2.433551127939    -0.855946903762    -0.597629134753
    H            1.218161465316    -0.762122938000    -2.370618174015
    H            1.087724545559    -2.229827799177    -1.496667943524
    C            2.987071322463     0.557647354617    -0.766989241557
    H            3.186222502142    -1.549703252108    -0.958267633996
    H            2.309065170421    -1.082266111346     0.456113364531
    H            3.154037882422     0.779746914413    -1.815881806187
    H            3.937409414354     0.658136619511    -0.254834427300
    H            2.324734835648     1.316277710107    -0.372093646633
    H           -2.047209370653     2.542067499632     0.685470571327
    H           -3.479292817401     1.507449429299     0.725788204474
    H           -2.445860633835     1.575949068792    -0.713371093374

  Mulliken Charges: (a.u.)
   Center  Symbol    Alpha    Beta     Spin     Total
       1     O     4.17718  4.17718  0.00000 -0.35437
       2     C     2.85520  2.85520  0.00000  0.28960
       3     C     3.10957  3.10957  0.00000 -0.21915
       4     C     3.15683  3.15683  0.00000 -0.31367
       5     C     3.10506  3.10506  0.00000 -0.21013
       6     H     0.43522  0.43522  0.00000  0.12956
       7     H     0.44815  0.44815  0.00000  0.10371
       8     C     3.09963  3.09963  0.00000 -0.19925
       9     H     0.43988  0.43988  0.00000  0.12023
      10     H     0.44693  0.44693  0.00000  0.10614
      11     C     3.10163  3.10163  0.00000 -0.20326
      12     H     0.45160  0.45160  0.00000  0.09680
      13     H     0.44430  0.44430  0.00000  0.11141
      14     C     3.14863  3.14863  0.00000 -0.29725
      15     H     0.44280  0.44280  0.00000  0.11440
      16     H     0.44841  0.44841  0.00000  0.10319
      17     H     0.45449  0.45449  0.00000  0.09102
      18     H     0.44647  0.44647  0.00000  0.10707
      19     H     0.45372  0.45372  0.00000  0.09256
      20     H     0.44843  0.44843  0.00000  0.10314
      21     H     0.43552  0.43552  0.00000  0.12896
      22     H     0.45035  0.45035  0.00000  0.09931

   Total alpha = 32.00000, Total beta = 32.00000, Total charge = -0.00000

*** Psi4 exiting successfully. Buy a developer a beer!
