  ==> Input File <==

--------------------------------------------------------------------------
set {
	reference rhf
	basis 6-31G*
}

set_num_threads( 4 )
memory 2 gb

molecule MOL {
0 1

H	 5.268524	 0.192471	 1.070992
C	 4.673736	 -0.214914	 0.259335
C	 3.185378	 -0.203514	 0.605509
H	 4.871837	 0.380453	 -0.627026
H	 5.025590	 -1.224632	 0.065769
C	 2.317601	 -0.778379	 -0.516234
H	 2.874655	 0.814325	 0.817774
H	 3.023650	 -0.778480	 1.515976
C	 1.200877	 -1.697627	 -0.021080
H	 1.879334	 0.031634	 -1.088462
H	 2.948056	 -1.343627	 -1.198922
C	 0.071068	 -0.978494	 0.701153
H	 0.748849	 -2.214731	 -0.866091
H	 1.597673	 -2.478917	 0.623370
C	 -0.862475	 -1.817826	 1.555983
O	 -0.092980	 0.199278	 0.590036
C	 -1.647473	 -2.872231	 0.761521
H	 -1.544734	 -1.133417	 2.045699
H	 -0.274627	 -2.311998	 2.327290
C	 -2.647834	 -3.631907	 1.634894
H	 -2.179062	 -2.384905	 -0.053060
H	 -0.962760	 -3.582587	 0.305414
C	 -3.435352	 -4.684206	 0.855543
H	 -3.338289	 -2.924421	 2.087438
H	 -2.117560	 -4.110380	 2.455424
H	 -4.002104	 -4.230837	 0.047475
H	 -2.773605	 -5.427026	 0.419170
H	 -4.136794	 -5.204445	 1.499910

	symmetry c1
}
set optking {
	frozen_dihedral = ("
		10 6 3 2
	")
}

ee = optimize('scf')
oeprop('DIPOLE', 'QUADRUPOLE', 'MULLIKEN_CHARGES')
f=open( 'psi4out.xyz', 'w' )
f.write( "28  " )
f.write( str(ee) + "\n" )
f.write( MOL.save_string_xyz() )
f.close()
--------------------------------------------------------------------------

    Molecular point group: c1
  Charge       = 0
  Multiplicity = 1
  Basis Set: 6-31G*
  Basis Set:
  @DF-RHF Final Energy:  -426.16467991945171
    Total Energy =                       -426.1646799194514870
    Molecular point group: c1
  Basis Set: 6-31G*
  Basis Set:
  Basis Set: 6-31G*
  Basis Set:
  @DF-RHF Final Energy:  -426.16503390637001
    Total Energy =                       -426.1650339063700130
  Basis Set: 6-31G*
  Basis Set:
  Basis Set: 6-31G*
  Basis Set:
  @DF-RHF Final Energy:  -426.16502186060620
    Total Energy =                       -426.1650218606059752
  Basis Set: 6-31G*
  Basis Set:
  Basis Set: 6-31G*
  Basis Set:
  @DF-RHF Final Energy:  -426.16514814003312
    Total Energy =                       -426.1651481400331249
  Basis Set: 6-31G*
  Basis Set:
  @DF-RHF Final Energy:  -426.16516444829733
    Total Energy =                       -426.1651644482967640
  Basis Set: 6-31G*
  Basis Set:
  @DF-RHF Final Energy:  -426.16517536561548
    Total Energy =                       -426.1651753656150277
  Basis Set: 6-31G*
  Basis Set:
  Basis Set: 6-31G*
  Basis Set:
  @DF-RHF Final Energy:  -426.16518495082801
    Total Energy =                       -426.1651849508284613
  Basis Set: 6-31G*
  Basis Set:
  Basis Set: 6-31G*
  Basis Set:
  @DF-RHF Final Energy:  -426.16518605321983
    Total Energy =                       -426.1651860532199407
  Basis Set: 6-31G*
  Basis Set:
  Charge       = 0
  Multiplicity = 1
  Basis Set: 6-31G*
  Basis Set:

    Orbital Energies (a.u.)
    -----------------------

    Doubly Occupied:

       1A    -20.548230     2A    -11.321737     3A    -11.232360
       4A    -11.229676     5A    -11.228737     6A    -11.226065
       7A    -11.216317     8A    -11.216240     9A    -11.211586
      10A    -11.206904    11A     -1.393150    12A     -1.094884
      13A     -1.075769    14A     -1.022091    15A     -0.990754
      16A     -0.907355    17A     -0.872768    18A     -0.809265
      19A     -0.800423    20A     -0.721995    21A     -0.666733
      22A     -0.652068    23A     -0.634858    24A     -0.619657
      25A     -0.602937    26A     -0.584393    27A     -0.581639
      28A     -0.575833    29A     -0.542043    30A     -0.534817
      31A     -0.518163    32A     -0.504460    33A     -0.502036
      34A     -0.485016    35A     -0.480252    36A     -0.475967
      37A     -0.470608    38A     -0.460710    39A     -0.454861
      40A     -0.392278

  @DF-RHF Final Energy:  -426.16518613793119

   => Energetics <=

    Nuclear Repulsion Energy =            531.4183961938892935
    One-Electron Energy =               -1631.0358955586377760
    Two-Electron Energy =                 673.4523132268172958
    DFT Exchange-Correlation Energy =       0.0000000000000000
    Empirical Dispersion Energy =           0.0000000000000000
    PCM Polarization Energy =               0.0000000000000000
    EFP Energy =                            0.0000000000000000
    Total Energy =                       -426.1651861379311867
    Molecular point group: c1
  Basis Set: 6-31G*
  Basis Set:

  -Total Gradient:
     Atom            X                  Y                   Z
    ------   -----------------  -----------------  -----------------
       1       -0.000001565410    -0.000005598962     0.000008026495
       2        0.000319405741    -0.002348110443     0.001154227880
       3       -0.001126007756     0.003271220622    -0.001100884991
       4        0.000004383629     0.000008574082     0.000000941968
       5       -0.000023460022     0.000002747181    -0.000015017304
       6        0.003699183261    -0.000861542160    -0.002272289268
       7       -0.000010131320    -0.000011681320    -0.000002983758
       8        0.000002064691    -0.000009691915     0.000006312333
       9        0.000015320097    -0.000026679891     0.000039150587
      10       -0.002891725364    -0.000021984412     0.002190565903
      11       -0.000001937033    -0.000005894885     0.000020845026
      12        0.000005934594     0.000004695626     0.000024042922
      13       -0.000006925947     0.000010187535    -0.000013207345
      14        0.000002628027     0.000002718078    -0.000000604913
      15       -0.000023640228    -0.000004131132    -0.000039939428
      16        0.000029736337    -0.000013453380    -0.000014003725
      17        0.000014898142    -0.000015847106     0.000019028037
      18       -0.000000669162     0.000006761438    -0.000007336682
      19        0.000005588392     0.000006933494     0.000004208376
      20       -0.000000688369     0.000001224251    -0.000003410181
      21       -0.000002473593     0.000009112404     0.000011721466
      22       -0.000005263084     0.000004571509    -0.000013080565
      23        0.000002965140    -0.000006038548     0.000003717299
      24       -0.000006226389     0.000000393761     0.000000162428
      25       -0.000001873723     0.000003505041    -0.000000232546
      26       -0.000000046391     0.000000522050     0.000002620115
      27        0.000000149581     0.000000253371    -0.000002256228
      28        0.000000376159    -0.000002766287    -0.000000323901

  **** Optimization is complete! (in 9 steps) ****
    Final optimized geometry and variables:
    Molecular point group: c1

    Geometry (in Angstrom), charge = 0, multiplicity = 1:

    H            4.924493292940     2.046890545881     0.407256671905
    C            4.369350379921     1.557238374421    -0.387014170837
    C            2.875121347307     1.505249802594    -0.067747731060
    H            4.558054442741     2.104668427711    -1.306688211557
    H            4.776259086475     0.557395823922    -0.510018974894
    C            2.043189572556     0.841053675617    -1.183275052661
    H            2.498072264281     2.502434979811     0.124983050027
    H            2.747028363039     0.952189051011     0.861066456807
    C            0.938536179811    -0.079297371303    -0.661873385422
    H            1.573434344000     1.604202772711    -1.792578438063
    H            2.689754826021     0.255745757250    -1.830909256128
    C           -0.166028924230     0.648368223143     0.088963951238
    H            0.466193422989    -0.598715287010    -1.494371857486
    H            1.350003835295    -0.857780691718    -0.023037958425
    C           -1.114422883614    -0.186640087790     0.931672264298
    O           -0.296807282466     1.833078803267     0.011429450712
    C           -1.940160342626    -1.194800260665     0.118757639416
    H           -1.770081126625     0.504030165481     1.448193407317
    H           -0.533288470365    -0.719248864002     1.682187966699
    C           -2.954517853705    -1.946040270606     0.983224612291
    H           -2.464809979923    -0.669894702543    -0.676732632232
    H           -1.282845125508    -1.913728364732    -0.363410589912
    C           -3.781543952322    -2.953606505163     0.185885136677
    H           -3.618477494302    -1.229866143705     1.461047597881
    H           -2.430930235500    -2.461347990664     1.785553967713
    H           -4.342409329557    -2.462595109873    -0.604087575471
    H           -3.147154290288    -3.704485366544    -0.276540015745
    H           -4.491921281008    -3.468990748526     0.824374193052

  Mulliken Charges: (a.u.)
   Center  Symbol    Alpha    Beta     Spin     Total
       1     H     0.41981  0.41981  0.00000  0.16039
       2     C     3.24087  3.24087  0.00000 -0.48174
       3     C     3.15545  3.15545  0.00000 -0.31090
       4     H     0.42103  0.42103  0.00000  0.15793
       5     H     0.42411  0.42411  0.00000  0.15179
       6     C     3.15051  3.15051  0.00000 -0.30102
       7     H     0.40634  0.40634  0.00000  0.18733
       8     H     0.42736  0.42736  0.00000  0.14527
       9     C     3.21317  3.21317  0.00000 -0.42633
      10     H     0.40640  0.40640  0.00000  0.18721
      11     H     0.41976  0.41976  0.00000  0.16047
      12     C     2.73121  2.73121  0.00000  0.53757
      13     H     0.40431  0.40431  0.00000  0.19138
      14     H     0.41309  0.41309  0.00000  0.17383
      15     C     3.20137  3.20137  0.00000 -0.40274
      16     O     4.26642  4.26642  0.00000 -0.53283
      17     C     3.16379  3.16379  0.00000 -0.32757
      18     H     0.39977  0.39977  0.00000  0.20046
      19     H     0.41306  0.41306  0.00000  0.17389
      20     C     3.15180  3.15180  0.00000 -0.30361
      21     H     0.41381  0.41381  0.00000  0.17238
      22     H     0.41871  0.41871  0.00000  0.16258
      23     C     3.24032  3.24032  0.00000 -0.48065
      24     H     0.41838  0.41838  0.00000  0.16324
      25     H     0.42145  0.42145  0.00000  0.15711
      26     H     0.41961  0.41961  0.00000  0.16077
      27     H     0.42121  0.42121  0.00000  0.15758
      28     H     0.41689  0.41689  0.00000  0.16623

   Total alpha = 40.00000, Total beta = 40.00000, Total charge =  0.00000
