  ==> Input File <==

--------------------------------------------------------------------------
set {
	reference rhf
	basis 6-31G*
}

set_num_threads( 4 )
memory 2 gb

molecule MOL {
0 1

H	 -1.528721	 -1.220648	 0.485184
O	 -1.422729	 -0.573567	 -0.196946
C	 -0.731407	 0.539437	 0.309156
C	 0.680193	 0.672443	 -0.251532
H	 -1.319765	 1.404033	 0.030086
H	 -0.700012	 0.506517	 1.397677
C	 1.599139	 -0.492137	 0.118598
H	 0.616402	 0.758534	 -1.332349
H	 1.107032	 1.602637	 0.117369
H	 1.239738	 -1.428634	 -0.297334
H	 2.601428	 -0.335055	 -0.265730
H	 1.674954	 -0.608418	 1.197020

	symmetry c1
}
set optking {
	frozen_dihedral = ("
		1 2 3 4
	")
}

ee = optimize('scf')
oeprop('DIPOLE', 'QUADRUPOLE', 'MULLIKEN_CHARGES')
f=open( 'psi4out.xyz', 'w' )
f.write( "12  " )
f.write( str(ee) + "\n" )
f.write( MOL.save_string_xyz() )
f.close()
--------------------------------------------------------------------------

    Molecular point group: c1
  Charge       = 0
  Multiplicity = 1
  Basis Set: 6-31G*
  Basis Set:
  @DF-RHF Final Energy:  -193.10860272372139
    Total Energy =                       -193.1086027237213329
    Molecular point group: c1
  Basis Set: 6-31G*
  Basis Set:
  Basis Set: 6-31G*
  Basis Set:
  @DF-RHF Final Energy:  -193.10890634476340
    Total Energy =                       -193.1089063447633123
  Basis Set: 6-31G*
  Basis Set:
  Basis Set: 6-31G*
  Basis Set:
  @DF-RHF Final Energy:  -193.10897244624698
    Total Energy =                       -193.1089724462469235
  Basis Set: 6-31G*
  Basis Set:
  Basis Set: 6-31G*
  Basis Set:
  @DF-RHF Final Energy:  -193.10897820272527
    Total Energy =                       -193.1089782027252113
  Basis Set: 6-31G*
  Basis Set:
  Basis Set: 6-31G*
  Basis Set:
  @DF-RHF Final Energy:  -193.10898192660665
    Total Energy =                       -193.1089819266066456
  Basis Set: 6-31G*
  Basis Set:
  Charge       = 0
  Multiplicity = 1
  Basis Set: 6-31G*
  Basis Set:

    Orbital Energies (a.u.)
    -----------------------

    Doubly Occupied:

       1A    -20.552532     2A    -11.268601     3A    -11.214555
       4A    -11.209277     5A     -1.358771     6A     -1.047881
       7A     -0.922695     8A     -0.802502     9A     -0.703743
      10A     -0.635982    11A     -0.594784    12A     -0.584490
      13A     -0.522307    14A     -0.513424    15A     -0.488682
      16A     -0.467721    17A     -0.428181

  @DF-RHF Final Energy:  -193.10898200458809

   => Energetics <=

    Nuclear Repulsion Energy =            133.0932425635675145
    One-Electron Energy =                -525.7721936416069184
    Two-Electron Energy =                 199.5699690734513752
    DFT Exchange-Correlation Energy =       0.0000000000000000
    Empirical Dispersion Energy =           0.0000000000000000
    PCM Polarization Energy =               0.0000000000000000
    EFP Energy =                            0.0000000000000000
    Total Energy =                       -193.1089820045880288
    Molecular point group: c1
  Basis Set: 6-31G*
  Basis Set:

  -Total Gradient:
     Atom            X                  Y                   Z
    ------   -----------------  -----------------  -----------------
       1       -0.000661964677     0.000289946290     0.000214474678
       2        0.000749427346    -0.000218690579    -0.000393073948
       3        0.000089254987    -0.000320409132     0.000519457123
       4       -0.000169621572     0.000300630243    -0.000335822537
       5       -0.000002886947    -0.000023585516    -0.000011437698
       6        0.000001294845    -0.000002325638     0.000010358356
       7       -0.000008331366    -0.000005323178    -0.000011892967
       8        0.000008283191     0.000002995678    -0.000006970997
       9       -0.000012552077    -0.000008746608     0.000008551093
      10        0.000002369841    -0.000014444402     0.000014316694
      11       -0.000003951661    -0.000005294542    -0.000005935259
      12        0.000008678091     0.000005247384    -0.000002024538

  **** Optimization is complete! (in 6 steps) ****
    Final optimized geometry and variables:
    Molecular point group: c1

    Geometry (in Angstrom), charge = 0, multiplicity = 1:

    H           -1.496362478534    -1.245351034920     0.441017202655
    O           -1.389556775064    -0.581819188022    -0.222619996053
    C           -0.728463925871     0.541711681087     0.311508197822
    C            0.680199317586     0.673668219831    -0.250509029976
    H           -1.310944948932     1.419181315036     0.052486150112
    H           -0.694713853859     0.486769294861     1.397562467313
    C            1.590663317056    -0.494032890136     0.124369201084
    H            0.610529534122     0.751432584223    -1.331648211604
    H            1.107552326584     1.608191544299     0.107605848222
    H            1.189834797319    -1.430107981598    -0.248270041080
    H            2.583108316221    -0.367321231682    -0.296024727785
    H            1.699193516578    -0.577857039401     1.203262788653

  Mulliken Charges: (a.u.)
   Center  Symbol    Alpha    Beta     Spin     Total
       1     H     0.27918  0.27918  0.00000  0.44164
       2     O     4.37169  4.37169  0.00000 -0.74337
       3     C     2.99939  2.99939  0.00000  0.00122
       4     C     3.15575  3.15575  0.00000 -0.31150
       5     H     0.41862  0.41862  0.00000  0.16275
       6     H     0.43231  0.43231  0.00000  0.13537
       7     C     3.24607  3.24607  0.00000 -0.49215
       8     H     0.41429  0.41429  0.00000  0.17142
       9     H     0.42512  0.42512  0.00000  0.14976
      10     H     0.41384  0.41384  0.00000  0.17232
      11     H     0.41746  0.41746  0.00000  0.16508
      12     H     0.42627  0.42627  0.00000  0.14746

   Total alpha = 17.00000, Total beta = 17.00000, Total charge =  0.00000
