  ==> Input File <==

--------------------------------------------------------------------------
set {
	reference rhf
	basis 6-31G*
}

set_num_threads( 4 )
memory 2 gb

molecule MOL {
0 1

O	 -0.342034	 0.162125	 -2.918108
C	 -0.983562	 0.409449	 -1.942554
C	 -0.889235	 -0.467034	 -0.705952
C	 -1.891995	 1.616730	 -1.874744
C	 0.379448	 -0.143569	 0.099626
H	 -0.854567	 -1.499436	 -1.036478
H	 -1.768404	 -0.341407	 -0.080407
C	 1.631333	 -0.777471	 -0.511575
H	 0.482768	 0.934507	 0.149241
H	 0.263088	 -0.495696	 1.123449
C	 2.915987	 -0.544314	 0.291766
H	 1.766672	 -0.399098	 -1.523130
H	 1.471257	 -1.849544	 -0.605828
C	 3.373361	 0.914346	 0.347591
H	 3.708709	 -1.142521	 -0.150311
H	 2.780642	 -0.921148	 1.303579
H	 3.506512	 1.320010	 -0.651625
H	 4.322697	 0.999599	 0.867103
H	 2.660624	 1.545032	 0.868198
H	 -2.926581	 1.291752	 -1.802050
H	 -1.767848	 2.223745	 -2.760693
H	 -1.679456	 2.208519	 -0.989071

	symmetry c1
}
set optking {
	frozen_dihedral = ("
		6 3 5 8
	")
}

ee = optimize('scf')
oeprop('DIPOLE', 'QUADRUPOLE', 'MULLIKEN_CHARGES')
f=open( 'psi4out.xyz', 'w' )
f.write( "22  " )
f.write( str(ee) + "\n" )
f.write( MOL.save_string_xyz() )
f.close()
--------------------------------------------------------------------------

    Molecular point group: c1
  Charge       = 0
  Multiplicity = 1
  Basis Set: 6-31G*
  Basis Set:
  @DF-RHF Final Energy:  -348.09622398636310
    Total Energy =                       -348.0962239863633272
    Molecular point group: c1
  Basis Set: 6-31G*
  Basis Set:
  Basis Set: 6-31G*
  Basis Set:
  @DF-RHF Final Energy:  -348.09658915336803
    Total Energy =                       -348.0965891533680860
  Basis Set: 6-31G*
  Basis Set:
  Basis Set: 6-31G*
  Basis Set:
  @DF-RHF Final Energy:  -348.09534990130959
    Total Energy =                       -348.0953499013096462
  Basis Set: 6-31G*
  Basis Set:
  Basis Set: 6-31G*
  Basis Set:
  @DF-RHF Final Energy:  -348.09672467162477
    Total Energy =                       -348.0967246716247701
  Basis Set: 6-31G*
  Basis Set:
  @DF-RHF Final Energy:  -348.09677192454552
    Total Energy =                       -348.0967719245456351
  Basis Set: 6-31G*
  Basis Set:
  @DF-RHF Final Energy:  -348.09674877686695
    Total Energy =                       -348.0967487768668889
  Basis Set: 6-31G*
  Basis Set:
  Basis Set: 6-31G*
  Basis Set:
  @DF-RHF Final Energy:  -348.09678941915450
    Total Energy =                       -348.0967894191546179
  Basis Set: 6-31G*
  Basis Set:
  Basis Set: 6-31G*
  Basis Set:
  @DF-RHF Final Energy:  -348.09680727165926
    Total Energy =                       -348.0968072716593724
  Basis Set: 6-31G*
  Basis Set:
  Charge       = 0
  Multiplicity = 1
  Basis Set: 6-31G*
  Basis Set:

    Orbital Energies (a.u.)
    -----------------------

    Doubly Occupied:

       1A    -20.548337     2A    -11.324711     3A    -11.231290
       4A    -11.229677     5A    -11.228226     6A    -11.217367
       7A    -11.215187     8A    -11.210128     9A     -1.393540
      10A     -1.093533    11A     -1.042912    12A     -0.997833
      13A     -0.935735    14A     -0.858171    15A     -0.785610
      16A     -0.732933    17A     -0.658615    18A     -0.643506
      19A     -0.626170    20A     -0.610753    21A     -0.599572
      22A     -0.582757    23A     -0.561428    24A     -0.545382
      25A     -0.532655    26A     -0.516782    27A     -0.506206
      28A     -0.485104    29A     -0.468275    30A     -0.460630
      31A     -0.452771    32A     -0.396441

  @DF-RHF Final Energy:  -348.09680803375778

   => Energetics <=

    Nuclear Repulsion Energy =            380.6335768260490227
    One-Electron Energy =               -1226.0762930143791891
    Two-Electron Energy =                 497.3459081545722711
    DFT Exchange-Correlation Energy =       0.0000000000000000
    Empirical Dispersion Energy =           0.0000000000000000
    PCM Polarization Energy =               0.0000000000000000
    EFP Energy =                            0.0000000000000000
    Total Energy =                       -348.0968080337579522
    Molecular point group: c1
  Basis Set: 6-31G*
  Basis Set:

  -Total Gradient:
     Atom            X                  Y                   Z
    ------   -----------------  -----------------  -----------------
       1        0.000012969155    -0.000002239863     0.000003658021
       2        0.000012217436     0.000026609098    -0.000009465538
       3       -0.001328204024    -0.001327889118     0.002629408526
       4       -0.000089050019    -0.000043243923    -0.000050845299
       5        0.000554682697     0.001983858274    -0.001649542762
       6        0.001021539495     0.000655333015    -0.001832592544
       7       -0.000002628317    -0.000006695161     0.000002060307
       8       -0.000202104978    -0.001303518637     0.000838577962
       9        0.000003086713     0.000000954593     0.000002013444
      10       -0.000017483357    -0.000001015673    -0.000019321091
      11       -0.000000797574     0.000006601387     0.000010671778
      12       -0.000008444614    -0.000008101018     0.000000142871
      13       -0.000022834371     0.000001203813     0.000008485159
      14        0.000000922956    -0.000010788498    -0.000000162793
      15        0.000006736650     0.000012448533     0.000003312097
      16        0.000005021100    -0.000002182453     0.000007493088
      17       -0.000013414053    -0.000007595491     0.000005703800
      18        0.000007406070    -0.000000580024    -0.000000558311
      19       -0.000001421899     0.000000866480     0.000001886739
      20        0.000009291784     0.000023013246     0.000029164943
      21        0.000017721623    -0.000002226884     0.000005253466
      22        0.000034787526     0.000005188301     0.000014656139

  **** Optimization is complete! (in 9 steps) ****
    Final optimized geometry and variables:
    Molecular point group: c1

    Geometry (in Angstrom), charge = 0, multiplicity = 1:

    O           -1.044808026547    -0.109165153978    -2.090793490860
    C           -1.529241090834     0.210400406982    -1.047411357413
    C           -1.414827814340    -0.672473563351     0.182886779335
    C           -2.275528096907     1.518722244246    -0.892987063643
    C           -0.153003442338    -0.336819052113     1.005810316427
    H           -1.367106247355    -1.698287603835    -0.163524202159
    H           -2.299297370708    -0.553667142150     0.801371178277
    C            1.127656762008    -0.932810608037     0.413926219832
    H           -0.062258251202     0.740728715593     1.111759118000
    H           -0.289050111028    -0.726924849551     2.011250409321
    C            2.391684386380    -0.642122946596     1.231058471864
    H            1.262874738368    -0.578390345884    -0.603944996874
    H            0.998920370031    -2.010301247544     0.344179291665
    C            2.818731095274     0.827069120240     1.241896329940
    H            3.204923620468    -1.236588380504     0.822835634392
    H            2.249569920944    -0.985941943544     2.253915812208
    H            2.956951998484     1.199651497971     0.230717886842
    H            3.758827784884     0.950740240743     1.770551128223
    H            2.087017650879     1.461644840242     1.731524951384
    H           -3.335991750478     1.315119110709    -0.768788512060
    H           -2.131953719220     2.130562238598    -1.772675606437
    H           -1.947274366783     2.057985863723    -0.009980994607

  Mulliken Charges: (a.u.)
   Center  Symbol    Alpha    Beta     Spin     Total
       1     O     4.26119  4.26119  0.00000 -0.52238
       2     C     2.73821  2.73821  0.00000  0.52358
       3     C     3.20273  3.20273  0.00000 -0.40546
       4     C     3.28903  3.28903  0.00000 -0.57806
       5     C     3.16578  3.16578  0.00000 -0.33157
       6     H     0.40018  0.40018  0.00000  0.19965
       7     H     0.41383  0.41383  0.00000  0.17234
       8     C     3.15532  3.15532  0.00000 -0.31063
       9     H     0.41794  0.41794  0.00000  0.16412
      10     H     0.41530  0.41530  0.00000  0.16941
      11     C     3.15421  3.15421  0.00000 -0.30842
      12     H     0.40775  0.40775  0.00000  0.18450
      13     H     0.42009  0.42009  0.00000  0.15981
      14     C     3.24176  3.24176  0.00000 -0.48352
      15     H     0.41852  0.41852  0.00000  0.16297
      16     H     0.42430  0.42430  0.00000  0.15141
      17     H     0.41945  0.41945  0.00000  0.16110
      18     H     0.41844  0.41844  0.00000  0.16312
      19     H     0.42269  0.42269  0.00000  0.15462
      20     H     0.40632  0.40632  0.00000  0.18737
      21     H     0.39703  0.39703  0.00000  0.20594
      22     H     0.40995  0.40995  0.00000  0.18009

   Total alpha = 32.00000, Total beta = 32.00000, Total charge =  0.00000
