  ==> Input File <==

--------------------------------------------------------------------------
set {
	reference rhf
	basis cc-pvtz
}

set_num_threads( 4 )
memory 2 gb

molecule MOL {
0 1

H	 2.606349	 -0.692043	 1.216423
O	 1.867289	 -1.025801	 0.730490
C	 0.900123	 -0.113344	 0.755643
C	 -0.318151	 -0.570512	 0.000144
O	 1.024428	 0.920240	 1.316197
C	 -1.454884	 0.441630	 -0.000560
H	 0.001142	 -0.805108	 -1.010256
H	 -0.630552	 -1.513526	 0.437215
C	 -2.822577	 -0.232186	 0.000063
H	 -1.359760	 1.084704	 -0.867077
H	 -1.359641	 1.085996	 0.864983
H	 -2.954352	 -0.858985	 -0.875745
H	 -3.615886	 0.505352	 0.000019
H	 -2.953878	 -0.858359	 0.876394

	symmetry c1
}
set optking {
	frozen_dihedral = ("
		7 4 6 10
	")
}

ee = optimize('scf')
oeprop('DIPOLE', 'QUADRUPOLE', 'MULLIKEN_CHARGES')
f=open( 'psi4out.xyz', 'w' )
f.write( "14  " )
f.write( str(ee) + "\n" )
f.write( MOL.save_string_xyz() )
f.close()
--------------------------------------------------------------------------

    Molecular point group: c1
  Charge       = 0
  Multiplicity = 1
  Basis Set: CC-PVTZ
  Basis Set:
  @DF-RHF Final Energy:  -305.99798773300830
    Total Energy =                       -305.9979877330081308
    Molecular point group: c1
  Basis Set: CC-PVTZ
  Basis Set:
  Basis Set: CC-PVTZ
  Basis Set:
  @DF-RHF Final Energy:  -305.99826774468249
    Total Energy =                       -305.9982677446826642
  Basis Set: CC-PVTZ
  Basis Set:
  Basis Set: CC-PVTZ
  Basis Set:
  @DF-RHF Final Energy:  -305.99810236920791
    Total Energy =                       -305.9981023692080271
  Basis Set: CC-PVTZ
  Basis Set:
  Basis Set: CC-PVTZ
  Basis Set:
  @DF-RHF Final Energy:  -305.99832472078526
    Total Energy =                       -305.9983247207849786
  Basis Set: CC-PVTZ
  Basis Set:
  Charge       = 0
  Multiplicity = 1
  Basis Set: CC-PVTZ
  Basis Set:

    Orbital Energies (a.u.)
    -----------------------

    Doubly Occupied:

       1A    -20.604378     2A    -20.541296     3A    -11.374210
       4A    -11.240105     5A    -11.223077     6A    -11.214874
       7A     -1.478206     8A     -1.369616     9A     -1.082705
      10A     -0.980997    11A     -0.858936    12A     -0.792211
      13A     -0.704544    14A     -0.692771    15A     -0.667721
      16A     -0.617787    17A     -0.597467    18A     -0.572457
      19A     -0.550956    20A     -0.501949    21A     -0.491788
      22A     -0.484815    23A     -0.481771    24A     -0.448058

  @DF-RHF Final Energy:  -305.99832583365946

   => Energetics <=

    Nuclear Repulsion Energy =            240.4664094470797409
    One-Electron Energy =                -893.7840826632974540
    Two-Electron Energy =                 347.3193473825580782
    DFT Exchange-Correlation Energy =       0.0000000000000000
    Empirical Dispersion Energy =           0.0000000000000000
    PCM Polarization Energy =               0.0000000000000000
    EFP Energy =                            0.0000000000000000
    Total Energy =                       -305.9983258336596350
    Molecular point group: c1
  Basis Set: CC-PVTZ
  Basis Set:

  -Total Gradient:
     Atom            X                  Y                   Z
    ------   -----------------  -----------------  -----------------
       1        0.000046950863    -0.000022607718     0.000010807668
       2       -0.000010054673     0.000096070453     0.000036123938
       3       -0.000094900286    -0.000138767962    -0.000081546467
       4       -0.003666463212    -0.004018170537    -0.000607414030
       5        0.000056656077     0.000043360645     0.000034465511
       6        0.003205826365     0.003589656496     0.002475533013
       7        0.002518339590     0.002805515938     0.000112099808
       8       -0.000003185155    -0.000000414379    -0.000003544811
       9        0.000042469600     0.000023466434     0.000014218810
      10       -0.002080865128    -0.002359182922    -0.001998979443
      11        0.000006275265    -0.000015249382     0.000006764658
      12        0.000000559883     0.000003029456     0.000006637294
      13       -0.000013830269     0.000002136081    -0.000003751219
      14       -0.000007778917    -0.000008842606    -0.000001414730

  **** Optimization is complete! (in 5 steps) ****
    Final optimized geometry and variables:
    Molecular point group: c1

    Geometry (in Angstrom), charge = 0, multiplicity = 1:

    H            2.722389921155    -0.585169152959     0.685255939839
    O            1.968322200906    -0.919860063775     0.223635941603
    C            1.004503154245    -0.004388412453     0.272157528235
    C           -0.235576190582    -0.470479497220    -0.447141620448
    O            1.151310018996     1.031972175045     0.821997167017
    C           -1.375271587237     0.548790153434    -0.448898094552
    H            0.085865713666    -0.708436543074    -1.455186533200
    H           -0.531031184540    -1.406721401960     0.013037259318
    C           -2.745877727460    -0.121779125171    -0.501788575081
    H           -1.276926762845     1.190722292226    -1.316725545527
    H           -1.302803852923     1.177640425213     0.426516457585
    H           -2.842968769586    -0.756936118766    -1.376349848620
    H           -3.536271541391     0.618061812610    -0.542879796144
    H           -2.914743471279    -0.738638188616     0.374544751252

  Mulliken Charges: (a.u.)
   Center  Symbol    Alpha    Beta     Spin     Total
       1     H     0.38233  0.38233  0.00000  0.23533
       2     O     4.16065  4.16065  0.00000 -0.32129
       3     C     2.80296  2.80296  0.00000  0.39408
       4     C     3.10885  3.10885  0.00000 -0.21769
       5     O     4.19050  4.19050  0.00000 -0.38100
       6     C     3.08408  3.08408  0.00000 -0.16815
       7     H     0.43610  0.43610  0.00000  0.12780
       8     H     0.43862  0.43862  0.00000  0.12277
       9     C     3.14942  3.14942  0.00000 -0.29884
      10     H     0.45172  0.45172  0.00000  0.09657
      11     H     0.43786  0.43786  0.00000  0.12429
      12     H     0.45532  0.45532  0.00000  0.08937
      13     H     0.44646  0.44646  0.00000  0.10709
      14     H     0.45516  0.45516  0.00000  0.08968

   Total alpha = 24.00000, Total beta = 24.00000, Total charge = -0.00000
