  ==> Input File <==

--------------------------------------------------------------------------
set {
	reference rhf
	basis 6-31G*
}

set_num_threads( 1 )
memory 2 gb

molecule MOL {
0 1

H	 -1.591170	 -0.692431	 -3.342959
C	 -2.282207	 -0.696481	 -2.490860
C	 -1.879181	 -1.592881	 -1.347773
O	 -3.263590	 -0.027098	 -2.514629
C	 -0.442476	 -1.332686	 -0.874029
H	 -2.593770	 -1.463496	 -0.543204
H	 -1.958684	 -2.619576	 -1.703064
C	 -0.252658	 0.041456	 -0.226725
H	 -0.169133	 -2.107039	 -0.163435
H	 0.240337	 -1.439603	 -1.715511
C	 1.180775	 0.282413	 0.250794
H	 -0.936436	 0.136192	 0.614298
H	 -0.532037	 0.822891	 -0.930889
C	 2.148627	 -0.814315	 -0.201312
H	 1.516199	 1.249228	 -0.115937
H	 1.192670	 0.346017	 1.338083
C	 3.580890	 -0.659131	 0.322722
H	 2.166869	 -0.852443	 -1.289387
H	 1.762857	 -1.776509	 0.128956
C	 4.324889	 0.564933	 -0.213704
H	 4.142010	 -1.551473	 0.056605
H	 3.564836	 -0.624694	 1.410140
H	 4.342616	 0.565491	 -1.300421
H	 3.866655	 1.493402	 0.110242
H	 5.353900	 0.572371	 0.132816

	symmetry c1
}
set optking {
	frozen_dihedral = ("
		6 3 5 8,
		6 3 2 4,
		3 5 8 12,
		8 11 14 18,
		20 17 14 18
	")
}

ee = energy('scf')
oeprop('DIPOLE', 'QUADRUPOLE', 'MULLIKEN_CHARGES')
f=open( 'psi4out.xyz', 'w' )
f.write( "25  " )
f.write( str(ee) + "\n" )
f.write( MOL.save_string_xyz() )
f.close()
--------------------------------------------------------------------------

    Molecular point group: c1

    Geometry (in Angstrom), charge = 0, multiplicity = 1:

       Center              X                  Y                   Z               Mass
    ------------   -----------------  -----------------  -----------------  -----------------
           H         -1.941389492112    -0.232569174451    -2.523705780277     1.007825032070
           C         -2.632426492112    -0.236619174451    -1.671606780277    12.000000000000
           C         -2.229400492112    -1.133019174451    -0.528519780277    12.000000000000
           O         -3.613809492112     0.432763825549    -1.695375780277    15.994914619560
           C         -0.792695492112    -0.872824174451    -0.054775780277    12.000000000000
           H         -2.943989492112    -1.003634174451     0.276049219723     1.007825032070
           H         -2.308903492112    -2.159714174451    -0.883810780277     1.007825032070
           C         -0.602877492112     0.501317825549     0.592528219723    12.000000000000
           H         -0.519352492112    -1.647177174451     0.655818219723     1.007825032070
           H         -0.109882492112    -0.979741174451    -0.896257780277     1.007825032070
           C          0.830555507888     0.742274825549     1.070047219723    12.000000000000
           H         -1.286655492112     0.596053825549     1.433551219723     1.007825032070
           H         -0.882256492112     1.282752825549    -0.111635780277     1.007825032070
           C          1.798407507888    -0.354453174451     0.617941219723    12.000000000000
           H          1.165979507888     1.709089825549     0.703316219723     1.007825032070
           H          0.842450507888     0.805878825549     2.157336219723     1.007825032070
           C          3.230670507888    -0.199269174451     1.141975219723    12.000000000000
           H          1.816649507888    -0.392581174451    -0.470133780277     1.007825032070
           H          1.412637507888    -1.316647174451     0.948209219723     1.007825032070
           C          3.974669507888     1.024794825549     0.605549219723    12.000000000000
           H          3.791790507888    -1.091611174451     0.875858219723     1.007825032070
           H          3.214616507888    -0.164832174451     2.229393219723     1.007825032070
           H          3.992396507888     1.025352825549    -0.481167780277     1.007825032070
           H          3.516435507888     1.953263825549     0.929495219723     1.007825032070
           H          5.003680507888     1.032232825549     0.952069219723     1.007825032070

  Charge       = 0
  Multiplicity = 1
  Basis Set: 6-31G*
  Basis Set:

    Orbital Energies (a.u.)
    -----------------------

    Doubly Occupied:

       1A    -20.561211     2A    -11.325380     3A    -11.233431
       4A    -11.232815     5A    -11.222711     6A    -11.218849
       7A    -11.218594     8A    -11.217932     9A    -11.211145
      10A     -1.401235    11A     -1.108453    12A     -1.066462
      13A     -1.013216    14A     -0.936864    15A     -0.888620
      16A     -0.825235    17A     -0.794835    18A     -0.760944
      19A     -0.666050    20A     -0.660382    21A     -0.632615
      22A     -0.630240    23A     -0.605729    24A     -0.587430
      25A     -0.579925    26A     -0.550917    27A     -0.542792
      28A     -0.525459    29A     -0.517368    30A     -0.501838
      31A     -0.485428    32A     -0.475646    33A     -0.454566
      34A     -0.449552    35A     -0.446507    36A     -0.407813

  @DF-RHF Final Energy:  -387.10676898133664

   => Energetics <=

    Nuclear Repulsion Energy =            448.1264202675751562
    One-Electron Energy =               -1412.5501318318042649
    Two-Electron Energy =                 577.3169425828900785
    DFT Exchange-Correlation Energy =       0.0000000000000000
    Empirical Dispersion Energy =           0.0000000000000000
    PCM Polarization Energy =               0.0000000000000000
    EFP Energy =                            0.0000000000000000
    Total Energy =                       -387.1067689813389734

  Mulliken Charges: (a.u.)
   Center  Symbol    Alpha    Beta     Spin     Total
       1     H     0.43317  0.43317  0.00000  0.13365
       2     C     2.83092  2.83092  0.00000  0.33815
       3     C     3.20468  3.20468  0.00000 -0.40937
       4     O     4.23808  4.23808  0.00000 -0.47617
       5     C     3.17500  3.17500  0.00000 -0.35000
       6     H     0.40046  0.40046  0.00000  0.19909
       7     H     0.40738  0.40738  0.00000  0.18525
       8     C     3.15753  3.15753  0.00000 -0.31505
       9     H     0.41104  0.41104  0.00000  0.17793
      10     H     0.41655  0.41655  0.00000  0.16689
      11     C     3.15752  3.15752  0.00000 -0.31504
      12     H     0.41521  0.41521  0.00000  0.16958
      13     H     0.41601  0.41601  0.00000  0.16798
      14     C     3.16111  3.16111  0.00000 -0.32223
      15     H     0.41609  0.41609  0.00000  0.16782
      16     H     0.41962  0.41962  0.00000  0.16077
      17     C     3.14929  3.14929  0.00000 -0.29859
      18     H     0.42339  0.42339  0.00000  0.15322
      19     H     0.42018  0.42018  0.00000  0.15964
      20     C     3.24156  3.24156  0.00000 -0.48313
      21     H     0.42129  0.42129  0.00000  0.15743
      22     H     0.42310  0.42310  0.00000  0.15381
      23     H     0.42258  0.42258  0.00000  0.15483
      24     H     0.41962  0.41962  0.00000  0.16077
      25     H     0.41862  0.41862  0.00000  0.16276

   Total alpha = 36.00000, Total beta = 36.00000, Total charge = -0.00000
