                              Psi4 1.0.54 Driver

  ==> Input File <==

--------------------------------------------------------------------------
set {
	reference rhf
	basis cc-pvtz
}

set_num_threads( 4 )
memory 2 gb

molecule MOL {
0 1

O	 -2.071633	 -1.227563	 -0.223463
C	 -1.652164	 -0.152425	 0.058082
C	 -0.327811	 0.006324	 0.778296
C	 -2.402515	 1.108629	 -0.298924
C	 0.843231	 -0.001575	 -0.211665
H	 -0.319484	 0.928173	 1.350354
H	 -0.227804	 -0.823091	 1.466705
C	 2.197693	 0.138030	 0.476937
H	 0.722944	 0.805202	 -0.930230
H	 0.813976	 -0.926978	 -0.776588
C	 2.349672	 1.458052	 1.225006
H	 2.336898	 -0.687729	 1.169228
H	 2.985502	 0.050737	 -0.265544
H	 1.596111	 1.559075	 1.998940
H	 2.246884	 2.302561	 0.552244
H	 3.321609	 1.528900	 1.699052
H	 -3.240910	 0.874416	 -0.936711
H	 -1.747554	 1.818823	 -0.790984
H	 -2.760419	 1.579708	 0.610998

	symmetry c1
}
set optking {
	frozen_dihedral = ("
		11 8 5 9
	")
}

ee,wfn = optimize('scf', return_wfn=True)
oeprop( wfn, 'DIPOLE', 'QUADRUPOLE', 'MULLIKEN_CHARGES')
f=open( 'psi4out.xyz', 'w' )
f.write( "19  " )
f.write( str(ee) + "\n" )
f.write( MOL.save_string_xyz() )
f.close()
--------------------------------------------------------------------------

    Molecular point group: c1
  Charge       = 0
  Multiplicity = 1
  Basis Set: CC-PVTZ
  Basis Set:
  @DF-RHF Final Energy:  -309.17492270591623
    Total Energy =                       -309.1749227059162877
    Molecular point group: c1
  Basis Set: CC-PVTZ
  Basis Set:
  Basis Set: CC-PVTZ
  Basis Set:
  @DF-RHF Final Energy:  -309.17535156904978
    Total Energy =                       -309.1753515690497238
  Basis Set: CC-PVTZ
  Basis Set:
  Basis Set: CC-PVTZ
  Basis Set:
  @DF-RHF Final Energy:  -309.17567210512078
    Total Energy =                       -309.1756721051204977
  Basis Set: CC-PVTZ
  Basis Set:
  Basis Set: CC-PVTZ
  Basis Set:
  @DF-RHF Final Energy:  -309.17512595006662
    Total Energy =                       -309.1751259500665014
  Basis Set: CC-PVTZ
  Basis Set:
  Basis Set: CC-PVTZ
  Basis Set:
  @DF-RHF Final Energy:  -309.17569026543924
    Total Energy =                       -309.1756902654396981
  Basis Set: CC-PVTZ
  Basis Set:
  Basis Set: CC-PVTZ
  Basis Set:
  @DF-RHF Final Energy:  -309.17568596408745
    Total Energy =                       -309.1756859640872790
  Basis Set: CC-PVTZ
  Basis Set:
  Basis Set: CC-PVTZ
  Basis Set:
  @DF-RHF Final Energy:  -309.17569790745762
    Total Energy =                       -309.1756979074574474
  Basis Set: CC-PVTZ
  Basis Set:
  Charge       = 0
  Multiplicity = 1
  Basis Set: CC-PVTZ
  Basis Set:

    Orbital Energies (a.u.)
    -----------------------

    Doubly Occupied:

       1A    -20.536818     2A    -11.319399     3A    -11.229137
       4A    -11.227498     5A    -11.226895     6A    -11.223428
       7A    -11.214932     8A     -1.396990     9A     -1.092823
      10A     -1.029091    11A     -0.982901    12A     -0.901293
      13A     -0.799372    14A     -0.736375    15A     -0.660440
      16A     -0.653218    17A     -0.621607    18A     -0.606301
      19A     -0.599694    20A     -0.570803    21A     -0.553110
      22A     -0.541907    23A     -0.522736    24A     -0.499465
      25A     -0.481571    26A     -0.474372    27A     -0.466653
      28A     -0.399688

  @DF-RHF Final Energy:  -309.17569918459418

   => Energetics <=

    Nuclear Repulsion Energy =            305.1116082559551046
    One-Electron Energy =               -1023.4375841244404910
    Two-Electron Energy =                 409.1502766838905814
    DFT Exchange-Correlation Energy =       0.0000000000000000
    Empirical Dispersion Energy =           0.0000000000000000
    PCM Polarization Energy =               0.0000000000000000
    EFP Energy =                            0.0000000000000000
    Total Energy =                       -309.1756991845947482
    Molecular point group: c1
  Basis Set: CC-PVTZ
  Basis Set:

  -Total Gradient:
     Atom            X                  Y                   Z
    ------   -----------------  -----------------  -----------------
       1        0.000003373428     0.000010873469    -0.000037061429
       2       -0.000014639159     0.000043004858     0.000079524302
       3        0.000019328115    -0.000015181536    -0.000020059542
       4       -0.000015713916    -0.000026615553    -0.000004033941
       5       -0.000384237988     0.000327831740     0.000692873325
       6        0.000000895780    -0.000003640163    -0.000007121226
       7       -0.000008314505     0.000006343996     0.000003469011
       8        0.000301188061     0.000201495241    -0.000610134262
       9        0.000250015101    -0.000315795348    -0.000432193398
      10        0.000006739288     0.000011593366     0.000005468776
      11       -0.000174582306    -0.000201173181     0.000341735396
      12       -0.000002499938     0.000005125262     0.000009015222
      13        0.000006810273     0.000002832408     0.000004894394
      14        0.000001254715    -0.000002736705    -0.000004972151
      15       -0.000001490403    -0.000015323317     0.000007528200
      16       -0.000009210415    -0.000007786498    -0.000013165826
      17       -0.000001753081     0.000001683604    -0.000008216196
      18        0.000007122526    -0.000012822690    -0.000000791590
      19        0.000015714419    -0.000009708951    -0.000006759063

  **** Optimization is complete! (in 8 steps) ****
    Final optimized geometry and variables:
    Molecular point group: c1

    Geometry (in Angstrom), charge = 0, multiplicity = 1:

    O           -1.838801764182    -1.521245743307    -0.523535381166
    C           -1.496368244597    -0.420553236200    -0.236602691047
    C           -0.206397698767    -0.174032853168     0.520646368045
    C           -2.315058487342     0.788480461511    -0.622424990457
    C            0.984637217942    -0.098093362241    -0.444520315234
    H           -0.286841669559     0.738906618887     1.098117880068
    H           -0.065686891406    -1.001609374041     1.204665829509
    C            2.342692586816     0.037240899739     0.245239527003
    H            0.849990536098     0.731747009610    -1.133879322234
    H            0.987593775866    -0.999817260857    -1.046072177541
    C            2.528013039506     1.318729743150     1.053325703343
    H            2.500006179100    -0.821892604391     0.891060316824
    H            3.113195393474    -0.011593432669    -0.517419140840
    H            1.852035438248     1.367797887025     1.898520667324
    H            2.356604760889     2.197155353743     0.439115184778
    H            3.537293036441     1.382047552879     1.442660659911
    H           -3.115685474932     0.498845223116    -1.285480271369
    H           -1.692432363793     1.538982696384    -1.096129391435
    H           -2.731971290672     1.236707859823     0.273808021062

  Mulliken Charges: (a.u.)
   Center  Symbol    Alpha    Beta     Spin     Total
       1     O     4.17692  4.17692  0.00000 -0.35384
       2     C     2.85670  2.85670  0.00000  0.28660
       3     C     3.10108  3.10108  0.00000 -0.20215
       4     C     3.15609  3.15609  0.00000 -0.31218
       5     C     3.10600  3.10600  0.00000 -0.21201
       6     H     0.44791  0.44791  0.00000  0.10418
       7     H     0.43940  0.43940  0.00000  0.12120
       8     C     3.09068  3.09068  0.00000 -0.18135
       9     H     0.45114  0.45114  0.00000  0.09772
      10     H     0.43609  0.43609  0.00000  0.12782
      11     C     3.15423  3.15423  0.00000 -0.30846
      12     H     0.45075  0.45075  0.00000  0.09849
      13     H     0.44611  0.44611  0.00000  0.10778
      14     H     0.45359  0.45359  0.00000  0.09282
      15     H     0.45454  0.45454  0.00000  0.09093
      16     H     0.44386  0.44386  0.00000  0.11228
      17     H     0.43567  0.43567  0.00000  0.12866
      18     H     0.45077  0.45077  0.00000  0.09845
      19     H     0.44848  0.44848  0.00000  0.10305

   Total alpha = 28.00000, Total beta = 28.00000, Total charge = -0.00000

*** Psi4 exiting successfully. Buy a developer a beer!
