  ==> Input File <==

--------------------------------------------------------------------------
set {
	reference rhf
	basis 6-31G*
}

set_num_threads( 4 )
memory 2 gb

molecule MOL {
0 1

H	 -2.153054	 -2.250733	 0.000000
O	 -2.462445	 -1.355403	 0.000000
C	 -1.434260	 -0.483044	 0.000000
C	 -0.160282	 -0.998433	 -0.214627
C	 -1.606806	 0.873172	 0.202032
H	 -0.050522	 -2.055314	 -0.369249
C	 0.931284	 -0.154718	 -0.225708
H	 -2.586306	 1.284548	 0.369080
C	 -0.495009	 1.711703	 0.187945
H	 1.912113	 -0.560710	 -0.392185
C	 0.777868	 1.209965	 -0.024721
C	 -0.683838	 3.129388	 0.400099
H	 1.624995	 1.868669	 -0.032793
N	 -0.834781	 4.243052	 0.567054

	symmetry c1
}
set optking {
	frozen_dihedral = ("
		5 3 2 1
	")
}

ee = optimize('scf')
oeprop('DIPOLE', 'QUADRUPOLE', 'MULLIKEN_CHARGES')
f=open( 'psi4out.xyz', 'w' )
f.write( "14  " )
f.write( str(ee) + "\n" )
f.write( MOL.save_string_xyz() )
f.close()
--------------------------------------------------------------------------

    Molecular point group: c1
  Charge       = 0
  Multiplicity = 1
  Basis Set: 6-31G*
  Basis Set:
  @DF-RHF Final Energy:  -397.28898558061854
    Total Energy =                       -397.2889855806183732
    Molecular point group: c1
  Basis Set: 6-31G*
  Basis Set:
  Basis Set: 6-31G*
  Basis Set:
  @DF-RHF Final Energy:  -397.08229644308022
    Total Energy =                       -397.0822964430796560
  Basis Set: 6-31G*
  Basis Set:
  Basis Set: 6-31G*
  Basis Set:
  @DF-RHF Final Energy:  -397.19912820326670
    Total Energy =                       -397.1991282032665254
  Basis Set: 6-31G*
  Basis Set:
  Basis Set: 6-31G*
  Basis Set:
  @DF-RHF Final Energy:  -397.24387736497192
    Total Energy =                       -397.2438773649714676
  Basis Set: 6-31G*
  Basis Set:
  @DF-RHF Final Energy:  -397.20273547509680
    Total Energy =                       -397.2027354750969153
  @DF-RHF Final Energy:  -397.18352212956853
    Total Energy =                       -397.1835221295681890
  @DF-RHF Final Energy:  -396.73691906649486
    Total Energy =                       -396.7369190664949201
  @DF-RHF Final Energy:  -397.24095507806913
    Total Energy =                       -397.2409550780692484
  @DF-RHF Final Energy:  -396.94197244339409
    Total Energy =                       -396.9419724433939791
  @DF-RHF Final Energy:  -397.25273058650367
    Total Energy =                       -397.2527305865039580
  @DF-RHF Final Energy:  -397.27103647168173
    Total Energy =                       -397.2710364716817821
  @DF-RHF Final Energy:  -397.28870372076165
    Total Energy =                       -397.2887037207615322
  @DF-RHF Final Energy:  -397.29130762754392
    Total Energy =                       -397.2913076275440289
  @DF-RHF Final Energy:  -397.29020996970922
    Total Energy =                       -397.2902099697090534
  @DF-RHF Final Energy:  -397.29124269153971
    Total Energy =                       -397.2912426915395372
  @DF-RHF Final Energy:  -397.29126214535637
    Total Energy =                       -397.2912621453563133
  @DF-RHF Final Energy:  -397.29146105839880
    Total Energy =                       -397.2914610583992499
  @DF-RHF Final Energy:  -397.29056749843977
    Total Energy =                       -397.2905674984394864
  @DF-RHF Final Energy:  -397.29128812139010
    Total Energy =                       -397.2912881213899254
  @DF-RHF Final Energy:  -397.29143733592730
    Total Energy =                       -397.2914373359274123
  @DF-RHF Final Energy:  -397.29128384461865
    Total Energy =                       -397.2912838446185333
  @DF-RHF Final Energy:  -397.24208268699272
    Total Energy =                       -397.2420826869924326
  @DF-RHF Final Energy:  -397.27684084650298
    Total Energy =                       -397.2768408465025232
  @DF-RHF Final Energy:  -397.28202815823198
    Total Energy =                       -397.2820281582321513
  @DF-RHF Final Energy:  -397.29119739065368
    Total Energy =                       -397.2911973906536787
  @DF-RHF Final Energy:  -397.29108960932950
    Total Energy =                       -397.2910896093288784
  @DF-RHF Final Energy:  -397.29145036735946
    Total Energy =                       -397.2914503673596300
  @DF-RHF Final Energy:  -397.28660668222795
    Total Energy =                       -397.2866066822277844
  @DF-RHF Final Energy:  -397.29067900571374
    Total Energy =                       -397.2906790057139688
  @DF-RHF Final Energy:  -397.29110019613574
    Total Energy =                       -397.2911001961357442
  @DF-RHF Final Energy:  -397.29145955416800
    Total Energy =                       -397.2914595541683411
  @DF-RHF Final Energy:  -397.29126812115624
    Total Energy =                       -397.2912681211562358
  @DF-RHF Final Energy:  -397.29143103950696
    Total Energy =                       -397.2914310395068469
  @DF-RHF Final Energy:  -397.29136801404940
    Total Energy =                       -397.2913680140497945
  @DF-RHF Final Energy:  -397.29136025690485
    Total Energy =                       -397.2913602569049090
  @DF-RHF Final Energy:  -397.29145201830249
    Total Energy =                       -397.2914520183024933
  Basis Set: 6-31G*
  Basis Set:
  @DF-RHF Final Energy:  -397.29106998327399
    Total Energy =                       -397.2910699832742694
  Basis Set: 6-31G*
  Basis Set:
  Basis Set: 6-31G*
  Basis Set:
  @DF-RHF Final Energy:  -397.29054422036251
    Total Energy =                       -397.2905442203626762
  Basis Set: 6-31G*
  Basis Set:
  Basis Set: 6-31G*
  Basis Set:
  @DF-RHF Final Energy:  -397.29143657516096
    Total Energy =                       -397.2914365751612422
  Basis Set: 6-31G*
  Basis Set:
  Charge       = 0
  Multiplicity = 1
  Basis Set: 6-31G*
  Basis Set:

    Orbital Energies (a.u.)
    -----------------------

    Doubly Occupied:

       1A    -20.612844     2A    -15.573560     3A    -11.326170
       4A    -11.293562     5A    -11.274700     6A    -11.264300
       7A    -11.259416     8A    -11.259048     9A    -11.258218
      10A     -1.433453    11A     -1.231382    12A     -1.181904
      13A     -1.062615    14A     -1.039856    15A     -0.899090
      16A     -0.857557    17A     -0.794086    18A     -0.714295
      19A     -0.692474    20A     -0.671107    21A     -0.628569
      22A     -0.615331    23A     -0.592933    24A     -0.564224
      25A     -0.547195    26A     -0.537448    27A     -0.524928
      28A     -0.473287    29A     -0.470979    30A     -0.362516
      31A     -0.337238

  @DF-RHF Final Energy:  -397.29146549432784

   => Energetics <=

    Nuclear Repulsion Energy =            379.3703601246238009
    One-Electron Energy =               -1290.6150815174059971
    Two-Electron Energy =                 513.9532558984544721
    DFT Exchange-Correlation Energy =       0.0000000000000000
    Empirical Dispersion Energy =           0.0000000000000000
    PCM Polarization Energy =               0.0000000000000000
    EFP Energy =                            0.0000000000000000
    Total Energy =                       -397.2914654943276673
    Molecular point group: c1
  Basis Set: 6-31G*
  Basis Set:

  -Total Gradient:
     Atom            X                  Y                   Z
    ------   -----------------  -----------------  -----------------
       1       -0.000137230282     0.000159716352     0.000967081505
       2        0.000447012753    -0.000162314058    -0.000644921300
       3       -0.000388601600    -0.000252007891    -0.001065096426
       4       -0.000241927652    -0.000090871706     0.000381888393
       5        0.000190379281     0.000022610349     0.000795982927
       6        0.000005385710     0.000028619474    -0.000348767698
       7       -0.000637809594     0.000408171641    -0.000241568188
       8       -0.000057409814    -0.000240922352    -0.000114561807
       9       -0.000394453778     0.000064106029    -0.000142220717
      10        0.000051301507     0.000129510984     0.000100135707
      11        0.000944140957    -0.000258753553     0.000809093144
      12        0.000984795519     0.000568385965    -0.000400607353
      13       -0.000331503903     0.000026307915    -0.000269900821
      14       -0.000434079101    -0.000402559131     0.000173462633

    Molecular point group: c1

    Geometry (in Angstrom), charge = 0, multiplicity = 1:

    H           -1.567795473715    -3.039498368991    -0.076825366486
    O           -1.799765368982    -2.121332145977    -0.082108146600
    C           -0.700420623565    -1.340450488208    -0.100183132225
    C            0.573795137815    -1.842157458305    -0.312540579564
    C           -0.886251950790     0.018696524719     0.104693002554
    H            0.716457279397    -2.895997837601    -0.480218308299
    C            1.664119209970    -0.986372477091    -0.314504262270
    H           -1.877136288467     0.395683069562     0.269406045380
    C            0.213088607212     0.862112847563     0.091019397284
    H            2.648507593919    -1.385675671018    -0.476571315244
    C            1.498825930942     0.369538890981    -0.112372677712
    C            0.018830724974     2.280318887496     0.300323069982
    H            2.337616113734     1.038287055249    -0.121753252549
    N           -0.147972254401     3.393794470262     0.451971463944

  Mulliken Charges: (a.u.)
   Center  Symbol    Alpha    Beta     Spin     Total
       1     H     0.26883  0.26883  0.00000  0.46233
       2     O     4.37570  4.37570  0.00000 -0.75139
       3     C     2.79328  2.79328  0.00000  0.41345
       4     C     3.13442  3.13442  0.00000 -0.26884
       5     C     3.11209  3.11209  0.00000 -0.22417
       6     H     0.39562  0.39562  0.00000  0.20876
       7     C     3.09464  3.09464  0.00000 -0.18928
       8     H     0.37323  0.37323  0.00000  0.25353
       9     C     2.99262  2.99262  0.00000  0.01476
      10     H     0.38908  0.38908  0.00000  0.22184
      11     C     3.09903  3.09903  0.00000 -0.19805
      12     C     2.86516  2.86516  0.00000  0.26968
      13     H     0.38151  0.38151  0.00000  0.23698
      14     N     3.72479  3.72479  0.00000 -0.44959

   Total alpha = 31.00000, Total beta = 31.00000, Total charge = -0.00000
