  ==> Input File <==

--------------------------------------------------------------------------
set {
	reference rhf
	basis cc-pvtz
}

set_num_threads( 4 )
memory 2 gb

molecule MOL {
0 1

H	 -2.272194	 0.277312	 0.825936
N	 -1.851927	 0.161443	 -0.071573
C	 -0.561396	 -0.500007	 0.035200
H	 -1.754069	 1.071564	 -0.470871
C	 0.575129	 0.507849	 -0.048832
H	 -0.478089	 -1.200753	 -0.788956
H	 -0.456191	 -1.081816	 0.952176
C	 1.951750	 -0.141983	 0.035101
H	 0.478254	 1.061643	 -0.975981
H	 0.467676	 1.231891	 0.755499
H	 2.101550	 -0.848142	 -0.774949
H	 2.738260	 0.600794	 -0.026526
H	 2.078939	 -0.679792	 0.968824

	symmetry c1
}
set optking {
	frozen_dihedral = ("
		1 2 3 6
	")
}

ee = optimize('scf')
oeprop('DIPOLE', 'QUADRUPOLE', 'MULLIKEN_CHARGES')
f=open( 'psi4out.xyz', 'w' )
f.write( "13  " )
f.write( str(ee) + "\n" )
f.write( MOL.save_string_xyz() )
f.close()
--------------------------------------------------------------------------

    Molecular point group: c1
  Charge       = 0
  Multiplicity = 1
  Basis Set: CC-PVTZ
  Basis Set:
  @DF-RHF Final Energy:  -173.34842226271675
    Total Energy =                       -173.3484222627168947
    Molecular point group: c1
  Basis Set: CC-PVTZ
  Basis Set:
  Basis Set: CC-PVTZ
  Basis Set:
  @DF-RHF Final Energy:  -173.34991669957810
    Total Energy =                       -173.3499166995781025
  Basis Set: CC-PVTZ
  Basis Set:
  Basis Set: CC-PVTZ
  Basis Set:
  @DF-RHF Final Energy:  -173.35013104736805
    Total Energy =                       -173.3501310473680519
  Basis Set: CC-PVTZ
  Basis Set:
  Basis Set: CC-PVTZ
  Basis Set:
  @DF-RHF Final Energy:  -173.35014910800683
    Total Energy =                       -173.3501491080068035
  Basis Set: CC-PVTZ
  Basis Set:
  Basis Set: CC-PVTZ
  Basis Set:
  @DF-RHF Final Energy:  -173.35015178439977
    Total Energy =                       -173.3501517843997988
  Basis Set: CC-PVTZ
  Basis Set:
  Charge       = 0
  Multiplicity = 1
  Basis Set: CC-PVTZ
  Basis Set:

    Orbital Energies (a.u.)
    -----------------------

    Doubly Occupied:

       1A    -15.523596     2A    -11.238190     3A    -11.214639
       4A    -11.209605     5A     -1.175921     6A     -1.038056
       7A     -0.900175     8A     -0.807421     9A     -0.673718
      10A     -0.614998    11A     -0.607560    12A     -0.560279
      13A     -0.535022    14A     -0.505494    15A     -0.485974
      16A     -0.470209    17A     -0.376043

  @DF-RHF Final Energy:  -173.35015202716059

   => Energetics <=

    Nuclear Repulsion Energy =            131.8311375019939362
    One-Electron Energy =                -494.4887803211544792
    Two-Electron Energy =                 189.3074907920000101
    DFT Exchange-Correlation Energy =       0.0000000000000000
    Empirical Dispersion Energy =           0.0000000000000000
    PCM Polarization Energy =               0.0000000000000000
    EFP Energy =                            0.0000000000000000
    Total Energy =                       -173.3501520271605045
    Molecular point group: c1
  Basis Set: CC-PVTZ
  Basis Set:

  -Total Gradient:
     Atom            X                  Y                   Z
    ------   -----------------  -----------------  -----------------
       1       -0.001273002473    -0.002836351478    -0.000136068781
       2        0.001349043713     0.003087471443     0.000585313854
       3        0.000956700879     0.001744891127    -0.002165833157
       4        0.000016064295    -0.000017501340     0.000005824232
       5       -0.000047670404    -0.000006125851     0.000000547799
       6       -0.001015698469    -0.001981063870     0.001700728040
       7       -0.000013058836    -0.000007524403     0.000007719861
       8        0.000014297116     0.000004525571    -0.000003114567
       9        0.000012734560     0.000004013753     0.000004946067
      10        0.000010444793     0.000010030204    -0.000000532128
      11       -0.000002914195     0.000000320300    -0.000005606524
      12       -0.000003411799    -0.000005087481     0.000000719063
      13       -0.000003529181     0.000002402026     0.000005356242

  **** Optimization is complete! (in 6 steps) ****
    Final optimized geometry and variables:
    Molecular point group: c1

    Geometry (in Angstrom), charge = 0, multiplicity = 1:

    H           -2.295160507508     0.257551751331     0.846595552151
    N           -1.891612626108     0.115587158397    -0.051824841390
    C           -0.568736254088    -0.484314362731     0.026840777263
    H           -1.890548808727     0.981226279749    -0.545146572813
    C            0.589941966254     0.504583402628    -0.031846143708
    H           -0.463891629590    -1.220613095340    -0.765061412325
    H           -0.510231338608    -1.047644294691     0.952793176502
    C            1.954254599009    -0.173594027840     0.027311009426
    H            0.513788641429     1.082753178921    -0.949828993569
    H            0.493893551015     1.212362070470     0.786999696391
    H            2.082822076583    -0.867103638592    -0.796851985697
    H            2.756233771669     0.553212114215    -0.024746115374
    H            2.074355146280    -0.732138466993     0.949729683946

  Mulliken Charges: (a.u.)
   Center  Symbol    Alpha    Beta     Spin     Total
       1     H     0.42696  0.42696  0.00000  0.14609
       2     N     3.69875  3.69875  0.00000 -0.39749
       3     C     3.01844  3.01844  0.00000 -0.03688
       4     H     0.42746  0.42746  0.00000  0.14507
       5     C     3.08274  3.08274  0.00000 -0.16547
       6     H     0.45876  0.45876  0.00000  0.08248
       7     H     0.46023  0.46023  0.00000  0.07953
       8     C     3.15285  3.15285  0.00000 -0.30571
       9     H     0.45836  0.45836  0.00000  0.08328
      10     H     0.45783  0.45783  0.00000  0.08434
      11     H     0.45435  0.45435  0.00000  0.09130
      12     H     0.44798  0.44798  0.00000  0.10403
      13     H     0.45528  0.45528  0.00000  0.08943

   Total alpha = 17.00000, Total beta = 17.00000, Total charge =  0.00000
