                              Psi4 1.0.54 Driver

  ==> Input File <==

--------------------------------------------------------------------------
set {
	reference rhf
	basis cc-pvtz
}

set_num_threads( 4 )
memory 2 gb

molecule MOL {
0 1

H	 0.222382	 2.508995	 2.168448
C	 -0.251251	 1.575881	 2.502898
C	 -1.468045	 1.166319	 1.718320
O	 0.195567	 0.982331	 3.422332
C	 -1.216901	 1.136108	 0.207794
H	 -1.807786	 0.206643	 2.085652
H	 -2.240139	 1.900568	 1.937532
C	 -0.247837	 0.040196	 -0.230469
H	 -2.167913	 0.998520	 -0.295183
H	 -0.842735	 2.104869	 -0.114225
C	 1.181757	 0.280428	 0.247371
H	 -0.259600	 -0.030819	 -1.314870
H	 -0.591284	 -0.923375	 0.136958
C	 2.151032	 -0.811012	 -0.202643
H	 1.515939	 1.247397	 -0.115449
H	 1.191514	 0.341223	 1.333422
C	 3.580021	 -0.656538	 0.320835
H	 2.170545	 -0.847575	 -1.289412
H	 1.766632	 -1.772905	 0.124928
C	 4.327657	 0.562694	 -0.213579
H	 4.138806	 -1.549270	 0.057813
H	 3.561991	 -0.620783	 1.406976
H	 4.355973	 0.557257	 -1.298551
H	 3.867136	 1.491650	 0.100501
H	 5.351524	 0.571613	 0.142204

	symmetry c1
}
set optking {
	frozen_dihedral = ("
		3 5 8 12
	")
}

ee,wfn = optimize('scf', return_wfn=True)
oeprop( wfn, 'DIPOLE', 'QUADRUPOLE', 'MULLIKEN_CHARGES')
f=open( 'psi4out.xyz', 'w' )
f.write( "25  " )
f.write( str(ee) + "\n" )
f.write( MOL.save_string_xyz() )
f.close()
--------------------------------------------------------------------------

    Molecular point group: c1
  Charge       = 0
  Multiplicity = 1
  Basis Set: CC-PVTZ
  Basis Set:
  @DF-RHF Final Energy:  -387.25339805809386
    Total Energy =                       -387.2533980580935804
    Molecular point group: c1
  Basis Set: CC-PVTZ
  Basis Set:
  Basis Set: CC-PVTZ
  Basis Set:
  @DF-RHF Final Energy:  -387.25627631081881
    Total Energy =                       -387.2562763108182935
  Basis Set: CC-PVTZ
  Basis Set:
  Basis Set: CC-PVTZ
  Basis Set:
  @DF-RHF Final Energy:  -387.25691764699712
    Total Energy =                       -387.2569176469968397
  Basis Set: CC-PVTZ
  Basis Set:
  Basis Set: CC-PVTZ
  Basis Set:
  @DF-RHF Final Energy:  -387.25706106552406
    Total Energy =                       -387.2570610655241126
  Basis Set: CC-PVTZ
  Basis Set:
  @DF-RHF Final Energy:  -387.25718887376706
    Total Energy =                       -387.2571888737670633
  @DF-RHF Final Energy:  -387.25732945313968
    Total Energy =                       -387.2573294531393913
  @DF-RHF Final Energy:  -387.25735681996230
    Total Energy =                       -387.2573568199620695
  @DF-RHF Final Energy:  -387.25738115244553
    Total Energy =                       -387.2573811524450775
  @DF-RHF Final Energy:  -387.25740341607673
    Total Energy =                       -387.2574034160768406
  @DF-RHF Final Energy:  -387.25742390463222
    Total Energy =                       -387.2574239046324465
  @DF-RHF Final Energy:  -387.25744280238808
    Total Energy =                       -387.2574428023883684
  @DF-RHF Final Energy:  -387.25746025007305
    Total Energy =                       -387.2574602500733363
  @DF-RHF Final Energy:  -387.25750487663868
    Total Energy =                       -387.2575048766384498
  Basis Set: CC-PVTZ
  Basis Set:
  @DF-RHF Final Energy:  -387.25753930152104
    Total Energy =                       -387.2575393015213194
  Basis Set: CC-PVTZ
  Basis Set:
  Basis Set: CC-PVTZ
  Basis Set:
  @DF-RHF Final Energy:  -387.25756443705632
    Total Energy =                       -387.2575644370563168
  Basis Set: CC-PVTZ
  Basis Set:
  Basis Set: CC-PVTZ
  Basis Set:
  @DF-RHF Final Energy:  -387.25758989849703
    Total Energy =                       -387.2575898984970308
  Basis Set: CC-PVTZ
  Basis Set:
  Charge       = 0
  Multiplicity = 1
  Basis Set: CC-PVTZ
  Basis Set:

    Orbital Energies (a.u.)
    -----------------------

    Doubly Occupied:

       1A    -20.550262     2A    -11.321521     3A    -11.234325
       4A    -11.233055     5A    -11.221780     6A    -11.215584
       7A    -11.214139     8A    -11.213422     9A    -11.206553
      10A     -1.405975    11A     -1.103837    12A     -1.068348
      13A     -1.011555    14A     -0.945798    15A     -0.880796
      16A     -0.813405    17A     -0.789025    18A     -0.780437
      19A     -0.665958    20A     -0.656443    21A     -0.642894
      22A     -0.624495    23A     -0.612195    24A     -0.584006
      25A     -0.565699    26A     -0.561258    27A     -0.539622
      28A     -0.524722    29A     -0.509552    30A     -0.505516
      31A     -0.484786    32A     -0.473407    33A     -0.461299
      34A     -0.456167    35A     -0.444051    36A     -0.410976

  @DF-RHF Final Energy:  -387.25759076868951

   => Energetics <=

    Nuclear Repulsion Energy =            453.3890573689863004
    One-Electron Energy =               -1423.4275630973443185
    Two-Electron Energy =                 582.7809149596687348
    DFT Exchange-Correlation Energy =       0.0000000000000000
    Empirical Dispersion Energy =           0.0000000000000000
    PCM Polarization Energy =               0.0000000000000000
    EFP Energy =                            0.0000000000000000
    Total Energy =                       -387.2575907686892833
    Molecular point group: c1
  Basis Set: CC-PVTZ
  Basis Set:

  -Total Gradient:
     Atom            X                  Y                   Z
    ------   -----------------  -----------------  -----------------
       1       -0.000014262129     0.000017658895    -0.000009297597
       2       -0.000060632634     0.000016840129    -0.000037484032
       3       -0.000082897108    -0.000055368920     0.000054111056
       4        0.000052992354    -0.000015191173     0.000074891395
       5        0.000109040726     0.000073486329    -0.000022074860
       6        0.000001609044    -0.000002119105    -0.000006624700
       7       -0.000003518957     0.000005033759    -0.000025980607
       8        0.000073520965     0.000062082309     0.000011966705
       9        0.000003275110     0.000003287392    -0.000003609453
      10        0.000003613718     0.000006614855     0.000006483804
      11        0.000000076724    -0.000049381848    -0.000036566471
      12       -0.000073459026    -0.000080706220     0.000004071955
      13       -0.000000864748    -0.000005857243     0.000004291702
      14       -0.000006904775     0.000014596833    -0.000016529952
      15       -0.000024339398    -0.000005291641     0.000006641632
      16        0.000001740539     0.000001927173    -0.000002643962
      17       -0.000005737642     0.000011427543     0.000015273825
      18        0.000001257729     0.000006241957    -0.000009487693
      19        0.000005304740     0.000000570195    -0.000006802568
      20        0.000010423089     0.000001968395    -0.000002104514
      21       -0.000006686760    -0.000005905711     0.000004151569
      22        0.000000118983     0.000006327883     0.000005564648
      23        0.000000680671     0.000003393120    -0.000005534375
      24        0.000013480050    -0.000008836081     0.000000634501
      25        0.000002168735    -0.000002798826    -0.000003342004

  **** Optimization is complete! (in 17 steps) ****
    Final optimized geometry and variables:
    Molecular point group: c1

    Geometry (in Angstrom), charge = 0, multiplicity = 1:

    H           -1.062095018993     2.264439465387     1.220704250072
    C           -1.405595739889     1.315135349297     1.652701190295
    C           -2.429997856160     0.576862482837     0.833590072258
    O           -0.996476421352     0.960034732699     2.703655878592
    C           -2.120190609204     0.488786431586    -0.666248736291
    H           -2.583764209065    -0.401117799916     1.271513887873
    H           -3.353567229763     1.138730902541     0.961315748172
    C           -1.095778001244    -0.574060733487    -1.071306348159
    H           -3.049623376079     0.273531452819    -1.180735808728
    H           -1.799286137212     1.463407719074    -1.026725822529
    C            0.339615239171    -0.319002176360    -0.613778910640
    H           -1.106001122716    -0.648524924783    -2.154980296991
    H           -1.425369909205    -1.541092227863    -0.700186688650
    C            1.317012504026    -1.359407836036    -1.159335477865
    H            0.640669846789     0.674142285862    -0.934213974566
    H            0.394574923158    -0.326127853677     0.470044824776
    C            2.754909284558    -1.213672368085    -0.658540766841
    H            1.310887721242    -1.322963124172    -2.246415638283
    H            0.956953562243    -2.347849524259    -0.887484105647
    C            3.466625926926     0.054858249926    -1.122533346316
    H            3.323260525001    -2.074548141956    -0.996897173216
    H            2.761720715647    -1.254059915779     0.427157600800
    H            3.465965089919     0.128380113138    -2.205553245802
    H            2.999034950233     0.949498411176    -0.729386950168
    H            4.499250102328     0.057699380894    -0.793097198200

  Mulliken Charges: (a.u.)
   Center  Symbol    Alpha    Beta     Spin     Total
       1     H     0.46280  0.46280  0.00000  0.07440
       2     C     2.90333  2.90333  0.00000  0.19334
       3     C     3.08857  3.08857  0.00000 -0.17714
       4     O     4.16910  4.16910  0.00000 -0.33819
       5     C     3.11978  3.11978  0.00000 -0.23957
       6     H     0.44153  0.44153  0.00000  0.11694
       7     H     0.44028  0.44028  0.00000  0.11944
       8     C     3.09072  3.09072  0.00000 -0.18144
       9     H     0.43888  0.43888  0.00000  0.12224
      10     H     0.44931  0.44931  0.00000  0.10138
      11     C     3.10964  3.10964  0.00000 -0.21928
      12     H     0.44663  0.44663  0.00000  0.10673
      13     H     0.44990  0.44990  0.00000  0.10020
      14     C     3.09624  3.09624  0.00000 -0.19248
      15     H     0.45048  0.45048  0.00000  0.09905
      16     H     0.44191  0.44191  0.00000  0.11617
      17     C     3.09031  3.09031  0.00000 -0.18062
      18     H     0.45358  0.45358  0.00000  0.09284
      19     H     0.44894  0.44894  0.00000  0.10212
      20     C     3.15269  3.15269  0.00000 -0.30537
      21     H     0.44854  0.44854  0.00000  0.10291
      22     H     0.45190  0.45190  0.00000  0.09621
      23     H     0.45563  0.45563  0.00000  0.08873
      24     H     0.45366  0.45366  0.00000  0.09268
      25     H     0.44565  0.44565  0.00000  0.10870

   Total alpha = 36.00000, Total beta = 36.00000, Total charge = -0.00000

*** Psi4 exiting successfully. Buy a developer a beer!
