                              Psi4 1.0.54 Driver

  ==> Input File <==

--------------------------------------------------------------------------
set {
	reference rhf
	basis cc-pvtz
}

set_num_threads( 4 )
memory 2 gb

molecule MOL {
0 1

H	 0.386628	 -1.742609	 -4.583990
O	 1.320170	 -1.843646	 -4.594980
C	 1.920128	 -0.906828	 -3.739587
C	 1.720927	 -1.218313	 -2.263788
H	 2.975856	 -0.926267	 -3.974194
H	 1.559212	 0.095584	 -3.961757
C	 0.269997	 -1.133995	 -1.795235
H	 2.112589	 -2.211297	 -2.064438
H	 2.325254	 -0.519511	 -1.690323
C	 0.113298	 -1.420414	 -0.302504
H	 -0.331540	 -1.836042	 -2.362936
H	 -0.120938	 -0.141019	 -2.010769
C	 -1.311023	 -1.277304	 0.237018
H	 0.477990	 -2.422699	 -0.091196
H	 0.758771	 -0.742055	 0.248551
C	 -2.041121	 -0.006551	 -0.194127
H	 -1.888548	 -2.136293	 -0.093331
H	 -1.289731	 -1.328757	 1.323321
C	 -3.489218	 0.042606	 0.286507
H	 -2.022185	 0.066287	 -1.279394
H	 -1.518764	 0.869305	 0.178730
C	 -4.219984	 1.311773	 -0.139038
H	 -4.022855	 -0.824300	 -0.093339
H	 -3.510372	 -0.038577	 1.370031
H	 -4.244251	 1.405725	 -1.219696
H	 -5.244345	 1.313233	 0.215630
H	 -3.732090	 2.196311	 0.257073

	symmetry c1
}
set optking {
	frozen_dihedral = ("
		14 10 13 16
	")
}

ee,wfn = optimize('scf', return_wfn=True)
oeprop( wfn, 'DIPOLE', 'QUADRUPOLE', 'MULLIKEN_CHARGES')
f=open( 'psi4out.xyz', 'w' )
f.write( "27  " )
f.write( str(ee) + "\n" )
f.write( MOL.save_string_xyz() )
f.close()
--------------------------------------------------------------------------

    Molecular point group: c1
  Charge       = 0
  Multiplicity = 1
  Basis Set: CC-PVTZ
  Basis Set:
  @DF-RHF Final Energy:  -388.42508193340007
    Total Energy =                       -388.4250819333997242
    Molecular point group: c1
  Basis Set: CC-PVTZ
  Basis Set:
  Basis Set: CC-PVTZ
  Basis Set:
  @DF-RHF Final Energy:  -388.18954283455827
    Total Energy =                       -388.1895428345588925
  Basis Set: CC-PVTZ
  Basis Set:
  Basis Set: CC-PVTZ
  Basis Set:
  @DF-RHF Final Energy:  -388.32737162998473
    Total Energy =                       -388.3273716299845546
  Basis Set: CC-PVTZ
  Basis Set:
  Basis Set: CC-PVTZ
  Basis Set:
  @DF-RHF Final Energy:  -388.41444142407857
    Total Energy =                       -388.4144414240790866
  Basis Set: CC-PVTZ
  Basis Set:
  @DF-RHF Final Energy:  -388.42510961892231
    Total Energy =                       -388.4251096189216241
  Basis Set: CC-PVTZ
  Basis Set:
  @DF-RHF Final Energy:  -388.42655616303955
    Total Energy =                       -388.4265561630395496
  Basis Set: CC-PVTZ
  Basis Set:
  Basis Set: CC-PVTZ
  Basis Set:
  @DF-RHF Final Energy:  -388.42669291644268
    Total Energy =                       -388.4266929164431303
  Basis Set: CC-PVTZ
  Basis Set:
  Basis Set: CC-PVTZ
  Basis Set:
  @DF-RHF Final Energy:  -388.42669973322961
    Total Energy =                       -388.4266997332290430
  Basis Set: CC-PVTZ
  Basis Set:
  Charge       = 0
  Multiplicity = 1
  Basis Set: CC-PVTZ
  Basis Set:

    Orbital Energies (a.u.)
    -----------------------

    Doubly Occupied:

       1A    -20.545196     2A    -11.264837     3A    -11.216803
       4A    -11.215017     5A    -11.214134     6A    -11.213427
       7A    -11.213225     8A    -11.212295     9A    -11.207682
      10A     -1.363168    11A     -1.096438    12A     -1.062610
      13A     -1.012355    14A     -0.949207    15A     -0.889934
      16A     -0.820742    17A     -0.805030    18A     -0.773884
      19A     -0.696778    20A     -0.652896    21A     -0.638342
      22A     -0.614248    23A     -0.608288    24A     -0.586120
      25A     -0.575138    26A     -0.554529    27A     -0.547004
      28A     -0.523779    29A     -0.508222    30A     -0.500324
      31A     -0.485698    32A     -0.474755    33A     -0.466692
      34A     -0.458364    35A     -0.454308    36A     -0.442940
      37A     -0.425929

  @DF-RHF Final Energy:  -388.42670006246004

   => Energetics <=

    Nuclear Repulsion Energy =            460.9061561276755015
    One-Electron Energy =               -1440.0850372823774705
    Two-Electron Energy =                 590.7521810922420400
    DFT Exchange-Correlation Energy =       0.0000000000000000
    Empirical Dispersion Energy =           0.0000000000000000
    PCM Polarization Energy =               0.0000000000000000
    EFP Energy =                            0.0000000000000000
    Total Energy =                       -388.4267000624598722
    Molecular point group: c1
  Basis Set: CC-PVTZ
  Basis Set:

  -Total Gradient:
     Atom            X                  Y                   Z
    ------   -----------------  -----------------  -----------------
       1        0.000122646908    -0.000098971035     0.000015736632
       2       -0.000094287786     0.000085765767    -0.000049465264
       3        0.000010743331     0.000001287134     0.000039617159
       4       -0.000068483122     0.000041683149    -0.000009685456
       5       -0.000057668645     0.000034494441    -0.000032905104
       6       -0.000016405750    -0.000082194801     0.000027848213
       7        0.000119650306    -0.000095506904     0.000033670053
       8        0.000005690442     0.000049527927    -0.000019006607
       9        0.000022376979     0.000013466379     0.000016112214
      10        0.001265624080     0.000574999769     0.003051392152
      11       -0.000059874358    -0.000007642510    -0.000065433450
      12        0.000076723076    -0.000052834736     0.000025852519
      13        0.001628724860     0.001238256521     0.002483172812
      14       -0.001465317731    -0.000797353038    -0.003331277153
      15        0.000001378487     0.000023439015     0.000025248855
      16       -0.001471593260    -0.001013580811    -0.002263476849
      17        0.000054169207     0.000076829501     0.000033302592
      18       -0.000057242776    -0.000024958168    -0.000017000436
      19        0.000104798711     0.000062215171     0.000013822060
      20       -0.000010335719     0.000042277680     0.000039907123
      21       -0.000118852612    -0.000068028689    -0.000022226744
      22       -0.000061682999     0.000019247081     0.000022626823
      23        0.000151878431     0.000111645539     0.000029261695
      24       -0.000052780556    -0.000026045772    -0.000078389129
      25        0.000027853780     0.000017815544     0.000129604599
      26        0.000066262185    -0.000005570777    -0.000058280082
      27       -0.000123995469    -0.000120263383    -0.000040029223

  **** Optimization is complete! (in 9 steps) ****
    Final optimized geometry and variables:
    Molecular point group: c1

    Geometry (in Angstrom), charge = 0, multiplicity = 1:

    H            0.493771353815    -1.656777753914    -2.975756058911
    O            1.195672062396    -2.275974801105    -2.902598934702
    C            2.203062012580    -1.771283576125    -2.066205482650
    C            1.812087797694    -1.741221868227    -0.596381889970
    H            3.053890846993    -2.425112817425    -2.201660647905
    H            2.504917767528    -0.778144610749    -2.392806196612
    C            0.667220686530    -0.784466320365    -0.271257209765
    H            1.547412836723    -2.748139706269    -0.288724509752
    H            2.691081852742    -1.456617919375    -0.022591962996
    C            0.343449826646    -0.744546788063     1.222926046686
    H           -0.225423834927    -1.085595933675    -0.814883048658
    H            0.927127594757     0.209500114385    -0.623217008409
    C           -0.902353421537     0.063241532701     1.600384879385
    H            0.189792194933    -1.769697770243     1.546991927507
    H            1.206174611064    -0.364871261912     1.763696481355
    C           -0.979968561482     1.473519292468     1.018545331147
    H           -1.785020349968    -0.487092939651     1.282557646899
    H           -0.959740547761     0.119784901781     2.683490168272
    C           -2.171862862449     2.268191011442     1.545702639166
    H           -1.042536971639     1.424037366705    -0.063682906189
    H           -0.063429510449     2.014021971853     1.246898581499
    C           -2.268627643838     3.669894582998     0.953201686332
    H           -3.087622874176     1.723838565525     1.332214568250
    H           -2.106363718140     2.338562791031     2.627754345208
    H           -2.373260986458     3.632734716250    -0.125966360287
    H           -3.123173553858     4.206367765699     1.349038427859
    H           -1.380716496280     4.251356206147     1.177432855083

  Mulliken Charges: (a.u.)
   Center  Symbol    Alpha    Beta     Spin     Total
       1     H     0.39234  0.39234  0.00000  0.21533
       2     O     4.20581  4.20581  0.00000 -0.41162
       3     C     2.97926  2.97926  0.00000  0.04148
       4     C     3.08867  3.08867  0.00000 -0.17733
       5     H     0.44866  0.44866  0.00000  0.10267
       6     H     0.47012  0.47012  0.00000  0.05977
       7     C     3.10772  3.10772  0.00000 -0.21543
       8     H     0.45013  0.45013  0.00000  0.09975
       9     H     0.45601  0.45601  0.00000  0.08798
      10     C     3.09695  3.09695  0.00000 -0.19390
      11     H     0.45668  0.45668  0.00000  0.08664
      12     H     0.44976  0.44976  0.00000  0.10048
      13     C     3.09746  3.09746  0.00000 -0.19492
      14     H     0.44809  0.44809  0.00000  0.10381
      15     H     0.45163  0.45163  0.00000  0.09674
      16     C     3.09016  3.09016  0.00000 -0.18031
      17     H     0.45311  0.45311  0.00000  0.09377
      18     H     0.44822  0.44822  0.00000  0.10356
      19     C     3.08485  3.08485  0.00000 -0.16970
      20     H     0.45311  0.45311  0.00000  0.09379
      21     H     0.45458  0.45458  0.00000  0.09084
      22     C     3.14984  3.14984  0.00000 -0.29967
      23     H     0.45448  0.45448  0.00000  0.09104
      24     H     0.45335  0.45335  0.00000  0.09330
      25     H     0.45579  0.45579  0.00000  0.08842
      26     H     0.44807  0.44807  0.00000  0.10386
      27     H     0.45517  0.45517  0.00000  0.08966

   Total alpha = 37.00000, Total beta = 37.00000, Total charge =  0.00000

*** Psi4 exiting successfully. Buy a developer a beer!
