  ==> Input File <==

--------------------------------------------------------------------------
set {
	reference rhf
	basis 6-31G*
}

set_num_threads( 4 )
memory 2 gb

molecule MOL {
0 1

H	 -3.161837	 0.500524	 -0.000234
C	 -2.367097	 -0.232926	 -0.000000
O	 -1.158440	 0.455814	 -0.000122
H	 -2.468853	 -0.861886	 -0.882833
H	 -2.468942	 -0.861421	 0.883154
C	 -0.029776	 -0.365156	 0.000148
C	 0.091938	 -1.031618	 -1.359145
H	 -0.113492	 -1.118164	 0.784922
H	 0.862928	 0.224038	 0.214247
C	 1.306332	 -1.954500	 -1.450890
H	 -0.818881	 -1.590288	 -1.551390
H	 0.150768	 -0.257530	 -2.118109
H	 1.254856	 -2.751815	 -0.714641
H	 1.368840	 -2.415938	 -2.430693
H	 2.231504	 -1.409679	 -1.284666

	symmetry c1
}
set optking {
	frozen_dihedral = ("
		8 6 3 2
	")
}

ee = optimize('scf')
oeprop('DIPOLE', 'QUADRUPOLE', 'MULLIKEN_CHARGES')
f=open( 'psi4out.xyz', 'w' )
f.write( "15  " )
f.write( str(ee) + "\n" )
f.write( MOL.save_string_xyz() )
f.close()
--------------------------------------------------------------------------

    Molecular point group: c1
  Charge       = 0
  Multiplicity = 1
  Basis Set: 6-31G*
  Basis Set:
  @DF-RHF Final Energy:  -232.13281445070817
    Total Energy =                       -232.1328144507081674
    Molecular point group: c1
  Basis Set: 6-31G*
  Basis Set:
  Basis Set: 6-31G*
  Basis Set:
  @DF-RHF Final Energy:  -232.13420523090133
    Total Energy =                       -232.1342052309012161
  Basis Set: 6-31G*
  Basis Set:
  Basis Set: 6-31G*
  Basis Set:
  @DF-RHF Final Energy:  -232.13644022738183
    Total Energy =                       -232.1364402273818541
  Basis Set: 6-31G*
  Basis Set:
  Basis Set: 6-31G*
  Basis Set:
  @DF-RHF Final Energy:  -232.13668145876667
    Total Energy =                       -232.1366814587667022
  Basis Set: 6-31G*
  Basis Set:
  Basis Set: 6-31G*
  Basis Set:
  @DF-RHF Final Energy:  -232.13670210249137
    Total Energy =                       -232.1367021024914266
  Basis Set: 6-31G*
  Basis Set:
  Basis Set: 6-31G*
  Basis Set:
  @DF-RHF Final Energy:  -232.13670327615409
    Total Energy =                       -232.1367032761540372
  Basis Set: 6-31G*
  Basis Set:
  Charge       = 0
  Multiplicity = 1
  Basis Set: 6-31G*
  Basis Set:

    Orbital Energies (a.u.)
    -----------------------

    Doubly Occupied:

       1A    -20.552175     2A    -11.266272     3A    -11.263279
       4A    -11.216996     5A    -11.215299     6A     -1.374847
       7A     -1.056681     8A     -0.959387     9A     -0.883122
      10A     -0.805063    11A     -0.669666    12A     -0.657163
      13A     -0.634201    14A     -0.602027    15A     -0.565933
      16A     -0.532152    17A     -0.521041    18A     -0.497967
      19A     -0.484232    20A     -0.455588    21A     -0.406551

  @DF-RHF Final Energy:  -232.13670359050147

   => Energetics <=

    Nuclear Repulsion Energy =            191.4889648921690934
    One-Electron Energy =                -694.0120544701296694
    Two-Electron Energy =                 270.3863859874590503
    DFT Exchange-Correlation Energy =       0.0000000000000000
    Empirical Dispersion Energy =           0.0000000000000000
    PCM Polarization Energy =               0.0000000000000000
    EFP Energy =                            0.0000000000000000
    Total Energy =                       -232.1367035905015541
    Molecular point group: c1
  Basis Set: 6-31G*
  Basis Set:

  -Total Gradient:
     Atom            X                  Y                   Z
    ------   -----------------  -----------------  -----------------
       1        0.000000347290     0.000003667711    -0.000002276687
       2       -0.000039931480    -0.000005897201    -0.000510133501
       3        0.000106932296     0.000088254094     0.000843490600
       4        0.000005354967     0.000004227967     0.000000590523
       5        0.000002594440     0.000001925992     0.000001338889
       6       -0.000379577312    -0.000472212180    -0.000705931463
       7        0.000004126517    -0.000005618868    -0.000030065934
       8        0.000309138263     0.000382450393     0.000389517048
       9       -0.000001346860    -0.000003533089     0.000002554384
      10       -0.000003835730    -0.000000056128     0.000013060867
      11       -0.000003122490    -0.000000136963    -0.000002545719
      12        0.000001720417     0.000000489517    -0.000000054200
      13        0.000003068483     0.000002199918     0.000003639526
      14       -0.000009651436     0.000004333863     0.000002228972
      15        0.000004182633    -0.000000095025    -0.000005413307

  **** Optimization is complete! (in 7 steps) ****
    Final optimized geometry and variables:
    Molecular point group: c1

    Geometry (in Angstrom), charge = 0, multiplicity = 1:

    H           -2.693943180525     1.267387629442     0.774998926230
    C           -1.970883188348     0.480193841229     0.609754691760
    O           -0.714313213981     1.078780200919     0.552861167211
    H           -2.226536199495    -0.034189831800    -0.312347497511
    H           -2.034752387692    -0.230964870900     1.431774150523
    C            0.378277163067     0.206823752774     0.506512249869
    C            0.571246019134    -0.472966787341    -0.845815632977
    H            0.294768078652    -0.539344149235     1.297508679709
    H            1.246761249465     0.815280374746     0.730011133197
    C            1.851693560420    -1.307330173924    -0.885393574346
    H           -0.279145896630    -1.110056768030    -1.071186367127
    H            0.600734846287     0.294877527575    -1.613511340321
    H            1.836433368068    -2.091127126641    -0.133024601223
    H            1.976968720476    -1.782828399699    -1.852370862374
    H            2.728741090542    -0.692568896146    -0.704147938233

  Mulliken Charges: (a.u.)
   Center  Symbol    Alpha    Beta     Spin     Total
       1     H     0.41223  0.41223  0.00000  0.17555
       2     C     3.08101  3.08101  0.00000 -0.16202
       3     O     4.30678  4.30678  0.00000 -0.61355
       4     H     0.42877  0.42877  0.00000  0.14246
       5     H     0.43128  0.43128  0.00000  0.13744
       6     C     2.98522  2.98522  0.00000  0.02956
       7     C     3.16771  3.16771  0.00000 -0.33542
       8     H     0.43301  0.43301  0.00000  0.13398
       9     H     0.41619  0.41619  0.00000  0.16761
      10     C     3.24716  3.24716  0.00000 -0.49433
      11     H     0.42104  0.42104  0.00000  0.15791
      12     H     0.41396  0.41396  0.00000  0.17208
      13     H     0.42073  0.42073  0.00000  0.15854
      14     H     0.41552  0.41552  0.00000  0.16897
      15     H     0.41940  0.41940  0.00000  0.16121

   Total alpha = 21.00000, Total beta = 21.00000, Total charge = -0.00000
