  ==> Input File <==

--------------------------------------------------------------------------
set {
	reference rhf
	basis 6-31G*
}

set_num_threads( 4 )
memory 2 gb

molecule MOL {
0 1

O	 3.910483	 -0.365277	 0.057778
C	 2.843464	 0.164689	 -0.000222
C	 1.546494	 -0.624492	 -0.000609
C	 2.714399	 1.672158	 -0.077902
C	 0.291004	 0.242674	 0.000989
H	 1.557904	 -1.283758	 -0.867573
H	 1.558622	 -1.285963	 0.864672
C	 -0.994322	 -0.586602	 0.000262
H	 0.309117	 0.896430	 -0.865270
H	 0.309661	 0.894078	 0.869017
C	 -2.259874	 0.272531	 0.000494
H	 -1.004862	 -1.240012	 -0.870939
H	 -1.005220	 -1.241071	 0.870675
C	 -3.549786	 -0.549746	 -0.000374
H	 -2.250389	 0.926680	 -0.869574
H	 -2.250838	 0.925513	 0.871430
C	 -4.809590	 0.315458	 -0.000369
H	 -3.560515	 -1.202009	 -0.871156
H	 -3.561123	 -1.202955	 0.869711
H	 -4.844746	 0.956611	 -0.876632
H	 -5.706986	 -0.295590	 -0.001609
H	 -4.845960	 0.954827	 0.877144
H	 2.135395	 2.046715	 0.761194
H	 3.696818	 2.123379	 -0.068635
H	 2.191342	 1.961187	 -0.984824

	symmetry c1
}
set optking {
	frozen_dihedral = ("
		1 2 3 6
	")
}

ee = optimize('scf')
oeprop('DIPOLE', 'QUADRUPOLE', 'MULLIKEN_CHARGES')
f=open( 'psi4out.xyz', 'w' )
f.write( "25  " )
f.write( str(ee) + "\n" )
f.write( MOL.save_string_xyz() )
f.close()
--------------------------------------------------------------------------

    Molecular point group: c1
  Charge       = 0
  Multiplicity = 1
  Basis Set: 6-31G*
  Basis Set:
  @DF-RHF Final Energy:  -387.12904613787316
    Total Energy =                       -387.1290461378732743
    Molecular point group: c1
  Basis Set: 6-31G*
  Basis Set:
  Basis Set: 6-31G*
  Basis Set:
  @DF-RHF Final Energy:  -387.13061226204007
    Total Energy =                       -387.1306122620402448
  Basis Set: 6-31G*
  Basis Set:
  Basis Set: 6-31G*
  Basis Set:
  @DF-RHF Final Energy:  -387.13186200466419
    Total Energy =                       -387.1318620046645265
  Basis Set: 6-31G*
  Basis Set:
  Basis Set: 6-31G*
  Basis Set:
  @DF-RHF Final Energy:  -387.13190718897641
    Total Energy =                       -387.1319071889764700
  Basis Set: 6-31G*
  Basis Set:
  Basis Set: 6-31G*
  Basis Set:
  @DF-RHF Final Energy:  -387.13196777307445
    Total Energy =                       -387.1319677730748481
  Basis Set: 6-31G*
  Basis Set:
  Basis Set: 6-31G*
  Basis Set:
  @DF-RHF Final Energy:  -387.13199337852245
    Total Energy =                       -387.1319933785230205
  Basis Set: 6-31G*
  Basis Set:
  Basis Set: 6-31G*
  Basis Set:
  @DF-RHF Final Energy:  -387.13199774838898
    Total Energy =                       -387.1319977483885850
  Basis Set: 6-31G*
  Basis Set:
  Charge       = 0
  Multiplicity = 1
  Basis Set: 6-31G*
  Basis Set:

    Orbital Energies (a.u.)
    -----------------------

    Doubly Occupied:

       1A    -20.544679     2A    -11.325840     3A    -11.230808
       4A    -11.230213     5A    -11.227368     6A    -11.224192
       7A    -11.220738     8A    -11.220035     9A    -11.212682
      10A     -1.392017    11A     -1.101418    12A     -1.060355
      13A     -1.009556    14A     -0.971815    15A     -0.898456
      16A     -0.822083    17A     -0.797544    18A     -0.730664
      19A     -0.668411    20A     -0.648002    21A     -0.634479
      22A     -0.624292    23A     -0.596322    24A     -0.590289
      25A     -0.563771    26A     -0.559983    27A     -0.546294
      28A     -0.529098    29A     -0.526274    30A     -0.496530
      31A     -0.491230    32A     -0.470257    33A     -0.469575
      34A     -0.466589    35A     -0.460726    36A     -0.395223

  @DF-RHF Final Energy:  -387.13199791910887

   => Energetics <=

    Nuclear Repulsion Energy =            438.3898981579109773
    One-Electron Energy =               -1393.1281808423386792
    Two-Electron Energy =                 567.6062847653187191
    DFT Exchange-Correlation Energy =       0.0000000000000000
    Empirical Dispersion Energy =           0.0000000000000000
    PCM Polarization Energy =               0.0000000000000000
    EFP Energy =                            0.0000000000000000
    Total Energy =                       -387.1319979191090397
    Molecular point group: c1
  Basis Set: 6-31G*
  Basis Set:

  -Total Gradient:
     Atom            X                  Y                   Z
    ------   -----------------  -----------------  -----------------
       1        0.000013119693    -0.000053189043    -0.000464801939
       2        0.000016895590    -0.000007481375     0.000715978712
       3       -0.000208337639     0.000384640856    -0.000490296865
       4       -0.000005008495     0.000008471188    -0.000042111132
       5       -0.000013260441     0.000020711445     0.000004374775
       6        0.000168424924    -0.000347645899     0.000262276895
       7        0.000001527577    -0.000001550117     0.000001520327
       8        0.000003012689    -0.000011739499    -0.000003707756
       9        0.000002600391     0.000005403661    -0.000003780846
      10        0.000004462718    -0.000010725265    -0.000000031740
      11        0.000004349436     0.000010845638    -0.000005367674
      12       -0.000001534651    -0.000002652072    -0.000001500516
      13       -0.000001453523     0.000000971395     0.000003641189
      14        0.000005790518    -0.000012750078    -0.000001058723
      15        0.000001365414     0.000000767660    -0.000002549713
      16        0.000002464668     0.000001021388     0.000001787382
      17        0.000011077036     0.000007909824     0.000001801239
      18        0.000000096732    -0.000000773871    -0.000001335447
      19        0.000000061159    -0.000002084170     0.000001041599
      20       -0.000000790611     0.000000642790    -0.000001112032
      21        0.000007102991    -0.000003272223     0.000000413119
      22       -0.000001322387     0.000001534881     0.000001055505
      23        0.000004634890    -0.000000790406     0.000008869221
      24       -0.000008495458    -0.000004184982     0.000007391962
      25       -0.000006783216     0.000015918277     0.000007502461

  **** Optimization is complete! (in 8 steps) ****
    Final optimized geometry and variables:
    Molecular point group: c1

    Geometry (in Angstrom), charge = 0, multiplicity = 1:

    O            3.911390212530    -0.540575975868     0.079036285032
    C            2.910119193225     0.105325350249     0.008354445529
    C            1.562815917040    -0.610504435528     0.002019094499
    C            2.967576166832     1.614300020194    -0.092604455324
    C            0.291775736869     0.240270512739     0.006900541788
    H            1.575165720266    -1.261836392223    -0.868550513403
    H            1.572877650186    -1.275096173224     0.861356328437
    C           -0.974679153132    -0.618906135353    -0.002132764886
    H            0.278426947480     0.899274049533    -0.857693642475
    H            0.277363060590     0.882530867635     0.884312736562
    C           -2.261735513046     0.207360727693     0.004004893428
    H           -0.964552440382    -1.264102234943    -0.878676674665
    H           -0.966381272456    -1.279890299828     0.862500484782
    C           -3.529199512505    -0.649149438935    -0.004734539159
    H           -2.269909822896     0.868514084521    -0.861031759095
    H           -2.271451957221     0.852987511221     0.880655404575
    C           -4.811388358720     0.182354655513     0.001792982398
    H           -3.521766373035    -1.293853555877    -0.880960171451
    H           -3.523105541061    -1.309567420445     0.859707141594
    H           -4.863911970190     0.829118326844    -0.869488592958
    H           -5.691743893143    -0.452674845906    -0.004585434151
    H           -4.865217538831     0.813306371640     0.884507235120
    H            2.433755650216     2.078277459613     0.730681383561
    H            4.001600935475     1.928594035117    -0.075752295095
    H            2.500618821311     1.955024626457    -1.011665479375

  Mulliken Charges: (a.u.)
   Center  Symbol    Alpha    Beta     Spin     Total
       1     O     4.26388  4.26388  0.00000 -0.52775
       2     C     2.73715  2.73715  0.00000  0.52570
       3     C     3.20514  3.20514  0.00000 -0.41027
       4     C     3.29159  3.29159  0.00000 -0.58319
       5     C     3.16146  3.16146  0.00000 -0.32291
       6     H     0.40065  0.40065  0.00000  0.19871
       7     H     0.39985  0.39985  0.00000  0.20030
       8     C     3.15267  3.15267  0.00000 -0.30535
       9     H     0.41994  0.41994  0.00000  0.16012
      10     H     0.41982  0.41982  0.00000  0.16037
      11     C     3.15088  3.15088  0.00000 -0.30175
      12     H     0.42118  0.42118  0.00000  0.15764
      13     H     0.42086  0.42086  0.00000  0.15828
      14     C     3.15193  3.15193  0.00000 -0.30386
      15     H     0.42352  0.42352  0.00000  0.15296
      16     H     0.42340  0.42340  0.00000  0.15320
      17     C     3.23959  3.23959  0.00000 -0.47919
      18     H     0.42225  0.42225  0.00000  0.15550
      19     H     0.42217  0.42217  0.00000  0.15566
      20     H     0.42152  0.42152  0.00000  0.15695
      21     H     0.41829  0.41829  0.00000  0.16342
      22     H     0.42147  0.42147  0.00000  0.15705
      23     H     0.40757  0.40757  0.00000  0.18485
      24     H     0.39549  0.39549  0.00000  0.20901
      25     H     0.40773  0.40773  0.00000  0.18454

   Total alpha = 36.00000, Total beta = 36.00000, Total charge = -0.00000
