  ==> Input File <==

--------------------------------------------------------------------------
set {
	reference rhf
	basis 6-31G*
}

set_num_threads( 4 )
memory 2 gb

molecule MOL {
0 1

O	 1.316555	 0.667094	 -0.977184
C	 1.705091	 0.115954	 0.001797
C	 1.128554	 0.276142	 1.387370
O	 2.721346	 -0.737485	 -0.000216
C	 -0.046792	 1.247079	 1.446424
H	 0.840766	 -0.712132	 1.735516
H	 1.936335	 0.595562	 2.040195
C	 -0.611506	 1.389472	 2.860596
H	 -0.825396	 0.907511	 0.770659
H	 0.271486	 2.216797	 1.076756
C	 -1.791958	 2.359213	 2.938019
H	 -0.925567	 0.413201	 3.227009
H	 0.174607	 1.727958	 3.533898
C	 -2.354995	 2.502001	 4.351473
H	 -2.579181	 2.021072	 2.267883
H	 -1.479567	 3.335133	 2.573150
H	 -2.708143	 1.547477	 4.731452
H	 -3.189744	 3.195650	 4.373721
H	 -1.599587	 2.871576	 5.039284
C	 4.024888	 -0.184556	 -0.001949
H	 4.179030	 0.422472	 -0.882452
H	 4.701782	 -1.024608	 -0.003642
H	 4.181981	 0.421185	 0.878906

	symmetry c1
}
set optking {
	frozen_dihedral = ("
		1 2 4 20
	")
}

ee = optimize('scf')
oeprop('DIPOLE', 'QUADRUPOLE', 'MULLIKEN_CHARGES')
f=open( 'psi4out.xyz', 'w' )
f.write( "23  " )
f.write( str(ee) + "\n" )
f.write( MOL.save_string_xyz() )
f.close()
--------------------------------------------------------------------------

    Molecular point group: c1
  Charge       = 0
  Multiplicity = 1
  Basis Set: 6-31G*
  Basis Set:
  @DF-RHF Final Energy:  -422.95634377420930
    Total Energy =                       -422.9563437742093583
    Molecular point group: c1
  Basis Set: 6-31G*
  Basis Set:
  Basis Set: 6-31G*
  Basis Set:
  @DF-RHF Final Energy:  -422.95469814387963
    Total Energy =                       -422.9546981438796820
  Basis Set: 6-31G*
  Basis Set:
  Basis Set: 6-31G*
  Basis Set:
  @DF-RHF Final Energy:  -422.95728197417515
    Total Energy =                       -422.9572819741756575
  Basis Set: 6-31G*
  Basis Set:
  Basis Set: 6-31G*
  Basis Set:
  @DF-RHF Final Energy:  -422.95758578110184
    Total Energy =                       -422.9575857811020114
  Basis Set: 6-31G*
  Basis Set:
  Basis Set: 6-31G*
  Basis Set:
  @DF-RHF Final Energy:  -422.95759343095136
    Total Energy =                       -422.9575934309515333
  Basis Set: 6-31G*
  Basis Set:
  Charge       = 0
  Multiplicity = 1
  Basis Set: 6-31G*
  Basis Set:

    Orbital Energies (a.u.)
    -----------------------

    Doubly Occupied:

       1A    -20.585574     2A    -20.557116     3A    -11.374962
       4A    -11.290563     5A    -11.239085     6A    -11.221726
       7A    -11.220015     8A    -11.218108     9A    -11.211008
      10A     -1.459206    11A     -1.366810    12A     -1.094678
      13A     -1.042125    14A     -0.981372    15A     -0.940748
      16A     -0.849562    17A     -0.797089    18A     -0.765097
      19A     -0.695777    20A     -0.678528    21A     -0.673637
      22A     -0.649144    23A     -0.616468    24A     -0.607519
      25A     -0.578855    26A     -0.568192    27A     -0.555204
      28A     -0.534708    29A     -0.510108    30A     -0.498783
      31A     -0.487220    32A     -0.477614    33A     -0.470460
      34A     -0.467462    35A     -0.449682    36A     -0.431673

  @DF-RHF Final Energy:  -422.95759436706635

   => Energetics <=

    Nuclear Repulsion Energy =            452.2468838316921165
    One-Electron Energy =               -1472.0772049099878132
    Two-Electron Energy =                 596.8727267112298023
    DFT Exchange-Correlation Energy =       0.0000000000000000
    Empirical Dispersion Energy =           0.0000000000000000
    PCM Polarization Energy =               0.0000000000000000
    EFP Energy =                            0.0000000000000000
    Total Energy =                       -422.9575943670658944
    Molecular point group: c1
  Basis Set: 6-31G*
  Basis Set:

  -Total Gradient:
     Atom            X                  Y                   Z
    ------   -----------------  -----------------  -----------------
       1       -0.003334350629    -0.003817333068    -0.000590875952
       2        0.005028467994     0.005546355986     0.002799740069
       3       -0.000002769949     0.000001727026    -0.000050408644
       4       -0.001896926628    -0.001873082719    -0.006242476523
       5       -0.000015180417     0.000011653902     0.000013321465
       6        0.000008117829     0.000011651555    -0.000007569430
       7        0.000013894058     0.000004163962     0.000001283549
       8       -0.000017643916     0.000002608235     0.000007656066
       9        0.000003402735    -0.000007146089     0.000002932957
      10       -0.000004658108    -0.000003510987     0.000000652235
      11        0.000000086031     0.000012217554     0.000003047436
      12       -0.000006963514    -0.000003428860    -0.000002963256
      13        0.000002772048    -0.000004234996    -0.000000448017
      14        0.000010611835    -0.000004097200    -0.000002418367
      15        0.000000576887    -0.000003320067     0.000001254741
      16        0.000000304562     0.000003838177    -0.000003634689
      17       -0.000000628944    -0.000002194791     0.000001104420
      18        0.000003772353    -0.000001867430    -0.000006720620
      19        0.000000451374     0.000002000323     0.000002874415
      20        0.000187985924     0.000132875196     0.004082900574
      21        0.000001806640    -0.000013241393    -0.000006033502
      22       -0.000001094571     0.000005332406    -0.000006039886
      23        0.000017966402    -0.000000966723     0.000002820963

  **** Optimization is complete! (in 6 steps) ****
    Final optimized geometry and variables:
    Molecular point group: c1

    Geometry (in Angstrom), charge = 0, multiplicity = 1:

    O            0.611515363775    -0.199157557390    -2.274953260715
    C            1.017494758608    -0.709836658992    -1.289319890324
    C            0.421275876212    -0.541648395537     0.086007801736
    O            2.041164026447    -1.594781430528    -1.311399697600
    C           -0.757727708487     0.424675656330     0.136906752445
    H            0.135395987228    -1.533568445507     0.426950589792
    H            1.219022822811    -0.224859412604     0.754764719542
    C           -1.339627014949     0.560683409454     1.544732801179
    H           -1.526334739063     0.083443597160    -0.549265575949
    H           -0.439629486952     1.397399373067    -0.226118141548
    C           -2.523323366300     1.527203778540     1.611528282088
    H           -1.655567892669    -0.417764235450     1.903348929443
    H           -0.562601829350     0.898640390435     2.228998409144
    C           -3.104076112079     1.662577293071     3.018512204101
    H           -3.301188763658     1.189727178461     0.930373322538
    H           -2.209054817774     2.505460214779     1.254585116850
    H           -3.459077161591     0.705493542542     3.390246147110
    H           -3.941053113996     2.353630634138     3.033137950164
    H           -2.358413423826     2.031662109858     3.717157657080
    C            3.342766917465    -1.052910444467    -1.389617849855
    H            3.451400524796    -0.442742068431    -2.277163217644
    H            4.022402502728    -1.889280915049    -1.438821898995
    H            3.569128891443    -0.460764316070    -0.508690381334

  Mulliken Charges: (a.u.)
   Center  Symbol    Alpha    Beta     Spin     Total
       1     O     4.25484  4.25484  0.00000 -0.50969
       2     C     2.61202  2.61202  0.00000  0.77596
       3     C     3.21214  3.21214  0.00000 -0.42429
       4     O     4.31642  4.31642  0.00000 -0.63284
       5     C     3.15308  3.15308  0.00000 -0.30616
       6     H     0.39761  0.39761  0.00000  0.20478
       7     H     0.40756  0.40756  0.00000  0.18487
       8     C     3.15320  3.15320  0.00000 -0.30640
       9     H     0.40977  0.40977  0.00000  0.18047
      10     H     0.41326  0.41326  0.00000  0.17348
      11     C     3.15166  3.15166  0.00000 -0.30333
      12     H     0.42328  0.42328  0.00000  0.15344
      13     H     0.42474  0.42474  0.00000  0.15053
      14     C     3.23965  3.23965  0.00000 -0.47929
      15     H     0.42073  0.42073  0.00000  0.15853
      16     H     0.42151  0.42151  0.00000  0.15699
      17     H     0.42151  0.42151  0.00000  0.15697
      18     H     0.41816  0.41816  0.00000  0.16367
      19     H     0.42201  0.42201  0.00000  0.15597
      20     C     3.09332  3.09332  0.00000 -0.18664
      21     H     0.40760  0.40760  0.00000  0.18481
      22     H     0.40326  0.40326  0.00000  0.19348
      23     H     0.42267  0.42267  0.00000  0.15467

   Total alpha = 36.00000, Total beta = 36.00000, Total charge = -0.00000
