  ==> Input File <==

--------------------------------------------------------------------------
set {
	reference rhf
	basis 6-31G*
}

set_num_threads( 1 )
memory 2 gb

molecule MOL {
0 1

H	 -4.236494	 0.538104	 0.039757
O	 -3.517110	 -0.026191	 -0.205115
C	 -2.306886	 0.532354	 0.237577
C	 -1.177863	 -0.397191	 -0.171080
H	 -2.156308	 1.517575	 -0.201710
H	 -2.315015	 0.655684	 1.319734
C	 0.198102	 0.111031	 0.262842
H	 -1.208843	 -0.518759	 -1.250427
H	 -1.368741	 -1.376554	 0.258909
C	 1.331804	 -0.827780	 -0.158768
H	 0.361943	 1.100838	 -0.156218
H	 0.217265	 0.229072	 1.345532
C	 2.723619	 -0.410569	 0.329459
H	 1.342964	 -0.912588	 -1.244120
H	 1.116806	 -1.824343	 0.220779
C	 2.758656	 0.913210	 1.095433
H	 3.380680	 -0.331205	 -0.533131
H	 3.137469	 -1.200223	 0.953429
H	 2.338918	 1.719654	 0.500027
H	 2.198823	 0.861163	 2.023363
H	 3.779050	 1.185981	 1.346722

	symmetry c1
}
set optking {
	frozen_dihedral = ("
		2 3 4 8,
		8 4 7 10,
		4 7 10 14,
		1 2 3 5
	")
}

ee = energy('scf')
oeprop('DIPOLE', 'QUADRUPOLE', 'MULLIKEN_CHARGES')
f=open( 'psi4out.xyz', 'w' )
f.write( "21  " )
f.write( str(ee) + "\n" )
f.write( MOL.save_string_xyz() )
f.close()
--------------------------------------------------------------------------

    Molecular point group: c1

    Geometry (in Angstrom), charge = 0, multiplicity = 1:

       Center              X                  Y                   Z               Mass
    ------------   -----------------  -----------------  -----------------  -----------------
           H         -4.165129659607     0.535253941818    -0.161248680087     1.007825032070
           O         -3.445745659607    -0.029041058182    -0.406120680087    15.994914619560
           C         -2.235521659607     0.529503941818     0.036571319913    12.000000000000
           C         -1.106498659607    -0.400041058182    -0.372085680087    12.000000000000
           H         -2.084943659607     1.514724941818    -0.402715680087     1.007825032070
           H         -2.243650659607     0.652833941818     1.118728319913     1.007825032070
           C          0.269466340393     0.108180941818     0.061836319913    12.000000000000
           H         -1.137478659607    -0.521609058182    -1.451432680087     1.007825032070
           H         -1.297376659607    -1.379404058182     0.057903319913     1.007825032070
           C          1.403168340393    -0.830630058182    -0.359773680087    12.000000000000
           H          0.433307340393     1.097987941818    -0.357223680087     1.007825032070
           H          0.288629340393     0.226221941818     1.144526319913     1.007825032070
           C          2.794983340393    -0.413419058182     0.128453319913    12.000000000000
           H          1.414328340393    -0.915438058182    -1.445125680087     1.007825032070
           H          1.188170340393    -1.827193058182     0.019773319913     1.007825032070
           C          2.830020340393     0.910359941818     0.894427319913    12.000000000000
           H          3.452044340393    -0.334055058182    -0.734136680087     1.007825032070
           H          3.208833340393    -1.203073058182     0.752423319913     1.007825032070
           H          2.410282340393     1.716803941818     0.299021319913     1.007825032070
           H          2.270187340393     0.858312941818     1.822357319913     1.007825032070
           H          3.850414340393     1.183130941818     1.145716319913     1.007825032070

  Charge       = 0
  Multiplicity = 1
  Basis Set: 6-31G*
  Basis Set:

    Orbital Energies (a.u.)
    -----------------------

    Doubly Occupied:

       1A    -20.551515     2A    -11.266604     3A    -11.214810
       4A    -11.213536     5A    -11.211969     6A    -11.209683
       7A    -11.207590     8A     -1.358322     9A     -1.087481
      10A     -1.031649    11A     -0.951030    12A     -0.881984
      13A     -0.810163    14A     -0.768321    15A     -0.691672
      16A     -0.664138    17A     -0.632104    18A     -0.599118
      19A     -0.580283    20A     -0.575360    21A     -0.533927
      22A     -0.530322    23A     -0.500949    24A     -0.489053
      25A     -0.484997    26A     -0.458840    27A     -0.444396
      28A     -0.442173    29A     -0.433512

  @DF-RHF Final Energy:  -310.20235037638520

   => Energetics <=

    Nuclear Repulsion Energy =            315.2490654050806143
    One-Electron Energy =               -1045.2517240255390334
    Two-Electron Energy =                 419.8003082440736193
    DFT Exchange-Correlation Energy =       0.0000000000000000
    Empirical Dispersion Energy =           0.0000000000000000
    PCM Polarization Energy =               0.0000000000000000
    EFP Energy =                            0.0000000000000000
    Total Energy =                       -310.2023503763847998

  Mulliken Charges: (a.u.)
   Center  Symbol    Alpha    Beta     Spin     Total
       1     H     0.28125  0.28125  0.00000  0.43749
       2     O     4.37191  4.37191  0.00000 -0.74382
       3     C     2.98940  2.98940  0.00000  0.02121
       4     C     3.15758  3.15758  0.00000 -0.31515
       5     H     0.43315  0.43315  0.00000  0.13369
       6     H     0.43309  0.43309  0.00000  0.13382
       7     C     3.16497  3.16497  0.00000 -0.32995
       8     H     0.41525  0.41525  0.00000  0.16950
       9     H     0.41515  0.41515  0.00000  0.16970
      10     C     3.15465  3.15465  0.00000 -0.30931
      11     H     0.42191  0.42191  0.00000  0.15619
      12     H     0.42199  0.42199  0.00000  0.15603
      13     C     3.15494  3.15494  0.00000 -0.30988
      14     H     0.41999  0.41999  0.00000  0.16002
      15     H     0.42012  0.42012  0.00000  0.15976
      16     C     3.24428  3.24428  0.00000 -0.48856
      17     H     0.42038  0.42038  0.00000  0.15923
      18     H     0.42013  0.42013  0.00000  0.15973
      19     H     0.42093  0.42093  0.00000  0.15814
      20     H     0.42057  0.42057  0.00000  0.15886
      21     H     0.41836  0.41836  0.00000  0.16328

   Total alpha = 29.00000, Total beta = 29.00000, Total charge = -0.00000
