  ==> Input File <==

--------------------------------------------------------------------------
set {
	reference rhf
	basis 6-31G*
}

set_num_threads( 4 )
memory 2 gb

molecule MOL {
0 1

H	 -1.173203	 3.995549	 0.288327
O	 -1.157426	 3.057472	 0.412633
C	 0.039124	 2.531911	 -0.104302
C	 0.031547	 1.023609	 0.088541
H	 0.896779	 2.955341	 0.415337
H	 0.142805	 2.783453	 -1.157430
C	 -1.134819	 0.293262	 -0.585751
H	 0.004439	 0.822698	 1.155868
H	 0.976678	 0.630948	 -0.282625
C	 -1.917817	 -0.639439	 0.339494
H	 -0.758119	 -0.268455	 -1.433105
H	 -1.813832	 1.041889	 -0.986690
H	 -2.777680	 -1.057197	 -0.174994
H	 -1.310268	 -1.471279	 0.680599
H	 -2.283753	 -0.111424	 1.216626

	symmetry c1
}
set optking {
	frozen_dihedral = ("
		8 4 7 11
	")
}

ee = optimize('scf')
oeprop('DIPOLE', 'QUADRUPOLE', 'MULLIKEN_CHARGES')
f=open( 'psi4out.xyz', 'w' )
f.write( "15  " )
f.write( str(ee) + "\n" )
f.write( MOL.save_string_xyz() )
f.close()
--------------------------------------------------------------------------

    Molecular point group: c1
  Charge       = 0
  Multiplicity = 1
  Basis Set: 6-31G*
  Basis Set:
  @DF-RHF Final Energy:  -232.13977687041739
    Total Energy =                       -232.1397768704175064
    Molecular point group: c1
  Basis Set: 6-31G*
  Basis Set:
  Basis Set: 6-31G*
  Basis Set:
  @DF-RHF Final Energy:  -232.14046422762084
    Total Energy =                       -232.1404642276209529
  Basis Set: 6-31G*
  Basis Set:
  Basis Set: 6-31G*
  Basis Set:
  @DF-RHF Final Energy:  -232.14054804615867
    Total Energy =                       -232.1405480461585853
  Basis Set: 6-31G*
  Basis Set:
  Basis Set: 6-31G*
  Basis Set:
  @DF-RHF Final Energy:  -232.14055201815256
    Total Energy =                       -232.1405520181523912
  Basis Set: 6-31G*
  Basis Set:
  Charge       = 0
  Multiplicity = 1
  Basis Set: 6-31G*
  Basis Set:

    Orbital Energies (a.u.)
    -----------------------

    Doubly Occupied:

       1A    -20.553549     2A    -11.268338     3A    -11.211669
       4A    -11.208727     5A    -11.201495     6A     -1.360223
       7A     -1.061138     8A     -0.972589     9A     -0.854821
      10A     -0.786335    11A     -0.705409    12A     -0.636566
      13A     -0.605466    14A     -0.593451    15A     -0.544877
      16A     -0.528834    17A     -0.508544    18A     -0.474387
      19A     -0.461303    20A     -0.455152    21A     -0.430620

  @DF-RHF Final Energy:  -232.14055235443169

   => Energetics <=

    Nuclear Repulsion Energy =            189.8906568517095366
    One-Electron Energy =                -691.2154338741015636
    Two-Electron Energy =                 269.1842246679605068
    DFT Exchange-Correlation Energy =       0.0000000000000000
    Empirical Dispersion Energy =           0.0000000000000000
    PCM Polarization Energy =               0.0000000000000000
    EFP Energy =                            0.0000000000000000
    Total Energy =                       -232.1405523544315201
    Molecular point group: c1
  Basis Set: 6-31G*
  Basis Set:

  -Total Gradient:
     Atom            X                  Y                   Z
    ------   -----------------  -----------------  -----------------
       1       -0.000007791011     0.000013950268     0.000013149936
       2       -0.000010591918     0.000016044312    -0.000055140972
       3       -0.000006232971    -0.000000357726     0.000072196161
       4       -0.001284123708     0.001528179633     0.000587440337
       5        0.000028099075    -0.000015472276    -0.000023477990
       6       -0.000037626279     0.000005975698     0.000001041399
       7       -0.000052432287     0.001530527440    -0.001486930969
       8        0.001085432058    -0.001546778769    -0.000247769906
       9        0.000000799618    -0.000011900538     0.000000348800
      10        0.000015566658     0.000010583991     0.000022215978
      11        0.000262124865    -0.001515965615     0.001118636727
      12       -0.000001061993    -0.000006963717    -0.000015509508
      13        0.000007087434     0.000016815193    -0.000000643680
      14       -0.000003052642    -0.000017885761     0.000002995614
      15        0.000003803104    -0.000006752137     0.000011448072

  **** Optimization is complete! (in 5 steps) ****
    Final optimized geometry and variables:
    Molecular point group: c1

    Geometry (in Angstrom), charge = 0, multiplicity = 1:

    H           -0.311863858853     2.689977079318     0.252627436326
    O           -0.274387509290     1.760343913585     0.426517330419
    C            0.880154327816     1.213646689036    -0.159467128874
    C            0.859606090564    -0.289596174274     0.052946827947
    H            1.774303793362     1.639101593145     0.292517142386
    H            0.910997590580     1.438688127173    -1.224874352721
    C           -0.313661096613    -1.000817289416    -0.654471816457
    H            0.827410369155    -0.482270992718     1.121300543872
    H            1.807746717718    -0.691795997035    -0.295804598783
    C           -1.080445845168    -1.949584463444     0.267443162399
    H            0.061639485785    -1.568776559365    -1.501529139955
    H           -1.003498474176    -0.262639464605    -1.048223166842
    H           -1.886778908564    -2.447043566511    -0.263296345411
    H           -0.427525136753    -2.718359977146     0.672353843069
    H           -1.513339417499    -1.407398555923     1.102391942310

  Mulliken Charges: (a.u.)
   Center  Symbol    Alpha    Beta     Spin     Total
       1     H     0.28060  0.28060  0.00000  0.43881
       2     O     4.36926  4.36926  0.00000 -0.73853
       3     C     3.00013  3.00013  0.00000 -0.00026
       4     C     3.16177  3.16177  0.00000 -0.32354
       5     H     0.42955  0.42955  0.00000  0.14090
       6     H     0.43246  0.43246  0.00000  0.13508
       7     C     3.15405  3.15405  0.00000 -0.30809
       8     H     0.41247  0.41247  0.00000  0.17506
       9     H     0.42180  0.42180  0.00000  0.15640
      10     C     3.24094  3.24094  0.00000 -0.48187
      11     H     0.42426  0.42426  0.00000  0.15149
      12     H     0.41067  0.41067  0.00000  0.17866
      13     H     0.42220  0.42220  0.00000  0.15561
      14     H     0.42443  0.42443  0.00000  0.15114
      15     H     0.41543  0.41543  0.00000  0.16914

   Total alpha = 21.00000, Total beta = 21.00000, Total charge =  0.00000
