  ==> Input File <==

--------------------------------------------------------------------------
set {
	reference rhf
	basis 6-31G*
}

set_num_threads( 1 )
memory 2 gb

molecule MOL {
0 1

H	 -2.261324	 -1.055180	 -0.472179
O	 -2.347518	 -0.290803	 0.079804
C	 -1.184022	 0.487508	 -0.006784
C	 0.062599	 -0.378592	 0.031606
H	 -1.176523	 1.099369	 -0.904519
H	 -1.187323	 1.153111	 0.844927
O	 1.171513	 0.459272	 -0.058250
H	 0.050699	 -1.089204	 -0.797170
H	 0.078739	 -0.954914	 0.954740
C	 2.397842	 -0.198080	 -0.002151
H	 2.508049	 -0.905315	 -0.822092
H	 3.173794	 0.550865	 -0.078850
H	 2.517602	 -0.735921	 0.936026

	symmetry c1
}
set optking {
	frozen_dihedral = ("
		8 4 3 5,
		10 7 4 8,
		4 7 10 13
	")
}

ee = energy('scf')
oeprop('DIPOLE', 'QUADRUPOLE', 'MULLIKEN_CHARGES')
f=open( 'psi4out.xyz', 'w' )
f.write( "13  " )
f.write( str(ee) + "\n" )
f.write( MOL.save_string_xyz() )
f.close()
--------------------------------------------------------------------------

    Molecular point group: c1

    Geometry (in Angstrom), charge = 0, multiplicity = 1:

       Center              X                  Y                   Z               Mass
    ------------   -----------------  -----------------  -----------------  -----------------
           H         -2.264474762013    -1.050871547303    -0.475795397137     1.007825032070
           O         -2.350668762013    -0.286494547303     0.076187602863    15.994914619560
           C         -1.187172762013     0.491816452697    -0.010400397137    12.000000000000
           C          0.059448237987    -0.374283547303     0.027989602863    12.000000000000
           H         -1.179673762013     1.103677452697    -0.908135397137     1.007825032070
           H         -1.190473762013     1.157419452697     0.841310602863     1.007825032070
           O          1.168362237987     0.463580452697    -0.061866397137    15.994914619560
           H          0.047548237987    -1.084895547303    -0.800786397137     1.007825032070
           H          0.075588237987    -0.950605547303     0.951123602863     1.007825032070
           C          2.394691237987    -0.193771547303    -0.005767397137    12.000000000000
           H          2.504898237987    -0.901006547303    -0.825708397137     1.007825032070
           H          3.170643237987     0.555173452697    -0.082466397137     1.007825032070
           H          2.514451237987    -0.731612547303     0.932409602863     1.007825032070

  Charge       = 0
  Multiplicity = 1
  Basis Set: 6-31G*
  Basis Set:

    Orbital Energies (a.u.)
    -----------------------

    Doubly Occupied:

       1A    -20.566247     2A    -20.559342     3A    -11.276955
       4A    -11.272905     5A    -11.268764     6A     -1.392441
       7A     -1.365279     8A     -1.020807     9A     -0.914998
      10A     -0.848968    11A     -0.703435    12A     -0.678027
      13A     -0.668502    14A     -0.632075    15A     -0.599285
      16A     -0.578621    17A     -0.545654    18A     -0.495542
      19A     -0.476401    20A     -0.439805    21A     -0.426130

  @DF-RHF Final Energy:  -267.94905637262093

   => Energetics <=

    Nuclear Repulsion Energy =            190.4644631668564614
    One-Electron Energy =                -743.3666167890905854
    Two-Electron Energy =                 284.9530972496132222
    DFT Exchange-Correlation Energy =       0.0000000000000000
    Empirical Dispersion Energy =           0.0000000000000000
    PCM Polarization Energy =               0.0000000000000000
    EFP Energy =                            0.0000000000000000
    Total Energy =                       -267.9490563726208734

  Mulliken Charges: (a.u.)
   Center  Symbol    Alpha    Beta     Spin     Total
       1     H     0.28244  0.28244  0.00000  0.43511
       2     O     4.37269  4.37269  0.00000 -0.74538
       3     C     2.99324  2.99324  0.00000  0.01351
       4     C     3.00649  3.00649  0.00000 -0.01297
       5     H     0.42141  0.42141  0.00000  0.15718
       6     H     0.40952  0.40952  0.00000  0.18097
       7     O     4.30604  4.30604  0.00000 -0.61208
       8     H     0.43786  0.43786  0.00000  0.12429
       9     H     0.42332  0.42332  0.00000  0.15335
      10     C     3.08094  3.08094  0.00000 -0.16188
      11     H     0.42886  0.42886  0.00000  0.14229
      12     H     0.40968  0.40968  0.00000  0.18064
      13     H     0.42751  0.42751  0.00000  0.14497

   Total alpha = 21.00000, Total beta = 21.00000, Total charge =  0.00000
