  ==> Input File <==

--------------------------------------------------------------------------
set {
	reference rhf
	basis cc-pvtz
}

set_num_threads( 4 )
memory 2 gb

molecule MOL {
0 1

H	 0.395387	 1.257511	 2.238962
C	 1.146406	 0.813145	 1.572507
C	 0.692262	 0.592428	 0.156232
O	 2.219408	 0.542052	 1.988212
C	 -0.554654	 -0.292621	 0.086567
H	 1.512351	 0.162866	 -0.403917
H	 0.466446	 1.568187	 -0.268949
C	 -1.846385	 0.513195	 -0.016346
H	 -0.473986	 -0.956115	 -0.769708
H	 -0.597929	 -0.929215	 0.966651
C	 -3.089953	 -0.365049	 -0.098564
H	 -1.798267	 1.154820	 -0.891143
H	 -1.925398	 1.173265	 0.842889
H	 -3.055079	 -1.012299	 -0.968245
H	 -3.988403	 0.236438	 -0.170014
H	 -3.183055	 -0.995885	 0.779079

	symmetry c1
}
set optking {
	frozen_dihedral = ("
		6 3 5 9
	")
}

ee = optimize('scf')
oeprop('DIPOLE', 'QUADRUPOLE', 'MULLIKEN_CHARGES')
f=open( 'psi4out.xyz', 'w' )
f.write( "16  " )
f.write( str(ee) + "\n" )
f.write( MOL.save_string_xyz() )
f.close()
--------------------------------------------------------------------------

    Molecular point group: c1
  Charge       = 0
  Multiplicity = 1
  Basis Set: CC-PVTZ
  Basis Set:
  @DF-RHF Final Energy:  -270.11508872372917
    Total Energy =                       -270.1150887237292295
    Molecular point group: c1
  Basis Set: CC-PVTZ
  Basis Set:
  Basis Set: CC-PVTZ
  Basis Set:
  @DF-RHF Final Energy:  -270.11509971092431
    Total Energy =                       -270.1150997109244258
  Basis Set: CC-PVTZ
  Basis Set:
  Basis Set: CC-PVTZ
  Basis Set:
  @DF-RHF Final Energy:  -270.11274719484101
    Total Energy =                       -270.1127471948410630
  Basis Set: CC-PVTZ
  Basis Set:
  Basis Set: CC-PVTZ
  Basis Set:
  @DF-RHF Final Energy:  -270.11548318246906
    Total Energy =                       -270.1154831824692337
  Basis Set: CC-PVTZ
  Basis Set:
  @DF-RHF Final Energy:  -270.11554917388457
    Total Energy =                       -270.1155491738844603
  Basis Set: CC-PVTZ
  Basis Set:
  @DF-RHF Final Energy:  -270.11558410099184
    Total Energy =                       -270.1155841009919527
  Basis Set: CC-PVTZ
  Basis Set:
  Basis Set: CC-PVTZ
  Basis Set:
  @DF-RHF Final Energy:  -270.11559894615846
    Total Energy =                       -270.1155989461585136
  Basis Set: CC-PVTZ
  Basis Set:
  Basis Set: CC-PVTZ
  Basis Set:
  @DF-RHF Final Energy:  -270.11560278854029
    Total Energy =                       -270.1156027885403432
  Basis Set: CC-PVTZ
  Basis Set:
  Charge       = 0
  Multiplicity = 1
  Basis Set: CC-PVTZ
  Basis Set:

    Orbital Energies (a.u.)
    -----------------------

    Doubly Occupied:

       1A    -20.551311     2A    -11.321643     3A    -11.234428
       4A    -11.233822     5A    -11.229415     6A    -11.217930
       7A     -1.406543     8A     -1.097622     9A     -1.019422
      10A     -0.906881    11A     -0.822202    12A     -0.791474
      13A     -0.672130    14A     -0.659045    15A     -0.617160
      16A     -0.611746    17A     -0.583729    18A     -0.558879
      19A     -0.536893    20A     -0.510185    21A     -0.486289
      22A     -0.483647    23A     -0.475612    24A     -0.412038

  @DF-RHF Final Energy:  -270.11560289292152

   => Energetics <=

    Nuclear Repulsion Energy =            230.7480549125164941
    One-Electron Energy =                -822.8472218473195881
    Two-Electron Energy =                 321.9835640418814364
    DFT Exchange-Correlation Energy =       0.0000000000000000
    Empirical Dispersion Energy =           0.0000000000000000
    PCM Polarization Energy =               0.0000000000000000
    EFP Energy =                            0.0000000000000000
    Total Energy =                       -270.1156028929216291
    Molecular point group: c1
  Basis Set: CC-PVTZ
  Basis Set:

  -Total Gradient:
     Atom            X                  Y                   Z
    ------   -----------------  -----------------  -----------------
       1       -0.000008185910     0.000002348196    -0.000008130490
       2        0.000004569672    -0.000012796133     0.000001108955
       3        0.001088400260    -0.001935677865     0.002878329640
       4        0.000003200870     0.000002457706    -0.000003865646
       5       -0.001436355969     0.002380327995    -0.002247369183
       6       -0.000678112602     0.001235102387    -0.002015781827
       7       -0.000002469925     0.000001386731     0.000001722372
       8        0.000010245827     0.000003928939     0.000023928675
       9        0.001024100001    -0.001683918918     0.001375374221
      10       -0.000003215672     0.000014154682    -0.000000286530
      11       -0.000003200627    -0.000004042693    -0.000009315582
      12        0.000001034582    -0.000010547334     0.000002868066
      13       -0.000000857746     0.000004725343     0.000001098441
      14       -0.000000206889    -0.000001998282     0.000001849008
      15       -0.000001004468     0.000000250351    -0.000001868103
      16        0.000002058599     0.000004298895     0.000000337980

  **** Optimization is complete! (in 9 steps) ****
    Final optimized geometry and variables:
    Molecular point group: c1

    Geometry (in Angstrom), charge = 0, multiplicity = 1:

    H            0.576719608789     0.742254553746     1.664283125627
    C            1.382678942910     0.481248064305     0.965960855585
    C            0.950966265199     0.238795459553    -0.454159656415
    O            2.497776831814     0.410230249842     1.351876488133
    C           -0.322876903896    -0.618631287335    -0.556651770314
    H            1.779000640647    -0.195620439114    -0.996642109697
    H            0.768243471940     1.215447127248    -0.897978881308
    C           -1.614013867777     0.190127134077    -0.648289523771
    H           -0.236200563352    -1.273804632918    -1.415837826881
    H           -0.379509661903    -1.284318893644     0.301712471594
    C           -2.861632500222    -0.683964306299    -0.703341784412
    H           -1.573734198552     0.821052213596    -1.531636540290
    H           -1.683575776785     0.863524567987     0.201940301617
    H           -2.835281251620    -1.348020273127    -1.560699914580
    H           -3.758587036262    -0.080863997646    -0.779372671129
    H           -2.949725314073    -1.297765507299     0.186641642828

  Mulliken Charges: (a.u.)
   Center  Symbol    Alpha    Beta     Spin     Total
       1     H     0.46505  0.46505  0.00000  0.06991
       2     C     2.90406  2.90406  0.00000  0.19187
       3     C     3.08740  3.08740  0.00000 -0.17479
       4     O     4.16493  4.16493  0.00000 -0.32985
       5     C     3.10953  3.10953  0.00000 -0.21907
       6     H     0.43545  0.43545  0.00000  0.12910
       7     H     0.45001  0.45001  0.00000  0.09997
       8     C     3.08435  3.08435  0.00000 -0.16870
       9     H     0.44152  0.44152  0.00000  0.11696
      10     H     0.44967  0.44967  0.00000  0.10066
      11     C     3.14938  3.14938  0.00000 -0.29875
      12     H     0.45159  0.45159  0.00000  0.09682
      13     H     0.45370  0.45370  0.00000  0.09260
      14     H     0.45338  0.45338  0.00000  0.09324
      15     H     0.44651  0.44651  0.00000  0.10697
      16     H     0.45347  0.45347  0.00000  0.09305

   Total alpha = 24.00000, Total beta = 24.00000, Total charge = -0.00000
