  ==> Input File <==

--------------------------------------------------------------------------
set {
	reference rhf
	basis 6-31G*
}

set_num_threads( 1 )
memory 2 gb

molecule MOL {
0 1

H	 -1.984402	 0.349910	 -2.669165
N	 -1.030100	 0.204138	 -2.402645
C	 -0.878802	 -1.058037	 -1.700414
H	 -0.771183	 0.957448	 -1.795524
C	 0.562120	 -1.242211	 -1.272678
H	 -1.513632	 -1.148180	 -0.817880
H	 -1.144296	 -1.865131	 -2.376353
O	 0.874168	 -0.245412	 -0.342030
H	 0.699643	 -2.227013	 -0.826706
H	 1.213772	 -1.165701	 -2.140278
C	 2.202317	 -0.244239	 0.074611
H	 2.711377	 -1.041390	 -0.449894
H	 2.692099	 0.699270	 -0.159667
H	 2.283185	 -0.418429	 1.145558

	symmetry c1
}
set optking {
	frozen_dihedral = ("
		8 5 3 6,
		6 3 2 4,
		11 8 5 3
	")
}

ee = energy('scf')
oeprop('DIPOLE', 'QUADRUPOLE', 'MULLIKEN_CHARGES')
f=open( 'psi4out.xyz', 'w' )
f.write( "14  " )
f.write( str(ee) + "\n" )
f.write( MOL.save_string_xyz() )
f.close()
--------------------------------------------------------------------------

    Molecular point group: c1

    Geometry (in Angstrom), charge = 0, multiplicity = 1:

       Center              X                  Y                   Z               Mass
    ------------   -----------------  -----------------  -----------------  -----------------
           H         -2.336142733608     0.849530160645    -1.549309299458     1.007825032070
           N         -1.381840733608     0.703758160645    -1.282789299458    14.003074004780
           C         -1.230542733608    -0.558416839355    -0.580558299458    12.000000000000
           H         -1.122923733608     1.457068160645    -0.675668299458     1.007825032070
           C          0.210379266392    -0.742590839355    -0.152822299458    12.000000000000
           H         -1.865372733608    -0.648559839355     0.301975700542     1.007825032070
           H         -1.496036733608    -1.365510839355    -1.256497299458     1.007825032070
           O          0.522427266392     0.254208160645     0.777825700542    15.994914619560
           H          0.347902266392    -1.727392839355     0.293149700542     1.007825032070
           H          0.862031266392    -0.666080839355    -1.020422299458     1.007825032070
           C          1.850576266392     0.255381160645     1.194466700542    12.000000000000
           H          2.359636266392    -0.541769839355     0.669961700542     1.007825032070
           H          2.340358266392     1.198890160645     0.960188700542     1.007825032070
           H          1.931444266392     0.081191160645     2.265413700542     1.007825032070

  Charge       = 0
  Multiplicity = 1
  Basis Set: 6-31G*
  Basis Set:

    Orbital Energies (a.u.)
    -----------------------

    Doubly Occupied:

       1A    -20.554058     2A    -15.528302     3A    -11.266666
       4A    -11.265569     5A    -11.240653     6A     -1.380344
       7A     -1.173461     8A     -0.998087     9A     -0.907287
      10A     -0.817235    11A     -0.683210    12A     -0.671979
      13A     -0.642763    14A     -0.611609    15A     -0.606892
      16A     -0.537778    17A     -0.535288    18A     -0.495657
      19A     -0.473365    20A     -0.412588    21A     -0.380032

  @DF-RHF Final Energy:  -248.12021781840039

   => Energetics <=

    Nuclear Repulsion Energy =            194.7621069446439321
    One-Electron Energy =                -723.3989557531730270
    Two-Electron Energy =                 280.5166309901286468
    DFT Exchange-Correlation Energy =       0.0000000000000000
    Empirical Dispersion Energy =           0.0000000000000000
    PCM Polarization Energy =               0.0000000000000000
    EFP Energy =                            0.0000000000000000
    Total Energy =                       -248.1202178184004197

  Mulliken Charges: (a.u.)
   Center  Symbol    Alpha    Beta     Spin     Total
       1     H     0.33285  0.33285  0.00000  0.33431
       2     N     3.92536  3.92536  0.00000 -0.85072
       3     C     3.06876  3.06876  0.00000 -0.13752
       4     H     0.32354  0.32354  0.00000  0.35292
       5     C     2.99288  2.99288  0.00000  0.01424
       6     H     0.42648  0.42648  0.00000  0.14704
       7     H     0.42056  0.42056  0.00000  0.15889
       8     O     4.31226  4.31226  0.00000 -0.62451
       9     H     0.43035  0.43035  0.00000  0.13931
      10     H     0.42148  0.42148  0.00000  0.15703
      11     C     3.07447  3.07447  0.00000 -0.14894
      12     H     0.42907  0.42907  0.00000  0.14186
      13     H     0.42037  0.42037  0.00000  0.15925
      14     H     0.42158  0.42158  0.00000  0.15685

   Total alpha = 21.00000, Total beta = 21.00000, Total charge = -0.00000
