  ==> Input File <==

--------------------------------------------------------------------------
set {
	reference rhf
	basis 6-31G*
}

set_num_threads( 4 )
memory 2 gb

molecule MOL {
0 1

H	 -1.084528	 1.940936	 -1.447889
C	 -0.887337	 1.085101	 -0.833016
C	 -1.918774	 0.465148	 -0.052428
C	 0.341495	 0.556588	 -0.769282
H	 -2.916367	 0.866347	 -0.082298
C	 -1.648013	 -0.604526	 0.709116
H	 1.167886	 0.961049	 -1.322358
N	 0.640212	 -0.532897	 -0.000111
H	 -2.393158	 -1.093839	 1.305511
C	 -0.310763	 -1.179474	 0.778260
C	 2.010177	 -1.032049	 0.000042
O	 -0.026760	 -2.139770	 1.450107
H	 2.187698	 -1.635381	 -0.882279
H	 2.677579	 -0.189247	 -0.001871
H	 2.188882	 -1.632203	 0.884288

	symmetry c1
}
set optking {
	frozen_dihedral = ("
		10 8 11 13
	")
}

ee = optimize('scf')
oeprop('DIPOLE', 'QUADRUPOLE', 'MULLIKEN_CHARGES')
f=open( 'psi4out.xyz', 'w' )
f.write( "15  " )
f.write( str(ee) + "\n" )
f.write( MOL.save_string_xyz() )
f.close()
--------------------------------------------------------------------------

    Molecular point group: c1
  Charge       = 0
  Multiplicity = 1
  Basis Set: 6-31G*
  Basis Set:
  @DF-RHF Final Energy:  -360.59568906773580
    Total Energy =                       -360.5956890677358615
    Molecular point group: c1
  Basis Set: 6-31G*
  Basis Set:
  Basis Set: 6-31G*
  Basis Set:
  @DF-RHF Final Energy:  -360.59593422564228
    Total Energy =                       -360.5959342256420541
  Basis Set: 6-31G*
  Basis Set:
  Basis Set: 6-31G*
  Basis Set:
  @DF-RHF Final Energy:  -360.59594888369452
    Total Energy =                       -360.5959488836945752
  Basis Set: 6-31G*
  Basis Set:
  Basis Set: 6-31G*
  Basis Set:
  @DF-RHF Final Energy:  -360.59595777310807
    Total Energy =                       -360.5959577731081254
  Basis Set: 6-31G*
  Basis Set:
  Charge       = 0
  Multiplicity = 1
  Basis Set: 6-31G*
  Basis Set:

    Orbital Energies (a.u.)
    -----------------------

    Doubly Occupied:

       1A    -20.508667     2A    -15.621472     3A    -11.343062
       4A    -11.296872     5A    -11.264763     6A    -11.260423
       7A    -11.233594     8A    -11.229137     9A     -1.384429
      10A     -1.281012    11A     -1.114825    12A     -1.025847
      13A     -0.970048    14A     -0.872260    15A     -0.835394
      16A     -0.715528    17A     -0.698305    18A     -0.660828
      19A     -0.647997    20A     -0.621899    21A     -0.606631
      22A     -0.572492    23A     -0.552249    24A     -0.547094
      25A     -0.526433    26A     -0.476448    27A     -0.413902
      28A     -0.405709    29A     -0.305088

  @DF-RHF Final Energy:  -360.59596706194498

   => Energetics <=

    Nuclear Repulsion Energy =            357.6529945334141303
    One-Electron Energy =               -1198.5131071454643461
    Two-Electron Energy =                 480.2641455501054679
    DFT Exchange-Correlation Energy =       0.0000000000000000
    Empirical Dispersion Energy =           0.0000000000000000
    PCM Polarization Energy =               0.0000000000000000
    EFP Energy =                            0.0000000000000000
    Total Energy =                       -360.5959670619447479
    Molecular point group: c1
  Basis Set: 6-31G*
  Basis Set:

  -Total Gradient:
     Atom            X                  Y                   Z
    ------   -----------------  -----------------  -----------------
       1       -0.000003573796    -0.000002209812    -0.000002717742
       2        0.000022667412    -0.000009889791    -0.000008207772
       3       -0.000023826975    -0.000009617049     0.000017370103
       4       -0.000038370958     0.000053423025     0.000005957450
       5       -0.000002908198     0.000002904015    -0.000000086316
       6       -0.000027838061     0.000019222623    -0.000024868959
       7        0.000004856519    -0.000015896255    -0.000001809377
       8       -0.000080739079    -0.000284440301    -0.000505998404
       9        0.000004378847    -0.000001274147    -0.000003075203
      10        0.000122276915     0.000283708429     0.000315288218
      11       -0.000166069190    -0.000396772878     0.000422010218
      12        0.000030229751     0.000005662986    -0.000027500077
      13        0.000145788584     0.000402766137    -0.000239355832
      14       -0.000027712052    -0.000001122118     0.000000645143
      15        0.000040840282    -0.000046464857     0.000052348546

  **** Optimization is complete! (in 5 steps) ****
    Final optimized geometry and variables:
    Molecular point group: c1

    Geometry (in Angstrom), charge = 0, multiplicity = 1:

    H           -0.927111362179     2.398601426451    -1.637010148177
    C           -0.724727180696     1.547300142591    -1.017635457089
    C           -1.751523699984     0.928896361472    -0.230007758753
    C            0.507700603136     1.026786270837    -0.951758391398
    H           -2.750246936369     1.327285053565    -0.258968064059
    C           -1.475102003541    -0.135534992748     0.537076599686
    H            1.330593189713     1.433194582872    -1.508059466273
    N            0.813196282574    -0.053470563530    -0.172714517534
    H           -2.216838248991    -0.624842547762     1.137870108826
    C           -0.137131444005    -0.708954223332     0.598106973333
    C            2.177815767241    -0.567054281186    -0.175560667587
    O            0.152293763597    -1.676718514476     1.256861267142
    H            2.361618397888    -1.162461654263    -1.062569449001
    H            2.874757089206     0.260664334959    -0.153480130528
    H            2.316280461417    -1.181172048842     0.696505369080

  Mulliken Charges: (a.u.)
   Center  Symbol    Alpha    Beta     Spin     Total
       1     H     0.39289  0.39289  0.00000  0.21421
       2     C     3.16170  3.16170  0.00000 -0.32340
       3     C     3.05827  3.05827  0.00000 -0.11654
       4     C     2.92104  2.92104  0.00000  0.15792
       5     H     0.39085  0.39085  0.00000  0.21830
       6     C     3.16969  3.16969  0.00000 -0.33938
       7     H     0.38793  0.38793  0.00000  0.22414
       8     N     3.86527  3.86527  0.00000 -0.73054
       9     H     0.38637  0.38637  0.00000  0.22726
      10     C     2.59450  2.59450  0.00000  0.81099
      11     C     3.15160  3.15160  0.00000 -0.30320
      12     O     4.32194  4.32194  0.00000 -0.64387
      13     H     0.40768  0.40768  0.00000  0.18464
      14     H     0.41311  0.41311  0.00000  0.17378
      15     H     0.37716  0.37716  0.00000  0.24568

   Total alpha = 29.00000, Total beta = 29.00000, Total charge = -0.00000
