  ==> Input File <==

--------------------------------------------------------------------------
set {
	reference rhf
	basis cc-pvtz
}

set_num_threads( 4 )
memory 2 gb

molecule MOL {
0 1

H	 -2.708670	 0.707792	 -0.096405
O	 -2.313989	 -0.142475	 -0.025864
C	 -0.943808	 -0.065018	 -0.330000
H	 -0.812293	 -0.225641	 -1.398673
C	 -0.231030	 -1.182113	 0.407592
C	 -0.353797	 1.300461	 0.050970
H	 -0.312800	 -0.992012	 1.473041
H	 -0.738841	 -2.119564	 0.220514
C	 1.246176	 -1.268044	 -0.015480
H	 -0.539537	 2.008579	 -0.751815
H	 -0.889989	 1.662858	 0.920677
C	 1.153605	 1.231851	 0.356834
H	 1.823096	 -1.684665	 0.802361
H	 1.352335	 -1.958223	 -0.845114
C	 1.826409	 0.100723	 -0.416008
H	 1.622968	 2.181508	 0.128734
H	 1.301983	 1.066493	 1.419367
H	 2.897299	 0.112407	 -0.249665
H	 1.683458	 0.265621	 -1.480024

	symmetry c1
}
set optking {
	frozen_dihedral = ("
		1 2 3 4
	")
}

ee = optimize('scf')
oeprop('DIPOLE', 'QUADRUPOLE', 'MULLIKEN_CHARGES')
f=open( 'psi4out.xyz', 'w' )
f.write( "19  " )
f.write( str(ee) + "\n" )
f.write( MOL.save_string_xyz() )
f.close()
--------------------------------------------------------------------------

    Molecular point group: c1
  Charge       = 0
  Multiplicity = 1
  Basis Set: CC-PVTZ
  Basis Set:
  @DF-RHF Final Energy:  -309.16269502968089
    Total Energy =                       -309.1626950296809468
    Molecular point group: c1
  Basis Set: CC-PVTZ
  Basis Set:
  Basis Set: CC-PVTZ
  Basis Set:
  @DF-RHF Final Energy:  -309.16273909053564
    Total Energy =                       -309.1627390905349557
  Basis Set: CC-PVTZ
  Basis Set:
  Basis Set: CC-PVTZ
  Basis Set:
  @DF-RHF Final Energy:  -309.16275447373067
    Total Energy =                       -309.1627544737308426
  Basis Set: CC-PVTZ
  Basis Set:
  Charge       = 0
  Multiplicity = 1
  Basis Set: CC-PVTZ
  Basis Set:

    Orbital Energies (a.u.)
    -----------------------

    Doubly Occupied:

       1A    -20.542332     2A    -11.267026     3A    -11.217520
       4A    -11.216760     5A    -11.214627     6A    -11.213412
       7A    -11.206328     8A     -1.362571     9A     -1.111270
      10A     -1.004951    11A     -0.989894    12A     -0.846757
      13A     -0.838972    14A     -0.739535    15A     -0.687667
      16A     -0.668237    17A     -0.628003    18A     -0.597269
      19A     -0.582803    20A     -0.549852    21A     -0.529089
      22A     -0.520702    23A     -0.501502    24A     -0.487089
      25A     -0.467505    26A     -0.449943    27A     -0.427151
      28A     -0.415828

  @DF-RHF Final Energy:  -309.16275482423060

   => Energetics <=

    Nuclear Repulsion Energy =            332.0865652476441596
    One-Electron Energy =               -1077.9294506325952625
    Two-Electron Energy =                 436.6801305607204426
    DFT Exchange-Correlation Energy =       0.0000000000000000
    Empirical Dispersion Energy =           0.0000000000000000
    PCM Polarization Energy =               0.0000000000000000
    EFP Energy =                            0.0000000000000000
    Total Energy =                       -309.1627548242307171
    Molecular point group: c1
  Basis Set: CC-PVTZ
  Basis Set:

  -Total Gradient:
     Atom            X                  Y                   Z
    ------   -----------------  -----------------  -----------------
       1        0.000343530125     0.000296646573     0.001695446428
       2       -0.000396731215    -0.000753969764    -0.002019414432
       3       -0.000093653174     0.001905781448     0.000085596868
       4        0.000156859450    -0.001474698786     0.000266614761
       5       -0.000016170668    -0.000020501863    -0.000030921928
       6        0.000043631569     0.000002923153    -0.000021370659
       7        0.000004703248     0.000000556233    -0.000009671021
       8       -0.000006970738    -0.000017713739     0.000008054409
       9       -0.000008305494     0.000006906572    -0.000000782061
      10        0.000013550763     0.000005175278     0.000010748889
      11        0.000009554984     0.000001979845     0.000013317877
      12       -0.000007074008     0.000032235017    -0.000017649649
      13       -0.000009315793    -0.000006106894     0.000012665184
      14       -0.000007653032    -0.000004582986     0.000014756403
      15       -0.000013647851    -0.000012265022    -0.000006254396
      16       -0.000000275235     0.000015195985     0.000009931801
      17       -0.000009068987    -0.000002378782    -0.000005764967
      18       -0.000003346740     0.000008063765    -0.000003598711
      19        0.000000382792     0.000016753967    -0.000001704794

  **** Optimization is complete! (in 4 steps) ****
    Final optimized geometry and variables:
    Molecular point group: c1

    Geometry (in Angstrom), charge = 0, multiplicity = 1:

    H           -2.718704731999     0.700336205053    -0.127727289613
    O           -2.318113458563    -0.145528192614    -0.047635802600
    C           -0.942437144552    -0.064365403093    -0.328043189488
    H           -0.801179863162    -0.230354228887    -1.394244527816
    C           -0.230094648023    -1.181631814166     0.411641918499
    C           -0.354483138646     1.298957155087     0.056277250437
    H           -0.307221923031    -0.989809960697     1.477256340959
    H           -0.740917398685    -2.118394140934     0.228307989191
    C            1.244559452292    -1.270980899787    -0.018815618990
    H           -0.547496497905     2.010556624619    -0.741179293857
    H           -0.880076059054     1.658488149558     0.935370009798
    C            1.154841215857     1.230074683461     0.353467994981
    H            1.825174385821    -1.689407116630     0.795489602105
    H            1.345400993018    -1.960053639218    -0.849942818090
    C            1.824359429382     0.097887654293    -0.421037843856
    H            1.622163935810     2.179684003987     0.121371819803
    H            1.308509141336     1.066249828698     1.415325370136
    H            2.895465240241     0.110304212763    -0.256407499134
    H            1.679342879655     0.262984958842    -1.484507305400

  Mulliken Charges: (a.u.)
   Center  Symbol    Alpha    Beta     Spin     Total
       1     H     0.39407  0.39407  0.00000  0.21186
       2     O     4.20387  4.20387  0.00000 -0.40774
       3     C     2.92226  2.92226  0.00000  0.15549
       4     H     0.46091  0.46091  0.00000  0.07819
       5     C     3.09645  3.09645  0.00000 -0.19290
       6     C     3.12646  3.12646  0.00000 -0.25292
       7     H     0.45633  0.45633  0.00000  0.08735
       8     H     0.44055  0.44055  0.00000  0.11889
       9     C     3.11404  3.11404  0.00000 -0.22807
      10     H     0.44671  0.44671  0.00000  0.10658
      11     H     0.44991  0.44991  0.00000  0.10018
      12     C     3.10075  3.10075  0.00000 -0.20151
      13     H     0.44706  0.44706  0.00000  0.10588
      14     H     0.44718  0.44718  0.00000  0.10564
      15     C     3.10251  3.10251  0.00000 -0.20502
      16     H     0.44228  0.44228  0.00000  0.11545
      17     H     0.45233  0.45233  0.00000  0.09535
      18     H     0.44275  0.44275  0.00000  0.11450
      19     H     0.45360  0.45360  0.00000  0.09280

   Total alpha = 28.00000, Total beta = 28.00000, Total charge = -0.00000
