  ==> Input File <==

--------------------------------------------------------------------------
set {
	reference rhf
	basis 6-31G*
}

set_num_threads( 1 )
memory 2 gb

molecule MOL {
0 1

O	 1.840160	 1.307606	 0.116815
C	 1.684305	 0.151502	 0.345401
C	 0.361322	 -0.574807	 0.337857
O	 2.682710	 -0.671414	 0.640583
C	 -0.823008	 0.326187	 0.001381
H	 0.445403	 -1.395246	 -0.369620
H	 0.239398	 -1.037482	 1.313452
C	 -2.149452	 -0.435131	 -0.000098
H	 -0.659431	 0.784300	 -0.968961
H	 -0.866388	 1.141764	 0.716407
C	 -3.368779	 0.488503	 -0.000883
H	 -2.193746	 -1.087250	 -0.871175
H	 -2.195311	 -1.087803	 0.870418
C	 -4.693822	 -0.272754	 -0.001129
H	 -3.325798	 1.139422	 -0.871284
H	 -3.326423	 1.139959	 0.869145
H	 -4.781274	 -0.907928	 -0.878124
H	 -5.538651	 0.408946	 -0.001420
H	 -4.781694	 -0.907783	 0.875984
C	 3.984153	 -0.114908	 0.679317
H	 4.249386	 0.298727	 -0.283017
H	 4.645755	 -0.928809	 0.931752
H	 4.043273	 0.661790	 1.428151

	symmetry c1
}
set optking {
	frozen_dihedral = ("
		15 11 8 12,
		1 2 3 6,
		9 5 3 6,
		1 2 4 20
	")
}

ee = energy('scf')
oeprop('DIPOLE', 'QUADRUPOLE', 'MULLIKEN_CHARGES')
f=open( 'psi4out.xyz', 'w' )
f.write( "23  " )
f.write( str(ee) + "\n" )
f.write( MOL.save_string_xyz() )
f.close()
--------------------------------------------------------------------------

    Molecular point group: c1

    Geometry (in Angstrom), charge = 0, multiplicity = 1:

       Center              X                  Y                   Z               Mass
    ------------   -----------------  -----------------  -----------------  -----------------
           O          1.854578669904     1.282950697476    -0.123309025738    15.994914619560
           C          1.698723669904     0.126846697476     0.105276974262    12.000000000000
           C          0.375740669904    -0.599462302524     0.097732974262    12.000000000000
           O          2.697128669904    -0.696069302524     0.400458974262    15.994914619560
           C         -0.808589330096     0.301531697476    -0.238743025738    12.000000000000
           H          0.459821669904    -1.419901302524    -0.609744025738     1.007825032070
           H          0.253816669904    -1.062137302524     1.073327974262     1.007825032070
           C         -2.135033330096    -0.459786302524    -0.240222025738    12.000000000000
           H         -0.645012330096     0.759644697476    -1.209085025738     1.007825032070
           H         -0.851969330096     1.117108697476     0.476282974262     1.007825032070
           C         -3.354360330096     0.463847697476    -0.241007025738    12.000000000000
           H         -2.179327330096    -1.111905302524    -1.111299025738     1.007825032070
           H         -2.180892330096    -1.112458302524     0.630293974262     1.007825032070
           C         -4.679403330096    -0.297409302524    -0.241253025738    12.000000000000
           H         -3.311379330096     1.114766697476    -1.111408025738     1.007825032070
           H         -3.312004330096     1.115303697476     0.629020974262     1.007825032070
           H         -4.766855330096    -0.932583302524    -1.118248025738     1.007825032070
           H         -5.524232330096     0.384290697476    -0.241544025738     1.007825032070
           H         -4.767275330096    -0.932438302524     0.635859974262     1.007825032070
           C          3.998571669904    -0.139563302524     0.439192974262    12.000000000000
           H          4.263804669904     0.274071697476    -0.523141025738     1.007825032070
           H          4.660173669904    -0.953464302524     0.691627974262     1.007825032070
           H          4.057691669904     0.637134697476     1.188026974262     1.007825032070

  Charge       = 0
  Multiplicity = 1
  Basis Set: 6-31G*
  Basis Set:

    Orbital Energies (a.u.)
    -----------------------

    Doubly Occupied:

       1A    -20.603604     2A    -20.545399     3A    -11.372187
       4A    -11.280838     5A    -11.235589     6A    -11.219061
       7A    -11.217683     8A    -11.216524     9A    -11.209611
      10A     -1.469300    11A     -1.362732    12A     -1.093236
      13A     -1.043623    14A     -0.987021    15A     -0.932078
      16A     -0.843596    17A     -0.795117    18A     -0.767309
      19A     -0.697137    20A     -0.683705    21A     -0.671566
      22A     -0.650938    23A     -0.609783    24A     -0.599349
      25A     -0.572702    26A     -0.558402    27A     -0.557026
      28A     -0.524278    29A     -0.521057    30A     -0.507158
      31A     -0.484973    32A     -0.469962    33A     -0.465797
      34A     -0.460954    35A     -0.455419    36A     -0.435363

  @DF-RHF Final Energy:  -422.97560545628761

   => Energetics <=

    Nuclear Repulsion Energy =            452.2361896170681916
    One-Electron Energy =               -1472.1834055086226272
    Two-Electron Energy =                 596.9716104352642105
    DFT Exchange-Correlation Energy =       0.0000000000000000
    Empirical Dispersion Energy =           0.0000000000000000
    PCM Polarization Energy =               0.0000000000000000
    EFP Energy =                            0.0000000000000000
    Total Energy =                       -422.9756054562901681

  Mulliken Charges: (a.u.)
   Center  Symbol    Alpha    Beta     Spin     Total
       1     O     4.28608  4.28608  0.00000 -0.57215
       2     C     2.60495  2.60495  0.00000  0.79010
       3     C     3.20860  3.20860  0.00000 -0.41719
       4     O     4.30741  4.30741  0.00000 -0.61481
       5     C     3.15267  3.15267  0.00000 -0.30535
       6     H     0.40055  0.40055  0.00000  0.19890
       7     H     0.40064  0.40064  0.00000  0.19873
       8     C     3.15357  3.15357  0.00000 -0.30715
       9     H     0.41105  0.41105  0.00000  0.17789
      10     H     0.41180  0.41180  0.00000  0.17640
      11     C     3.15188  3.15188  0.00000 -0.30376
      12     H     0.42269  0.42269  0.00000  0.15462
      13     H     0.42468  0.42468  0.00000  0.15065
      14     C     3.23967  3.23967  0.00000 -0.47934
      15     H     0.42107  0.42107  0.00000  0.15787
      16     H     0.42154  0.42154  0.00000  0.15693
      17     H     0.42173  0.42173  0.00000  0.15654
      18     H     0.41850  0.41850  0.00000  0.16300
      19     H     0.42189  0.42189  0.00000  0.15622
      20     C     3.09245  3.09245  0.00000 -0.18489
      21     H     0.40906  0.40906  0.00000  0.18189
      22     H     0.40844  0.40844  0.00000  0.18313
      23     H     0.40910  0.40910  0.00000  0.18180

   Total alpha = 36.00000, Total beta = 36.00000, Total charge = -0.00000
