  ==> Input File <==

--------------------------------------------------------------------------
set {
	reference rhf
	basis cc-pvtz
}

set_num_threads( 4 )
memory 2 gb

molecule MOL {
0 1

H	 3.459101	 0.139266	 -0.762951
C	 2.749156	 -0.051729	 0.031265
C	 1.322304	 0.099773	 -0.484271
H	 2.929445	 -1.053887	 0.403481
H	 2.954281	 0.646699	 0.834672
C	 0.308557	 -0.162619	 0.622645
H	 1.143368	 -0.594400	 -1.295960
H	 1.169532	 1.100095	 -0.870217
N	 -1.069352	 -0.004081	 0.085342
H	 0.371632	 -1.172932	 0.991288
H	 0.400391	 0.548875	 1.426218
O	 -1.236974	 -0.255595	 -1.060616
O	 -1.900942	 0.390867	 0.831945

	symmetry c1
}
set optking {
	frozen_dihedral = ("
		12 9 6 3
	")
}

ee = optimize('scf')
oeprop('DIPOLE', 'QUADRUPOLE', 'MULLIKEN_CHARGES')
f=open( 'psi4out.xyz', 'w' )
f.write( "13  " )
f.write( str(ee) + "\n" )
f.write( MOL.save_string_xyz() )
f.close()
--------------------------------------------------------------------------

    Molecular point group: c1
  Charge       = 0
  Multiplicity = 1
  Basis Set: CC-PVTZ
  Basis Set:
  @DF-RHF Final Energy:  -321.85933294438843
    Total Energy =                       -321.8593329443883704
    Molecular point group: c1
  Basis Set: CC-PVTZ
  Basis Set:
  Basis Set: CC-PVTZ
  Basis Set:
  @DF-RHF Final Energy:  -321.85657236912249
    Total Energy =                       -321.8565723691223184
  Basis Set: CC-PVTZ
  Basis Set:
  Basis Set: CC-PVTZ
  Basis Set:
  @DF-RHF Final Energy:  -321.85769849798402
    Total Energy =                       -321.8576984979843587
  Basis Set: CC-PVTZ
  Basis Set:
  Basis Set: CC-PVTZ
  Basis Set:
  @DF-RHF Final Energy:  -321.86044508260659
    Total Energy =                       -321.8604450826064749
  Basis Set: CC-PVTZ
  Basis Set:
  Basis Set: CC-PVTZ
  Basis Set:
  @DF-RHF Final Energy:  -321.86068655448707
    Total Energy =                       -321.8606865544871312
  Basis Set: CC-PVTZ
  Basis Set:
  Basis Set: CC-PVTZ
  Basis Set:
  @DF-RHF Final Energy:  -321.86071083316585
    Total Energy =                       -321.8607108331660811
  Basis Set: CC-PVTZ
  Basis Set:
  Basis Set: CC-PVTZ
  Basis Set:
  @DF-RHF Final Energy:  -321.86071335096460
    Total Energy =                       -321.8607133509646019
  Basis Set: CC-PVTZ
  Basis Set:
  Charge       = 0
  Multiplicity = 1
  Basis Set: CC-PVTZ
  Basis Set:

    Orbital Energies (a.u.)
    -----------------------

    Doubly Occupied:

       1A    -20.591640     2A    -20.589922     3A    -15.838238
       4A    -11.298778     5A    -11.248156     6A    -11.235262
       7A     -1.637082     8A     -1.421150     9A     -1.131980
      10A     -1.026940    11A     -0.884793    12A     -0.828116
      13A     -0.763639    14A     -0.748784    15A     -0.730671
      16A     -0.660804    17A     -0.606546    18A     -0.579309
      19A     -0.552520    20A     -0.522344    21A     -0.509928
      22A     -0.487700    23A     -0.474441    24A     -0.454330

  @DF-RHF Final Energy:  -321.86071357805884

   => Energetics <=

    Nuclear Repulsion Energy =            247.6500204441656763
    One-Electron Energy =                -929.3753232711885630
    Two-Electron Energy =                 359.8645892489640801
    DFT Exchange-Correlation Energy =       0.0000000000000000
    Empirical Dispersion Energy =           0.0000000000000000
    PCM Polarization Energy =               0.0000000000000000
    EFP Energy =                            0.0000000000000000
    Total Energy =                       -321.8607135780588351
    Molecular point group: c1
  Basis Set: CC-PVTZ
  Basis Set:

  -Total Gradient:
     Atom            X                  Y                   Z
    ------   -----------------  -----------------  -----------------
       1       -0.000001195948     0.000003534678     0.000000809441
       2        0.000002806522     0.000013582886     0.000007887717
       3       -0.000010582196    -0.000307070756    -0.000082267663
       4       -0.000000928823     0.000000304607    -0.000004511076
       5        0.000004344239    -0.000004151756     0.000005120737
       6        0.000049600050     0.000540978042     0.000073433827
       7       -0.000006966662    -0.000005203946     0.000008182543
       8        0.000002510412     0.000008319750    -0.000006943298
       9       -0.000098637608    -0.000641287865     0.000110048134
      10       -0.000001082795     0.000003988346    -0.000005821954
      11       -0.000003269784    -0.000002609042    -0.000009131281
      12        0.000066094758     0.000394320069    -0.000067898383
      13       -0.000002692160    -0.000004705012    -0.000028908745

  **** Optimization is complete! (in 8 steps) ****
    Final optimized geometry and variables:
    Molecular point group: c1

    Geometry (in Angstrom), charge = 0, multiplicity = 1:

    H            3.503723584998     0.124261125858    -0.741464444099
    C            2.770904781223    -0.053859691577     0.034653427782
    C            1.358887108988     0.091544304404    -0.525590238878
    H            2.939869906142    -1.051191681687     0.425835583571
    H            2.957242140229     0.653982935460     0.834636977962
    C            0.326980168370    -0.153156522662     0.558292490978
    H            1.202848182210    -0.604268463989    -1.336743464323
    H            1.222179655451     1.086846357511    -0.931755093992
    N           -1.079386341631     0.007040876011     0.082792513689
    H            0.369361123706    -1.167654736661     0.931871660042
    H            0.421071975724     0.523062945943     1.391237045972
    O           -1.317533372008    -0.238140806781    -1.051058085388
    O           -1.876079009805     0.346014725248     0.891899705251

  Mulliken Charges: (a.u.)
   Center  Symbol    Alpha    Beta     Spin     Total
       1     H     0.44134  0.44134  0.00000  0.11732
       2     C     3.15227  3.15227  0.00000 -0.30455
       3     C     3.09297  3.09297  0.00000 -0.18594
       4     H     0.45288  0.45288  0.00000  0.09425
       5     H     0.45272  0.45272  0.00000  0.09455
       6     C     3.04448  3.04448  0.00000 -0.08895
       7     H     0.43478  0.43478  0.00000  0.13044
       8     H     0.44307  0.44307  0.00000  0.11385
       9     N     3.27460  3.27460  0.00000  0.45081
      10     H     0.43628  0.43628  0.00000  0.12745
      11     H     0.43177  0.43177  0.00000  0.13646
      12     O     4.17087  4.17087  0.00000 -0.34174
      13     O     4.17197  4.17197  0.00000 -0.34395

   Total alpha = 24.00000, Total beta = 24.00000, Total charge = -0.00000
