                              Psi4 1.0.54 Driver

  ==> Input File <==

--------------------------------------------------------------------------
set {
	reference rhf
	basis cc-pvtz
}

set_num_threads( 4 )
memory 2 gb

molecule MOL {
0 1

H	 -3.268214	 -0.875720	 0.463107
C	 -2.806015	 0.000007	 0.024886
N	 -1.391133	 0.000016	 0.301321
H	 -3.029448	 0.000055	 -1.045738
H	 -3.268126	 0.875758	 0.463150
C	 -1.092037	 -0.457714	 1.640948
C	 -0.781112	 1.287557	 0.049043
H	 -1.536411	 0.198486	 2.395125
H	 -1.515708	 -1.445726	 1.776670
C	 0.407389	 -0.521653	 1.863768
H	 -0.977789	 1.573665	 -0.977383
H	 -1.204288	 2.062730	 0.694704
C	 0.718313	 1.223619	 0.271864
H	 0.604065	 -0.807760	 2.890194
H	 0.830564	 -1.296825	 1.218108
N	 1.017409	 0.765889	 1.611491
H	 1.141984	 2.211631	 0.136142
H	 1.162687	 0.567419	 -0.482313
C	 2.432291	 0.765898	 1.887926
H	 2.607861	 0.477538	 2.916802
H	 2.836375	 1.760536	 1.746600
H	 2.990576	 0.079798	 1.244697

	symmetry c1
}
set optking {
	frozen_dihedral = ("
		6 3 2 4
	")
}

ee,wfn = optimize('scf', return_wfn=True)
oeprop( wfn, 'DIPOLE', 'QUADRUPOLE', 'MULLIKEN_CHARGES')
f=open( 'psi4out.xyz', 'w' )
f.write( "22  " )
f.write( str(ee) + "\n" )
f.write( MOL.save_string_xyz() )
f.close()
--------------------------------------------------------------------------

    Molecular point group: c1
  Charge       = 0
  Multiplicity = 1
  Basis Set: CC-PVTZ
  Basis Set:
  @DF-RHF Final Energy:  -344.34889678264250
    Total Energy =                       -344.3488967826427825
    Molecular point group: c1
  Basis Set: CC-PVTZ
  Basis Set:
  Basis Set: CC-PVTZ
  Basis Set:
  @DF-RHF Final Energy:  -344.34968973123745
    Total Energy =                       -344.3496897312373903
  Basis Set: CC-PVTZ
  Basis Set:
  Basis Set: CC-PVTZ
  Basis Set:
  @DF-RHF Final Energy:  -344.34976774367033
    Total Energy =                       -344.3497677436700997
  Basis Set: CC-PVTZ
  Basis Set:
  Charge       = 0
  Multiplicity = 1
  Basis Set: CC-PVTZ
  Basis Set:

    Orbital Energies (a.u.)
    -----------------------

    Doubly Occupied:

       1A    -15.537630     2A    -15.536318     3A    -11.237600
       4A    -11.237474     5A    -11.236894     6A    -11.236822
       7A    -11.234244     8A    -11.234163     9A     -1.257044
      10A     -1.205927    11A     -1.026123    12A     -0.992913
      13A     -0.912417    14A     -0.868435    15A     -0.836252
      16A     -0.754700    17A     -0.666810    18A     -0.638434
      19A     -0.632005    20A     -0.627217    21A     -0.623153
      22A     -0.582279    23A     -0.549480    24A     -0.547922
      25A     -0.542812    26A     -0.518534    27A     -0.496215
      28A     -0.490600    29A     -0.466950    30A     -0.457530
      31A     -0.352146    32A     -0.345626

  @DF-RHF Final Energy:  -344.34976927756315

   => Energetics <=

    Nuclear Repulsion Energy =            421.8623609649180253
    One-Electron Energy =               -1302.6589156766449378
    Two-Electron Energy =                 536.4467854341633029
    DFT Exchange-Correlation Energy =       0.0000000000000000
    Empirical Dispersion Energy =           0.0000000000000000
    PCM Polarization Energy =               0.0000000000000000
    EFP Energy =                            0.0000000000000000
    Total Energy =                       -344.3497692775636096
    Molecular point group: c1
  Basis Set: CC-PVTZ
  Basis Set:

  -Total Gradient:
     Atom            X                  Y                   Z
    ------   -----------------  -----------------  -----------------
       1        0.000042286901    -0.000010814847     0.000008663297
       2       -0.000097632991     0.003244024407    -0.000361946942
       3       -0.000228597632     0.002375848645     0.001080099590
       4        0.000087942971    -0.003276530151     0.000028665505
       5        0.000019557990    -0.000001542097     0.000014164610
       6        0.000198201858    -0.002394708872    -0.000656074103
       7        0.000007051423     0.000127941102    -0.000016350307
       8        0.000018380712    -0.000009240506    -0.000056011883
       9       -0.000005547119    -0.000005566804    -0.000012989250
      10       -0.000025220894     0.000034105848    -0.000044647135
      11       -0.000005028911    -0.000004654595    -0.000007392238
      12       -0.000003745332    -0.000053229240    -0.000005474211
      13       -0.000015176389    -0.000048364207     0.000015163408
      14        0.000001638967    -0.000000297725     0.000006887165
      15       -0.000011841858    -0.000003103887     0.000001922237
      16        0.000011732743     0.000012189044     0.000007669757
      17        0.000006264588     0.000004098957     0.000007002595
      18        0.000002636260     0.000002673534    -0.000000919230
      19        0.000001489796     0.000007175979    -0.000007449124
      20       -0.000004854293    -0.000000211016    -0.000001756830
      21        0.000003841072     0.000001863934     0.000000855825
      22       -0.000003379860    -0.000001657504    -0.000000082737

  **** Optimization is complete! (in 4 steps) ****
    Final optimized geometry and variables:
    Molecular point group: c1

    Geometry (in Angstrom), charge = 0, multiplicity = 1:

    H           -3.068211864711    -1.315469262323    -0.511573726090
    C           -2.631012450870    -0.404983199976    -0.901795342023
    N           -1.217639335711    -0.385273858603    -0.616569659541
    H           -2.796628269631    -0.409187607192    -1.972717542864
    H           -3.169833466673     0.438418076968    -0.463627947769
    C           -0.894387993127    -0.832222476943     0.720009866882
    C           -0.607903280124     0.890620690596    -0.913146704718
    H           -1.324691058356    -0.174681420965     1.481645900877
    H           -1.309611054672    -1.821473850018     0.868842633012
    C            0.609846442092    -0.889047958646     0.912860144558
    H           -0.822558628459     1.150754041587    -1.943365230207
    H           -1.018452791834     1.683911581096    -0.281350015873
    C            0.894817621425     0.828275700055    -0.713650448029
    H            0.828186183506    -1.160568275729     1.938946720226
    H            1.020985597887    -1.672692766926     0.269402748029
    N            1.213346736684     0.395138337173     0.629605698234
    H            1.318076536245     1.812774446701    -0.874507623174
    H            1.326675486928     0.157006810950    -1.461934076634
    C            2.631871238014     0.402380055641     0.885934780955
    H            2.822488272722     0.133001086685     1.917320876844
    H            3.032280177392     1.394896020571     0.720840189304
    H            3.182459915489    -0.294486861872     0.247490302005

  Mulliken Charges: (a.u.)
   Center  Symbol    Alpha    Beta     Spin     Total
       1     H     0.45413  0.45413  0.00000  0.09173
       2     C     3.09791  3.09791  0.00000 -0.19582
       3     N     3.61344  3.61344  0.00000 -0.22689
       4     H     0.45085  0.45085  0.00000  0.09831
       5     H     0.46853  0.46853  0.00000  0.06293
       6     C     3.03357  3.03357  0.00000 -0.06715
       7     C     3.03530  3.03530  0.00000 -0.07061
       8     H     0.46954  0.46954  0.00000  0.06091
       9     H     0.45381  0.45381  0.00000  0.09238
      10     C     3.03595  3.03595  0.00000 -0.07190
      11     H     0.45410  0.45410  0.00000  0.09181
      12     H     0.46762  0.46762  0.00000  0.06476
      13     C     3.03553  3.03553  0.00000 -0.07105
      14     H     0.45391  0.45391  0.00000  0.09219
      15     H     0.46831  0.46831  0.00000  0.06339
      16     N     3.61312  3.61312  0.00000 -0.22624
      17     H     0.45384  0.45384  0.00000  0.09231
      18     H     0.46816  0.46816  0.00000  0.06367
      19     C     3.09837  3.09837  0.00000 -0.19675
      20     H     0.45194  0.45194  0.00000  0.09613
      21     H     0.45194  0.45194  0.00000  0.09613
      22     H     0.47012  0.47012  0.00000  0.05976

   Total alpha = 32.00000, Total beta = 32.00000, Total charge =  0.00000

*** Psi4 exiting successfully. Buy a developer a beer!
