  ==> Input File <==

--------------------------------------------------------------------------
set {
	reference rhf
	basis cc-pvtz
}

set_num_threads( 4 )
memory 2 gb

molecule MOL {
0 1

H	 1.838229	 0.067684	 -1.061627
C	 1.045921	 -0.484944	 -0.604043
C	 1.039342	 -1.865044	 -0.600270
C	 0.000000	 0.179985	 0.000046
H	 1.843553	 -2.400779	 -1.064757
C	 0.000002	 -2.552036	 -0.000007
N	 0.000000	 1.644631	 0.000076
C	 -1.045922	 -0.484969	 0.604107
H	 0.000000	 -3.625035	 -0.000032
C	 -1.039341	 -1.865069	 0.600280
O	 1.050559	 2.194174	 -0.000073
O	 -1.050559	 2.194174	 -0.000074
H	 -1.838225	 0.067641	 1.061720
H	 -1.843554	 -2.400822	 1.064742

	symmetry c1
}
set optking {
	frozen_dihedral = ("
		2 4 7 11
	")
}

ee = optimize('scf')
oeprop('DIPOLE', 'QUADRUPOLE', 'MULLIKEN_CHARGES')
f=open( 'psi4out.xyz', 'w' )
f.write( "14  " )
f.write( str(ee) + "\n" )
f.write( MOL.save_string_xyz() )
f.close()
--------------------------------------------------------------------------

    Molecular point group: c1
  Charge       = 0
  Multiplicity = 1
  Basis Set: CC-PVTZ
  Basis Set:
  @DF-RHF Final Energy:  -434.32830169884755
    Total Energy =                       -434.3283016988473264
    Molecular point group: c1
  Basis Set: CC-PVTZ
  Basis Set:
  Basis Set: CC-PVTZ
  Basis Set:
  @DF-RHF Final Energy:  -434.32081337355169
    Total Energy =                       -434.3208133735516867
  Basis Set: CC-PVTZ
  Basis Set:
  Basis Set: CC-PVTZ
  Basis Set:
  @DF-RHF Final Energy:  -434.32828706859772
    Total Energy =                       -434.3282870685977741
  Basis Set: CC-PVTZ
  Basis Set:
  Basis Set: CC-PVTZ
  Basis Set:
  @DF-RHF Final Energy:  -434.32849514032682
    Total Energy =                       -434.3284951403270497
  Basis Set: CC-PVTZ
  Basis Set:
  Basis Set: CC-PVTZ
  Basis Set:
  @DF-RHF Final Energy:  -434.32849620176472
    Total Energy =                       -434.3284962017646649
  Basis Set: CC-PVTZ
  Basis Set:
  Charge       = 0
  Multiplicity = 1
  Basis Set: CC-PVTZ
  Basis Set:

    Orbital Energies (a.u.)
    -----------------------

    Doubly Occupied:

       1A    -20.593060     2A    -20.592983     3A    -15.847493
       4A    -11.303400     5A    -11.267724     6A    -11.267583
       7A    -11.263784     8A    -11.258902     9A    -11.258724
      10A     -1.641638    11A     -1.424351    12A     -1.205322
      13A     -1.096345    14A     -1.055746    15A     -0.959550
      16A     -0.869341    17A     -0.829363    18A     -0.788208
      19A     -0.740452    20A     -0.735519    21A     -0.713533
      22A     -0.657958    23A     -0.651736    24A     -0.626417
      25A     -0.557229    26A     -0.543835    27A     -0.532158
      28A     -0.494473    29A     -0.490817    30A     -0.456950
      31A     -0.376195    32A     -0.369845

  @DF-RHF Final Energy:  -434.32849865670545

   => Energetics <=

    Nuclear Repulsion Energy =            418.1678933052815523
    One-Electron Energy =               -1420.0515164269256729
    Two-Electron Energy =                 567.5551244649383307
    DFT Exchange-Correlation Energy =       0.0000000000000000
    Empirical Dispersion Energy =           0.0000000000000000
    PCM Polarization Energy =               0.0000000000000000
    EFP Energy =                            0.0000000000000000
    Total Energy =                       -434.3284986567058468
    Molecular point group: c1
  Basis Set: CC-PVTZ
  Basis Set:

  -Total Gradient:
     Atom            X                  Y                   Z
    ------   -----------------  -----------------  -----------------
       1        0.000001959220    -0.000001854003     0.000002601544
       2       -0.001506658976    -0.000063830110    -0.002540184068
       3        0.000015025408     0.000013825920     0.000009506643
       4        0.002179617491     0.000097617941     0.004923942914
       5       -0.000000435598     0.000000299051    -0.000002386741
       6       -0.000012155862    -0.000001958630     0.000010746972
       7       -0.000727046524    -0.000100646167    -0.005769255367
       8        0.000017367064     0.000009687823     0.000009633738
       9        0.000001290222     0.000000785149    -0.000001396335
      10       -0.000001640766    -0.000013916755    -0.000019418423
      11        0.000060967441     0.000051140086     0.003373308748
      12       -0.000027253650     0.000008290134    -0.000000014639
      13       -0.000000951779    -0.000002513356    -0.000000176253
      14       -0.000000083695     0.000003072919     0.000003091266

  **** Optimization is complete! (in 6 steps) ****
    Final optimized geometry and variables:
    Molecular point group: c1

    Geometry (in Angstrom), charge = 0, multiplicity = 1:

    H            1.848748762321     0.072253687592    -1.043977667007
    C            1.051637637669    -0.481960896114    -0.594575313833
    C            1.037690932241    -1.862229394178    -0.603191164714
    C            0.009092560583     0.180019513995     0.015160045883
    H            1.835184433319    -2.398570848951    -1.078455276840
    C           -0.000607797828    -2.548429322909    -0.000358263456
    N           -0.000845220533     1.641922726533    -0.007194336828
    C           -1.047904938300    -0.480993418129     0.600725160313
    H           -0.003085262360    -3.621318439964    -0.003744223169
    C           -1.038020925047    -1.861247712425     0.603236613616
    O            1.048287343617     2.194254973976    -0.031063788418
    O           -1.055835083318     2.182277663242     0.022589327780
    H           -1.849087381288     0.073391557744     1.042280954434
    H           -1.841770716182    -2.397168443134     1.068344080161

  Mulliken Charges: (a.u.)
   Center  Symbol    Alpha    Beta     Spin     Total
       1     H     0.40309  0.40309  0.00000  0.19382
       2     C     3.08195  3.08195  0.00000 -0.16391
       3     C     3.07151  3.07151  0.00000 -0.14302
       4     C     2.95876  2.95876  0.00000  0.08248
       5     H     0.41701  0.41701  0.00000  0.16598
       6     C     3.06638  3.06638  0.00000 -0.13275
       7     N     3.26436  3.26436  0.00000  0.47129
       8     C     3.08122  3.08122  0.00000 -0.16244
       9     H     0.41723  0.41723  0.00000  0.16555
      10     C     3.07101  3.07101  0.00000 -0.14202
      11     O     4.17356  4.17356  0.00000 -0.34712
      12     O     4.17366  4.17366  0.00000 -0.34732
      13     H     0.40325  0.40325  0.00000  0.19351
      14     H     0.41702  0.41702  0.00000  0.16595

   Total alpha = 32.00000, Total beta = 32.00000, Total charge =  0.00000
