  ==> Input File <==

--------------------------------------------------------------------------
set {
	reference rhf
	basis 6-31G*
}

set_num_threads( 4 )
memory 2 gb

molecule MOL {
0 1

H	 -5.529539	 -1.682728	 3.092826
O	 -5.313744	 -1.869179	 3.994901
C	 -4.361320	 -2.900608	 4.050533
C	 -2.969471	 -2.457817	 3.613018
H	 -4.334814	 -3.221288	 5.084040
H	 -4.687678	 -3.753114	 3.455971
C	 -2.885675	 -2.027124	 2.146611
H	 -2.651207	 -1.638756	 4.252716
H	 -2.280753	 -3.282783	 3.787562
C	 -1.465551	 -1.640376	 1.724126
H	 -3.554561	 -1.186880	 1.982456
H	 -3.239153	 -2.838496	 1.510161
C	 -1.309753	 -1.282496	 0.241564
H	 -1.125741	 -0.804960	 2.333599
H	 -0.799244	 -2.470334	 1.949746
C	 -2.037799	 -0.007733	 -0.193645
H	 -0.249297	 -1.166198	 0.027731
H	 -1.650404	 -2.118351	 -0.367649
C	 -3.489788	 0.042957	 0.286558
H	 -2.017067	 0.064384	 -1.280144
H	 -1.513726	 0.868678	 0.179924
C	 -4.216917	 1.317354	 -0.141063
H	 -4.025645	 -0.823308	 -0.095450
H	 -3.513059	 -0.038752	 1.371301
H	 -4.239342	 1.411634	 -1.223113
H	 -5.243387	 1.322503	 0.212445
H	 -3.726170	 2.201406	 0.256408

	symmetry c1
}
set optking {
	frozen_dihedral = ("
		10 13 16 20
	")
}

ee = optimize('scf')
oeprop('DIPOLE', 'QUADRUPOLE', 'MULLIKEN_CHARGES')
f=open( 'psi4out.xyz', 'w' )
f.write( "27  " )
f.write( str(ee) + "\n" )
f.write( MOL.save_string_xyz() )
f.close()
--------------------------------------------------------------------------

    Molecular point group: c1
  Charge       = 0
  Multiplicity = 1
  Basis Set: 6-31G*
  Basis Set:
  @DF-RHF Final Energy:  -388.24840425304603
    Total Energy =                       -388.2484042530464876
    Molecular point group: c1
  Basis Set: 6-31G*
  Basis Set:
  Basis Set: 6-31G*
  Basis Set:
  @DF-RHF Final Energy:  -388.26841122300010
    Total Energy =                       -388.2684112230001574
  Basis Set: 6-31G*
  Basis Set:
  Basis Set: 6-31G*
  Basis Set:
  @DF-RHF Final Energy:  -388.27343291228703
    Total Energy =                       -388.2734329122870349
  Basis Set: 6-31G*
  Basis Set:
  Basis Set: 6-31G*
  Basis Set:
  @DF-RHF Final Energy:  -388.27498719291231
    Total Energy =                       -388.2749871929122492
  Basis Set: 6-31G*
  Basis Set:
  @DF-RHF Final Energy:  -388.27576327065191
    Total Energy =                       -388.2757632706509412
  @DF-RHF Final Energy:  -388.27605695030132
    Total Energy =                       -388.2760569503011538
  @DF-RHF Final Energy:  -388.27618604181419
    Total Energy =                       -388.2761860418139577
  Basis Set: 6-31G*
  Basis Set:
  @DF-RHF Final Energy:  -388.27619650165320
    Total Energy =                       -388.2761965016529757
  Basis Set: 6-31G*
  Basis Set:
  Basis Set: 6-31G*
  Basis Set:
  @DF-RHF Final Energy:  -388.27619844317985
    Total Energy =                       -388.2761984431796236
  Basis Set: 6-31G*
  Basis Set:
  Basis Set: 6-31G*
  Basis Set:
  @DF-RHF Final Energy:  -388.27620475506131
    Total Energy =                       -388.2762047550618263
  Basis Set: 6-31G*
  Basis Set:
  Charge       = 0
  Multiplicity = 1
  Basis Set: 6-31G*
  Basis Set:

    Orbital Energies (a.u.)
    -----------------------

    Doubly Occupied:

       1A    -20.552193     2A    -11.266958     3A    -11.219147
       4A    -11.217244     5A    -11.216172     6A    -11.215945
       7A    -11.214943     8A    -11.214927     9A    -11.209123
      10A     -1.358939    11A     -1.093957    12A     -1.059879
      13A     -1.009701    14A     -0.950711    15A     -0.885763
      16A     -0.831769    17A     -0.795035    18A     -0.773222
      19A     -0.693855    20A     -0.652737    21A     -0.630565
      22A     -0.618472    23A     -0.600914    24A     -0.586884
      25A     -0.574501    26A     -0.563738    27A     -0.539656
      28A     -0.515948    29A     -0.504538    30A     -0.501315
      31A     -0.488674    32A     -0.479173    33A     -0.469131
      34A     -0.455992    35A     -0.444144    36A     -0.443109
      37A     -0.422513

  @DF-RHF Final Energy:  -388.27620523798180

   => Energetics <=

    Nuclear Repulsion Energy =            470.4427112943989187
    One-Electron Energy =               -1458.8948575084550612
    Two-Electron Energy =                 600.1759409760743438
    DFT Exchange-Correlation Energy =       0.0000000000000000
    Empirical Dispersion Energy =           0.0000000000000000
    PCM Polarization Energy =               0.0000000000000000
    EFP Energy =                            0.0000000000000000
    Total Energy =                       -388.2762052379817987
    Molecular point group: c1
  Basis Set: 6-31G*
  Basis Set:

  -Total Gradient:
     Atom            X                  Y                   Z
    ------   -----------------  -----------------  -----------------
       1       -0.000002181587     0.000001335602     0.000002118771
       2        0.000011267795    -0.000001379575     0.000001770435
       3       -0.000002805463    -0.000017292108     0.000006308996
       4       -0.000006002682     0.000005506620    -0.000019835967
       5       -0.000001864515    -0.000001114107     0.000002690827
       6        0.000003241821     0.000000122791    -0.000000300766
       7       -0.000037978567     0.000026579654     0.000003546051
       8       -0.000002901370    -0.000000292715    -0.000005550797
       9       -0.000006683173     0.000000809742     0.000002771800
      10       -0.002854263883    -0.001260182210    -0.000344583077
      11        0.000027321494    -0.000019377533    -0.000004139217
      12       -0.000008068451     0.000020940447     0.000017554268
      13        0.003356829691     0.001465168690     0.000550994534
      14       -0.000009003973     0.000002019779    -0.000010608658
      15        0.000014323809     0.000002305751    -0.000007692075
      16        0.003464281722     0.001158320698    -0.000430141397
      17        0.000007981699    -0.000013078684    -0.000000993615
      18       -0.000005258007     0.000008019205     0.000022972620
      19        0.000021061980     0.000024802552     0.000000979599
      20       -0.003932273623    -0.001376975716     0.000243371670
      21       -0.000010475969    -0.000015721227    -0.000001697452
      22       -0.000014552913     0.000013666120     0.000003467376
      23       -0.000015714731    -0.000013698271     0.000008201997
      24        0.000005142404    -0.000005202887    -0.000041164792
      25        0.000005801788    -0.000000307097    -0.000000166962
      26       -0.000001096877     0.000004032752    -0.000002385615
      27       -0.000006128420    -0.000009008269     0.000002511446

  **** Optimization is complete! (in 11 steps) ****
    Final optimized geometry and variables:
    Molecular point group: c1

    Geometry (in Angstrom), charge = 0, multiplicity = 1:

    H           -2.421139925612    -1.335834886306     1.323204388318
    O           -2.213164416740    -1.298723369419     2.245440359955
    C           -1.001293077506    -1.968215737060     2.484558463971
    C            0.217190934766    -1.202409125674     1.980991480057
    H           -0.939269098448    -2.089383416694     3.558381861345
    H           -1.024235037872    -2.965822781074     2.047503410073
    C            0.248770448237    -1.014340730294     0.462483227043
    H            0.240616737773    -0.231903297878     2.469894072949
    H            1.110085659752    -1.738761953729     2.298210764281
    C            1.524147805086    -0.315536133130    -0.020082067101
    H           -0.623458521986    -0.449199075897     0.151092330444
    H            0.178530240163    -1.987252379204    -0.023433695127
    C            1.606781248532    -0.089045379330    -1.542051315108
    H            1.640405400734     0.632290824872     0.501994608561
    H            2.370414765304    -0.925611371573     0.286925031794
    C            1.096292159089     1.262973565860    -2.067805402700
    H            2.640894059407    -0.189868722702    -1.859455670712
    H            1.066243961969    -0.890530552158    -2.042932306345
    C           -0.289730173854     1.704275480410    -1.587090954758
    H            1.053079409850     1.201395933887    -3.153357039796
    H            1.816986299900     2.039966612681    -1.821014755408
    C           -0.727315411250     3.025004132829    -2.221184015339
    H           -1.019930855912     0.934153902834    -1.826901205496
    H           -0.297790732384     1.812927117724    -0.506567559597
    H           -0.772332167215     2.945510847915    -3.303714328395
    H           -1.710329590513     3.323191505409    -1.870017339283
    H           -0.033153724439     3.824633112807    -1.978290377957

  Mulliken Charges: (a.u.)
   Center  Symbol    Alpha    Beta     Spin     Total
       1     H     0.27976  0.27976  0.00000  0.44049
       2     O     4.37104  4.37104  0.00000 -0.74208
       3     C     2.99737  2.99737  0.00000  0.00525
       4     C     3.16170  3.16170  0.00000 -0.32339
       5     H     0.41448  0.41448  0.00000  0.17104
       6     H     0.43198  0.43198  0.00000  0.13603
       7     C     3.16402  3.16402  0.00000 -0.32805
       8     H     0.41533  0.41533  0.00000  0.16934
       9     H     0.42433  0.42433  0.00000  0.15134
      10     C     3.15643  3.15643  0.00000 -0.31285
      11     H     0.42076  0.42076  0.00000  0.15849
      12     H     0.42511  0.42511  0.00000  0.14979
      13     C     3.15570  3.15570  0.00000 -0.31140
      14     H     0.42031  0.42031  0.00000  0.15937
      15     H     0.42074  0.42074  0.00000  0.15851
      16     C     3.15038  3.15038  0.00000 -0.30076
      17     H     0.41886  0.41886  0.00000  0.16227
      18     H     0.42386  0.42386  0.00000  0.15229
      19     C     3.15531  3.15531  0.00000 -0.31062
      20     H     0.42295  0.42295  0.00000  0.15409
      21     H     0.42344  0.42344  0.00000  0.15312
      22     C     3.23882  3.23882  0.00000 -0.47764
      23     H     0.42540  0.42540  0.00000  0.14920
      24     H     0.41970  0.41970  0.00000  0.16061
      25     H     0.42202  0.42202  0.00000  0.15595
      26     H     0.41872  0.41872  0.00000  0.16256
      27     H     0.42148  0.42148  0.00000  0.15704

   Total alpha = 37.00000, Total beta = 37.00000, Total charge =  0.00000
