  ==> Input File <==

--------------------------------------------------------------------------
set {
	reference rhf
	basis 6-31G*
}

set_num_threads( 4 )
memory 2 gb

molecule MOL {
0 1

H	 -3.715462	 -2.688991	 1.218960
C	 -3.166077	 -1.806841	 0.953162
C	 -1.927123	 -1.910081	 0.530864
H	 -3.651941	 -0.853396	 1.041415
O	 -1.180634	 -0.819263	 0.215062
H	 -1.424909	 -2.855870	 0.428591
C	 0.051604	 -1.018856	 -0.387932
C	 1.043764	 0.054862	 -0.001873
H	 -0.017620	 -1.041351	 -1.469781
H	 0.437898	 -1.966374	 -0.042284
F	 2.212596	 -0.199467	 -0.571921
F	 0.652529	 1.252447	 -0.405055
F	 1.230877	 0.110694	 1.300533

	symmetry c1
}
set optking {
	frozen_dihedral = ("
		3 5 7 9
	")
}

ee = optimize('scf')
oeprop('DIPOLE', 'QUADRUPOLE', 'MULLIKEN_CHARGES')
f=open( 'psi4out.xyz', 'w' )
f.write( "13  " )
f.write( str(ee) + "\n" )
f.write( MOL.save_string_xyz() )
f.close()
--------------------------------------------------------------------------

    Molecular point group: c1
  Charge       = 0
  Multiplicity = 1
  Basis Set: 6-31G*
  Basis Set:
  @DF-RHF Final Energy:  -527.53291674483762
    Total Energy =                       -527.5329167448378485
    Molecular point group: c1
  Basis Set: 6-31G*
  Basis Set:
  Basis Set: 6-31G*
  Basis Set:
  @DF-RHF Final Energy:  -527.53419095861432
    Total Energy =                       -527.5341909586139764
  Basis Set: 6-31G*
  Basis Set:
  Basis Set: 6-31G*
  Basis Set:
  @DF-RHF Final Energy:  -527.53447867309410
    Total Energy =                       -527.5344786730937585
  Basis Set: 6-31G*
  Basis Set:
  Basis Set: 6-31G*
  Basis Set:
  @DF-RHF Final Energy:  -527.53454218979994
    Total Energy =                       -527.5345421898000495
  Basis Set: 6-31G*
  Basis Set:
  Basis Set: 6-31G*
  Basis Set:
  @DF-RHF Final Energy:  -527.53462269194597
    Total Energy =                       -527.5346226919457422
  Basis Set: 6-31G*
  Basis Set:
  Basis Set: 6-31G*
  Basis Set:
  @DF-RHF Final Energy:  -527.53464136211687
    Total Energy =                       -527.5346413621167585
  Basis Set: 6-31G*
  Basis Set:
  Basis Set: 6-31G*
  Basis Set:
  @DF-RHF Final Energy:  -527.53464664471289
    Total Energy =                       -527.5346466447131206
  Basis Set: 6-31G*
  Basis Set:
  Charge       = 0
  Multiplicity = 1
  Basis Set: 6-31G*
  Basis Set:

    Orbital Energies (a.u.)
    -----------------------

    Doubly Occupied:

       1A    -26.342022     2A    -26.338458     3A    -26.338073
       4A    -20.606933     5A    -11.502585     6A    -11.318088
       7A    -11.301906     8A    -11.221050     9A     -1.739063
      10A     -1.636805    11A     -1.635236    12A     -1.438239
      13A     -1.087080    14A     -1.015600    15A     -0.922422
      16A     -0.836976    17A     -0.828874    18A     -0.806498
      19A     -0.797596    20A     -0.723997    21A     -0.711213
      22A     -0.698169    23A     -0.677781    24A     -0.656143
      25A     -0.651879    26A     -0.639665    27A     -0.633102
      28A     -0.588478    29A     -0.561481    30A     -0.527134
      31A     -0.505018    32A     -0.357796

  @DF-RHF Final Energy:  -527.53464780746799

   => Energetics <=

    Nuclear Repulsion Energy =            407.1219565269617533
    One-Electron Energy =               -1538.0224912871067318
    Two-Electron Energy =                 603.3658869526775561
    DFT Exchange-Correlation Energy =       0.0000000000000000
    Empirical Dispersion Energy =           0.0000000000000000
    PCM Polarization Energy =               0.0000000000000000
    EFP Energy =                            0.0000000000000000
    Total Energy =                       -527.5346478074675360
    Molecular point group: c1
  Basis Set: 6-31G*
  Basis Set:

  -Total Gradient:
     Atom            X                  Y                   Z
    ------   -----------------  -----------------  -----------------
       1       -0.000003749288    -0.000001730834    -0.000005687144
       2        0.000000638849    -0.000017290098     0.000025694709
       3        0.000331315013    -0.000078930222     0.000537364526
       4       -0.000004241860    -0.000001472708    -0.000005094465
       5       -0.000496029052     0.000368967023    -0.000797133870
       6       -0.000016558279    -0.000006041991     0.000006735831
       7        0.000024262790    -0.001051777685     0.000248781651
       8       -0.000062590059    -0.000003311900    -0.000080095561
       9        0.000148783560     0.000777626183     0.000030881951
      10        0.000013984031     0.000006324557    -0.000011465424
      11        0.000007709169     0.000018193008    -0.000009610913
      12        0.000047306661    -0.000025581814     0.000022167116
      13        0.000009168462     0.000015026489     0.000037461595

  **** Optimization is complete! (in 8 steps) ****
    Final optimized geometry and variables:
    Molecular point group: c1

    Geometry (in Angstrom), charge = 0, multiplicity = 1:

    H           -3.770445490541    -2.208479857713     0.933155793638
    C           -3.209387723065    -1.339758866882     0.647345839944
    C           -1.913378163798    -1.429429620515     0.455095365051
    H           -3.728086128103    -0.405305001380     0.543295488673
    O           -1.148238624058    -0.349283367032     0.158083198777
    H           -1.373651036312    -2.356303836923     0.555240984899
    C            0.006059603334    -0.569321486729    -0.581419011743
    C            1.010611268180     0.494757234950    -0.213763839587
    H           -0.187441307968    -0.497285223792    -1.645333348378
    H            0.452642143051    -1.533159203720    -0.365387715021
    F            2.113142665454     0.318182093031    -0.928715832880
    F            0.560092011867     1.707943194994    -0.460465608403
    F            1.343600304427     0.435508064638     1.060903178009

  Mulliken Charges: (a.u.)
   Center  Symbol    Alpha    Beta     Spin     Total
       1     H     0.40680  0.40680  0.00000  0.18640
       2     C     3.23138  3.23138  0.00000 -0.46276
       3     C     2.89935  2.89935  0.00000  0.20129
       4     H     0.40049  0.40049  0.00000  0.19903
       5     O     4.30429  4.30429  0.00000 -0.60857
       6     H     0.40836  0.40836  0.00000  0.18329
       7     C     3.04923  3.04923  0.00000 -0.09846
       8     C     2.45223  2.45223  0.00000  1.09554
       9     H     0.40224  0.40224  0.00000  0.19552
      10     H     0.40771  0.40771  0.00000  0.18458
      11     F     4.68493  4.68493  0.00000 -0.36986
      12     F     4.67592  4.67592  0.00000 -0.35183
      13     F     4.67708  4.67708  0.00000 -0.35416

   Total alpha = 32.00000, Total beta = 32.00000, Total charge = -0.00000
