                              Psi4 1.0.54 Driver

  ==> Input File <==

--------------------------------------------------------------------------
set {
	reference rhf
	basis cc-pvtz
}

set_num_threads( 4 )
memory 2 gb

molecule MOL {
0 1

H	 -3.268214	 -0.875720	 0.463107
C	 -2.806015	 0.000007	 0.024886
N	 -1.391133	 0.000016	 0.301321
H	 -3.029448	 0.000055	 -1.045738
H	 -3.268126	 0.875758	 0.463150
C	 -1.073131	 -0.669108	 1.544190
C	 -0.825046	 1.331303	 0.273909
H	 -1.536950	 -0.166205	 2.397894
H	 -1.463279	 -1.679347	 1.508332
C	 0.428223	 -0.720123	 1.757138
H	 -1.034075	 1.781445	 -0.689299
H	 -1.271950	 1.970571	 1.041021
C	 0.676308	 1.280289	 0.486857
H	 0.637252	 -1.170264	 2.720346
H	 0.875126	 -1.359391	 0.990026
N	 0.994310	 0.611165	 1.729726
H	 1.066456	 2.290528	 0.522715
H	 1.140127	 0.777386	 -0.366847
C	 2.409192	 0.611174	 2.006161
H	 2.597208	 0.157693	 2.971339
H	 2.779527	 1.628241	 2.037571
H	 2.988170	 0.063709	 1.257012

	symmetry c1
}
set optking {
	frozen_dihedral = ("
		6 3 2 4
	")
}

ee,wfn = optimize('scf', return_wfn=True)
oeprop( wfn, 'DIPOLE', 'QUADRUPOLE', 'MULLIKEN_CHARGES')
f=open( 'psi4out.xyz', 'w' )
f.write( "22  " )
f.write( str(ee) + "\n" )
f.write( MOL.save_string_xyz() )
f.close()
--------------------------------------------------------------------------

    Molecular point group: c1
  Charge       = 0
  Multiplicity = 1
  Basis Set: CC-PVTZ
  Basis Set:
  @DF-RHF Final Energy:  -344.34744489160062
    Total Energy =                       -344.3474448916003894
    Molecular point group: c1
  Basis Set: CC-PVTZ
  Basis Set:
  Basis Set: CC-PVTZ
  Basis Set:
  @DF-RHF Final Energy:  -344.34836319146598
    Total Energy =                       -344.3483631914660918
  Basis Set: CC-PVTZ
  Basis Set:
  Basis Set: CC-PVTZ
  Basis Set:
  @DF-RHF Final Energy:  -344.34845670904457
    Total Energy =                       -344.3484567090447399
  Basis Set: CC-PVTZ
  Basis Set:
  Charge       = 0
  Multiplicity = 1
  Basis Set: CC-PVTZ
  Basis Set:

    Orbital Energies (a.u.)
    -----------------------

    Doubly Occupied:

       1A    -15.537519     2A    -15.535240     3A    -11.237583
       4A    -11.237374     5A    -11.236759     6A    -11.236692
       7A    -11.234144     8A    -11.234108     9A     -1.256410
      10A     -1.205102    11A     -1.026081    12A     -0.992636
      13A     -0.912558    14A     -0.868412    15A     -0.836261
      16A     -0.754229    17A     -0.666534    18A     -0.638073
      19A     -0.631736    20A     -0.626721    21A     -0.622650
      22A     -0.581778    23A     -0.550120    24A     -0.548420
      25A     -0.542876    26A     -0.519067    27A     -0.496237
      28A     -0.489823    29A     -0.467066    30A     -0.457449
      31A     -0.351736    32A     -0.343658

  @DF-RHF Final Energy:  -344.34846058286598

   => Energetics <=

    Nuclear Repulsion Energy =            421.6944069937737822
    One-Electron Energy =               -1302.3356333299329890
    Two-Electron Energy =                 536.2927657532935655
    DFT Exchange-Correlation Energy =       0.0000000000000000
    Empirical Dispersion Energy =           0.0000000000000000
    PCM Polarization Energy =               0.0000000000000000
    EFP Energy =                            0.0000000000000000
    Total Energy =                       -344.3484605828656413
    Molecular point group: c1
  Basis Set: CC-PVTZ
  Basis Set:

  -Total Gradient:
     Atom            X                  Y                   Z
    ------   -----------------  -----------------  -----------------
       1        0.000007827904    -0.000012550294     0.000000509462
       2       -0.000187055668     0.004437995285    -0.000831917225
       3       -0.000565419413     0.002961718475     0.002252507271
       4        0.000104239389    -0.004448756233     0.000038054150
       5        0.000059537638    -0.000008342746     0.000044315386
       6        0.000485477414    -0.003039297724    -0.001457644848
       7        0.000060686586     0.000176527790     0.000040291063
       8        0.000032910131    -0.000006996488    -0.000086320642
       9        0.000000312163     0.000010049434    -0.000023949972
      10       -0.000011960798     0.000038749030     0.000028907615
      11       -0.000007280594    -0.000021420725    -0.000002257271
      12       -0.000009807852    -0.000077268043    -0.000026491760
      13        0.000026827819    -0.000047296667    -0.000001160004
      14        0.000049935953    -0.000007714527     0.000027234855
      15       -0.000037454843     0.000006771326     0.000007633525
      16       -0.000011026292     0.000004546353     0.000005954696
      17        0.000034631471     0.000010786689     0.000015849333
      18       -0.000000163702     0.000008054218    -0.000000675426
      19       -0.000012479423     0.000012264015    -0.000024979470
      20       -0.000017195992    -0.000000827530    -0.000005352960
      21        0.000002597580     0.000005745350    -0.000000578500
      22       -0.000005139469    -0.000002736989     0.000000070722

  **** Optimization is complete! (in 4 steps) ****
    Final optimized geometry and variables:
    Molecular point group: c1

    Geometry (in Angstrom), charge = 0, multiplicity = 1:

    H           -3.064137142428    -1.254465358554    -0.570471705037
    C           -2.628970105479    -0.338341965806    -0.949558095320
    N           -1.216080762794    -0.312425526757    -0.653189682031
    H           -2.792029955741    -0.339900193375    -2.021307362834
    H           -3.175785347636     0.494794741974    -0.504943747372
    C           -0.860155395979    -0.967274238636     0.585386928380
    C           -0.644915633076     1.010316100185    -0.749300494421
    H           -1.297551308966    -0.463389916061     1.452859216834
    H           -1.241363023228    -1.980735063359     0.568297514613
    C            0.648069737731    -1.006752283808     0.750542380631
    H           -0.879699140493     1.423574415515    -1.723694489039
    H           -1.068948351552     1.682177746637     0.002971742378
    C            0.861441303515     0.961131969390    -0.575110875601
    H            0.890575971046    -1.436732686679     1.715237857974
    H            1.072126225219    -1.659892337564    -0.018086508329
    N            1.209092511149     0.324972128677     0.677009014574
    H            1.255061466849     1.970773267339    -0.576869397187
    H            1.302345797647     0.433406583314    -1.426095979549
    C            2.629886756785     0.334801215180     0.920369843871
    H            2.841316212548    -0.093068462826     1.892408424472
    H            2.998538145385     1.353011494126     0.916632754045
    H            3.192866792891    -0.231020804556     0.172504912777

  Mulliken Charges: (a.u.)
   Center  Symbol    Alpha    Beta     Spin     Total
       1     H     0.45544  0.45544  0.00000  0.08912
       2     C     3.09687  3.09687  0.00000 -0.19374
       3     N     3.61401  3.61401  0.00000 -0.22802
       4     H     0.45041  0.45041  0.00000  0.09918
       5     H     0.46712  0.46712  0.00000  0.06576
       6     C     3.03307  3.03307  0.00000 -0.06613
       7     C     3.03487  3.03487  0.00000 -0.06974
       8     H     0.46987  0.46987  0.00000  0.06026
       9     H     0.45396  0.45396  0.00000  0.09207
      10     C     3.03619  3.03619  0.00000 -0.07237
      11     H     0.45408  0.45408  0.00000  0.09184
      12     H     0.46790  0.46790  0.00000  0.06420
      13     C     3.03595  3.03595  0.00000 -0.07191
      14     H     0.45397  0.45397  0.00000  0.09205
      15     H     0.46851  0.46851  0.00000  0.06297
      16     N     3.61310  3.61310  0.00000 -0.22621
      17     H     0.45393  0.45393  0.00000  0.09214
      18     H     0.46832  0.46832  0.00000  0.06336
      19     C     3.09835  3.09835  0.00000 -0.19670
      20     H     0.45195  0.45195  0.00000  0.09610
      21     H     0.45194  0.45194  0.00000  0.09612
      22     H     0.47017  0.47017  0.00000  0.05966

   Total alpha = 32.00000, Total beta = 32.00000, Total charge = -0.00000

*** Psi4 exiting successfully. Buy a developer a beer!
