  ==> Input File <==

--------------------------------------------------------------------------
set {
	reference rhf
	basis 6-31G*
}

set_num_threads( 1 )
memory 2 gb

molecule MOL {
0 1

O	 3.225979	 0.970355	 -0.599647
C	 2.701189	 0.057885	 -0.047330
C	 1.245376	 -0.013843	 0.345420
O	 3.347903	 -1.046386	 0.304773
C	 0.455112	 1.231400	 -0.050772
H	 0.838542	 -0.913825	 -0.103701
H	 1.208210	 -0.175333	 1.419774
C	 -0.998893	 1.219485	 0.433193
H	 0.482531	 1.345121	 -1.130325
H	 0.957290	 2.103070	 0.354729
C	 -1.883438	 0.145884	 -0.207175
H	 -1.431207	 2.195402	 0.224832
H	 -1.019646	 1.105716	 1.516076
C	 -1.091890	 -0.843009	 -1.065396
H	 -2.409091	 -0.398344	 0.575975
H	 -2.649795	 0.610460	 -0.823486
C	 -1.966286	 -1.917307	 -1.714585
H	 -0.330777	 -1.322547	 -0.452220
H	 -0.557468	 -0.298269	 -1.842153
C	 -1.167688	 -2.903052	 -2.566787
H	 -2.501811	 -2.461955	 -0.939851
H	 -2.724966	 -1.440053	 -2.331362
H	 -1.814744	 -3.651772	 -3.013265
H	 -0.422883	 -3.422777	 -1.970676
H	 -0.647313	 -2.392830	 -3.372490
C	 4.728119	 -1.109107	 -0.004993
H	 4.882018	 -1.033965	 -1.071845
H	 5.068212	 -2.067527	 0.355250
H	 5.265056	 -0.311663	 0.488280

	symmetry c1
}
set optking {
	frozen_dihedral = ("
		21 17 14 11,
		17 14 11 15,
		6 3 5 9,
		11 8 5 9,
		2 4 26 27,
		1 2 4 26,
		6 3 2 1
	")
}

ee = energy('scf')
oeprop('DIPOLE', 'QUADRUPOLE', 'MULLIKEN_CHARGES')
f=open( 'psi4out.xyz', 'w' )
f.write( "29  " )
f.write( str(ee) + "\n" )
f.write( MOL.save_string_xyz() )
f.close()
--------------------------------------------------------------------------

    Molecular point group: c1

    Geometry (in Angstrom), charge = 0, multiplicity = 1:

       Center              X                  Y                   Z               Mass
    ------------   -----------------  -----------------  -----------------  -----------------
           O          2.393647126334     1.371448732197    -0.122390757166    15.994914619560
           C          1.868857126334     0.458978732197     0.429926242834    12.000000000000
           C          0.413044126334     0.387250732197     0.822676242834    12.000000000000
           O          2.515571126334    -0.645292267803     0.782029242834    15.994914619560
           C         -0.377219873666     1.632493732197     0.426484242834    12.000000000000
           H          0.006210126334    -0.512731267803     0.373555242834     1.007825032070
           H          0.375878126334     0.225760732197     1.897030242834     1.007825032070
           C         -1.831224873666     1.620578732197     0.910449242834    12.000000000000
           H         -0.349800873666     1.746214732197    -0.653068757166     1.007825032070
           H          0.124958126334     2.504163732197     0.831985242834     1.007825032070
           C         -2.715769873666     0.546977732197     0.270081242834    12.000000000000
           H         -2.263538873666     2.596495732197     0.702088242834     1.007825032070
           H         -1.851977873666     1.506809732197     1.993332242834     1.007825032070
           C         -1.924221873666    -0.441915267803    -0.588139757166    12.000000000000
           H         -3.241422873666     0.002749732197     1.053231242834     1.007825032070
           H         -3.482126873666     1.011553732197    -0.346229757166     1.007825032070
           C         -2.798617873666    -1.516213267803    -1.237328757166    12.000000000000
           H         -1.163108873666    -0.921453267803     0.025036242834     1.007825032070
           H         -1.389799873666     0.102824732197    -1.364896757166     1.007825032070
           C         -2.000019873666    -2.501958267803    -2.089530757166    12.000000000000
           H         -3.334142873666    -2.060861267803    -0.462594757166     1.007825032070
           H         -3.557297873666    -1.038959267803    -1.854105757166     1.007825032070
           H         -2.647075873666    -3.250678267803    -2.536008757166     1.007825032070
           H         -1.255214873666    -3.021683267803    -1.493419757166     1.007825032070
           H         -1.479644873666    -1.991736267803    -2.895233757166     1.007825032070
           C          3.895787126334    -0.708013267803     0.472263242834    12.000000000000
           H          4.049686126334    -0.632871267803    -0.594588757166     1.007825032070
           H          4.235880126334    -1.666433267803     0.832506242834     1.007825032070
           H          4.432724126334     0.089430732197     0.965536242834     1.007825032070

  Charge       = 0
  Multiplicity = 1
  Basis Set: 6-31G*
  Basis Set:

    Orbital Energies (a.u.)
    -----------------------

    Doubly Occupied:

       1A    -20.602073     2A    -20.542768     3A    -11.369288
       4A    -11.279819     5A    -11.227047     6A    -11.218348
       7A    -11.216664     8A    -11.215404     9A    -11.215124
      10A    -11.212302    11A    -11.209772    12A     -1.467383
      13A     -1.360621    14A     -1.107209    15A     -1.059908
      16A     -1.019601    17A     -0.973635    18A     -0.937583
      19A     -0.865039    20A     -0.813035    21A     -0.779538
      22A     -0.765516    23A     -0.699994    24A     -0.682185
      25A     -0.670878    26A     -0.648411    27A     -0.639819
      28A     -0.607311    29A     -0.594324    30A     -0.581012
      31A     -0.569217    32A     -0.553310    33A     -0.541579
      34A     -0.524718    35A     -0.519603    36A     -0.509133
      37A     -0.495335    38A     -0.483881    39A     -0.472822
      40A     -0.455204    41A     -0.452183    42A     -0.449878
      43A     -0.438555    44A     -0.421045

  @DF-RHF Final Energy:  -501.00412524853232

   => Energetics <=

    Nuclear Repulsion Energy =            646.3720069935175161
    One-Electron Energy =               -1963.8161207260748142
    Two-Electron Energy =                 816.4399884840275945
    DFT Exchange-Correlation Energy =       0.0000000000000000
    Empirical Dispersion Energy =           0.0000000000000000
    PCM Polarization Energy =               0.0000000000000000
    EFP Energy =                            0.0000000000000000
    Total Energy =                       -501.0041252485297036

  Mulliken Charges: (a.u.)
   Center  Symbol    Alpha    Beta     Spin     Total
       1     O     4.28715  4.28715  0.00000 -0.57429
       2     C     2.60293  2.60293  0.00000  0.79413
       3     C     3.21136  3.21136  0.00000 -0.42272
       4     O     4.30768  4.30768  0.00000 -0.61535
       5     C     3.16167  3.16167  0.00000 -0.32333
       6     H     0.39772  0.39772  0.00000  0.20456
       7     H     0.40197  0.40197  0.00000  0.19605
       8     C     3.16034  3.16034  0.00000 -0.32068
       9     H     0.41067  0.41067  0.00000  0.17866
      10     H     0.40626  0.40626  0.00000  0.18747
      11     C     3.15306  3.15306  0.00000 -0.30612
      12     H     0.41557  0.41557  0.00000  0.16886
      13     H     0.42132  0.42132  0.00000  0.15737
      14     C     3.16435  3.16435  0.00000 -0.32870
      15     H     0.42023  0.42023  0.00000  0.15955
      16     H     0.41859  0.41859  0.00000  0.16282
      17     C     3.14659  3.14659  0.00000 -0.29318
      18     H     0.42309  0.42309  0.00000  0.15381
      19     H     0.41947  0.41947  0.00000  0.16106
      20     C     3.24020  3.24020  0.00000 -0.48041
      21     H     0.42370  0.42370  0.00000  0.15260
      22     H     0.42347  0.42347  0.00000  0.15307
      23     H     0.41854  0.41854  0.00000  0.16291
      24     H     0.42298  0.42298  0.00000  0.15405
      25     H     0.42148  0.42148  0.00000  0.15703
      26     C     3.09218  3.09218  0.00000 -0.18436
      27     H     0.40934  0.40934  0.00000  0.18132
      28     H     0.40887  0.40887  0.00000  0.18227
      29     H     0.40923  0.40923  0.00000  0.18154

   Total alpha = 44.00000, Total beta = 44.00000, Total charge = -0.00000
