  ==> Input File <==

--------------------------------------------------------------------------
set {
	reference rhf
	basis 6-31G*
}

set_num_threads( 4 )
memory 2 gb

molecule MOL {
0 1

H	 -3.135461	 -1.215070	 0.001379
O	 -2.310168	 -0.871793	 -0.309793
C	 -2.026376	 0.340750	 0.341611
C	 -0.673256	 0.843270	 -0.132153
H	 -2.792215	 1.080697	 0.115987
H	 -2.013526	 0.200402	 1.421792
C	 0.486613	 -0.083066	 0.235839
H	 -0.715586	 0.970948	 -1.210718
H	 -0.508072	 1.829858	 0.297090
C	 1.840406	 0.433480	 -0.254303
H	 0.300215	 -1.068318	 -0.178947
H	 0.519509	 -0.203625	 1.318070
C	 1.725122	 1.712290	 -1.083174
H	 2.486470	 0.616499	 0.601748
H	 2.330424	 -0.336848	 -0.846689
H	 1.270156	 2.512387	 -0.506336
H	 2.700028	 2.056377	 -1.414999
H	 1.112373	 1.553310	 -1.966222

	symmetry c1
}
set optking {
	frozen_dihedral = ("
		14 10 7 11
	")
}

ee = optimize('scf')
oeprop('DIPOLE', 'QUADRUPOLE', 'MULLIKEN_CHARGES')
f=open( 'psi4out.xyz', 'w' )
f.write( "18  " )
f.write( str(ee) + "\n" )
f.write( MOL.save_string_xyz() )
f.close()
--------------------------------------------------------------------------

    Molecular point group: c1
  Charge       = 0
  Multiplicity = 1
  Basis Set: 6-31G*
  Basis Set:
  @DF-RHF Final Energy:  -271.16538597192562
    Total Energy =                       -271.1653859719255024
    Molecular point group: c1
  Basis Set: 6-31G*
  Basis Set:
  Basis Set: 6-31G*
  Basis Set:
  @DF-RHF Final Energy:  -271.16547058501681
    Total Energy =                       -271.1654705850166351
  Basis Set: 6-31G*
  Basis Set:
  Basis Set: 6-31G*
  Basis Set:
  @DF-RHF Final Energy:  -271.16940030103115
    Total Energy =                       -271.1694003010312031
  Basis Set: 6-31G*
  Basis Set:
  Basis Set: 6-31G*
  Basis Set:
  @DF-RHF Final Energy:  -271.17005321182205
    Total Energy =                       -271.1700532118223350
  Basis Set: 6-31G*
  Basis Set:
  @DF-RHF Final Energy:  -271.17013313924235
    Total Energy =                       -271.1701331392422958
  Basis Set: 6-31G*
  Basis Set:
  @DF-RHF Final Energy:  -271.17015184035256
    Total Energy =                       -271.1701518403526734
  Basis Set: 6-31G*
  Basis Set:
  Basis Set: 6-31G*
  Basis Set:
  @DF-RHF Final Energy:  -271.17014777138411
    Total Energy =                       -271.1701477713839950
  Basis Set: 6-31G*
  Basis Set:
  Basis Set: 6-31G*
  Basis Set:
  @DF-RHF Final Energy:  -271.17015546184336
    Total Energy =                       -271.1701554618432510
  Basis Set: 6-31G*
  Basis Set:
  Charge       = 0
  Multiplicity = 1
  Basis Set: 6-31G*
  Basis Set:

    Orbital Energies (a.u.)
    -----------------------

    Doubly Occupied:

       1A    -20.552937     2A    -11.267847     3A    -11.211615
       4A    -11.211175     5A    -11.206548     6A    -11.204965
       7A     -1.359644     8A     -1.070460     9A     -1.004849
      10A     -0.914741    11A     -0.833885    12A     -0.764592
      13A     -0.704962    14A     -0.638999    15A     -0.620072
      16A     -0.599468    17A     -0.559546    18A     -0.549117
      19A     -0.528411    20A     -0.510152    21A     -0.489519
      22A     -0.463935    23A     -0.449829    24A     -0.441859
      25A     -0.427669

  @DF-RHF Final Energy:  -271.17015547471306

   => Energetics <=

    Nuclear Repulsion Energy =            251.8910663141907378
    One-Electron Energy =                -866.9488483194427317
    Two-Electron Energy =                 343.8876265305390234
    DFT Exchange-Correlation Energy =       0.0000000000000000
    Empirical Dispersion Energy =           0.0000000000000000
    PCM Polarization Energy =               0.0000000000000000
    EFP Energy =                            0.0000000000000000
    Total Energy =                       -271.1701554747129421
    Molecular point group: c1
  Basis Set: 6-31G*
  Basis Set:

  -Total Gradient:
     Atom            X                  Y                   Z
    ------   -----------------  -----------------  -----------------
       1       -0.000000519295     0.000000596816     0.000000077689
       2       -0.000003909068     0.000006090000    -0.000001309505
       3        0.000003384009    -0.000009616435     0.000010001596
       4        0.000022720762    -0.000009366384    -0.000016426622
       5        0.000000423501    -0.000001099202    -0.000001299492
       6       -0.000000262382     0.000000820225     0.000001562308
       7       -0.000972149027     0.000691002763    -0.002220284654
       8        0.000009248917     0.000007663999    -0.000016912643
       9        0.000003723001    -0.000002884870     0.000001764742
      10       -0.000684117400     0.002343483738     0.000556495247
      11        0.000915320921    -0.000937430558     0.001774117890
      12       -0.000001645526    -0.000008258611     0.000005473326
      13       -0.000006581488     0.000001648658     0.000025187919
      14        0.000717128616    -0.002070519044    -0.000115640528
      15        0.000012638036    -0.000000785192     0.000004656026
      16        0.000012845819     0.000003310739    -0.000001561274
      17       -0.000000195886    -0.000007463346    -0.000010185230
      18       -0.000028053502    -0.000007193294     0.000004283205

  **** Optimization is complete! (in 9 steps) ****
    Final optimized geometry and variables:
    Molecular point group: c1

    Geometry (in Angstrom), charge = 0, multiplicity = 1:

    H           -2.902852611036    -1.680409626154     0.228191460654
    O           -2.104774745647    -1.288979043096    -0.096818204571
    C           -1.847737567679    -0.093811590283     0.596619212632
    C           -0.535796506854     0.489829532511     0.098135899345
    H           -2.651746724478     0.620780349604     0.429428033090
    H           -1.790334992872    -0.278592648454     1.668631489166
    C            0.664088215572    -0.410596503872     0.406635012960
    H           -0.627952896016     0.655360695183    -0.970351227678
    H           -0.407960498510     1.464981481735     0.561886972126
    C            2.059784104786     0.096530547255    -0.052815076003
    H            0.477955879811    -1.389437517088    -0.018243206708
    H            0.692587268866    -0.566880910714     1.482963730954
    C            2.097257643658     1.350365425338    -0.930562194613
    H            2.682090119254     0.265268697490     0.821501384464
    H            2.552565233983    -0.704051647695    -0.597422165886
    H            1.679745827551     2.216091088498    -0.427064343328
    H            3.124295876872     1.589179155217    -1.189850000947
    H            1.551873471240     1.210385652504    -1.858255799009

  Mulliken Charges: (a.u.)
   Center  Symbol    Alpha    Beta     Spin     Total
       1     H     0.28058  0.28058  0.00000  0.43884
       2     O     4.36968  4.36968  0.00000 -0.73936
       3     C     2.99733  2.99733  0.00000  0.00534
       4     C     3.16230  3.16230  0.00000 -0.32461
       5     H     0.42908  0.42908  0.00000  0.14185
       6     H     0.43275  0.43275  0.00000  0.13451
       7     C     3.15993  3.15993  0.00000 -0.31986
       8     H     0.41340  0.41340  0.00000  0.17319
       9     H     0.42339  0.42339  0.00000  0.15322
      10     C     3.15535  3.15535  0.00000 -0.31070
      11     H     0.40464  0.40464  0.00000  0.19073
      12     H     0.42558  0.42558  0.00000  0.14884
      13     C     3.24210  3.24210  0.00000 -0.48420
      14     H     0.42199  0.42199  0.00000  0.15602
      15     H     0.42007  0.42007  0.00000  0.15985
      16     H     0.42210  0.42210  0.00000  0.15580
      17     H     0.41981  0.41981  0.00000  0.16039
      18     H     0.41992  0.41992  0.00000  0.16016

   Total alpha = 25.00000, Total beta = 25.00000, Total charge = -0.00000
