  ==> Input File <==

--------------------------------------------------------------------------
set {
	reference rhf
	basis cc-pvtz
}

set_num_threads( 4 )
memory 2 gb

molecule MOL {
0 1

O	 0.736427	 2.062759	 0.296782
C	 -0.273302	 2.329342	 0.853954
C	 -1.531128	 1.499391	 0.831186
O	 -0.429882	 3.419286	 1.587359
C	 -1.413045	 0.229353	 0.001137
H	 -1.784826	 1.273256	 1.861711
H	 -2.329074	 2.136338	 0.463705
C	 -2.702562	 -0.586401	 0.000228
H	 -0.597205	 -0.373789	 0.383453
H	 -1.142630	 0.490034	 -1.015950
C	 -3.953810	 0.284959	 -0.000782
H	 -2.717793	 -1.238567	 -0.869075
H	 -2.719108	 -1.238472	 0.869576
H	 -3.983727	 0.924403	 -0.876454
H	 -4.852989	 -0.320147	 -0.001515
H	 -3.985140	 0.924399	 0.874841
C	 0.675896	 4.292642	 1.696090
H	 1.518110	 3.787472	 2.145207
H	 0.351815	 5.106357	 2.324348
H	 0.965265	 4.664336	 0.724322

	symmetry c1
}
set optking {
	frozen_dihedral = ("
		9 5 8 12
	")
}

ee = optimize('scf')
oeprop('DIPOLE', 'QUADRUPOLE', 'MULLIKEN_CHARGES')
f=open( 'psi4out.xyz', 'w' )
f.write( "20  " )
f.write( str(ee) + "\n" )
f.write( MOL.save_string_xyz() )
f.close()
--------------------------------------------------------------------------

    Molecular point group: c1
  Charge       = 0
  Multiplicity = 1
  Basis Set: CC-PVTZ
  Basis Set:
  @DF-RHF Final Energy:  -384.07607690801257
    Total Energy =                       -384.0760769080123964
    Molecular point group: c1
  Basis Set: CC-PVTZ
  Basis Set:
  Basis Set: CC-PVTZ
  Basis Set:
  @DF-RHF Final Energy:  -384.07699856511186
    Total Energy =                       -384.0769985651121488
  Basis Set: CC-PVTZ
  Basis Set:
  Basis Set: CC-PVTZ
  Basis Set:
  @DF-RHF Final Energy:  -384.07847928268842
    Total Energy =                       -384.0784792826885905
  Basis Set: CC-PVTZ
  Basis Set:
  Basis Set: CC-PVTZ
  Basis Set:
  @DF-RHF Final Energy:  -384.07836404726100
    Total Energy =                       -384.0783640472611751
  Basis Set: CC-PVTZ
  Basis Set:
  Basis Set: CC-PVTZ
  Basis Set:
  @DF-RHF Final Energy:  -384.07855488417727
    Total Energy =                       -384.0785548841778336
  Basis Set: CC-PVTZ
  Basis Set:
  Basis Set: CC-PVTZ
  Basis Set:
  @DF-RHF Final Energy:  -384.07863880168208
    Total Energy =                       -384.0786388016820183
  Basis Set: CC-PVTZ
  Basis Set:
  Charge       = 0
  Multiplicity = 1
  Basis Set: CC-PVTZ
  Basis Set:

    Orbital Energies (a.u.)
    -----------------------

    Doubly Occupied:

       1A    -20.596044     2A    -20.533995     3A    -11.364331
       4A    -11.278323     5A    -11.233039     6A    -11.218898
       7A    -11.217746     8A    -11.211079     9A     -1.472000
      10A     -1.365583    11A     -1.088951    12A     -1.022642
      13A     -0.968108    14A     -0.897605    15A     -0.799272
      16A     -0.763542    17A     -0.703442    18A     -0.686268
      19A     -0.675127    20A     -0.642277    21A     -0.608764
      22A     -0.594513    23A     -0.567889    24A     -0.549134
      25A     -0.539573    26A     -0.523847    27A     -0.512426
      28A     -0.474144    29A     -0.468920    30A     -0.468152
      31A     -0.458512    32A     -0.440935

  @DF-RHF Final Energy:  -384.07863955216942

   => Energetics <=

    Nuclear Repulsion Energy =            386.2547780193489189
    One-Electron Energy =               -1288.7766675015632245
    Two-Electron Energy =                 518.4432499300449990
    DFT Exchange-Correlation Energy =       0.0000000000000000
    Empirical Dispersion Energy =           0.0000000000000000
    PCM Polarization Energy =               0.0000000000000000
    EFP Energy =                            0.0000000000000000
    Total Energy =                       -384.0786395521693066
    Molecular point group: c1
  Basis Set: CC-PVTZ
  Basis Set:

  -Total Gradient:
     Atom            X                  Y                   Z
    ------   -----------------  -----------------  -----------------
       1        0.000010836114    -0.000001625380     0.000038649544
       2       -0.000052943867     0.000051120077    -0.000088791230
       3        0.000006892215     0.000031194083    -0.000015105804
       4        0.000026223773    -0.000029910107     0.000017654111
       5        0.000729439690    -0.001522944159    -0.007070587358
       6       -0.000013172686    -0.000013878380    -0.000008844172
       7        0.000022561186     0.000022463256    -0.000003706402
       8        0.003184932524    -0.004181313278     0.004872394429
       9       -0.001125196649     0.001875290543     0.005245711464
      10        0.000015339580    -0.000018179655     0.000019140033
      11        0.000012777552     0.000008102137     0.000077766826
      12       -0.002829433021     0.003805005622    -0.003072820439
      13        0.000005549336    -0.000002125423    -0.000005478337
      14        0.000040562260     0.000016796089     0.000012636831
      15       -0.000001329062    -0.000010568813    -0.000015622580
      16       -0.000040640502    -0.000041003782    -0.000011489079
      17       -0.000001248715     0.000005192660     0.000009626505
      18        0.000001706630     0.000002148265    -0.000000684828
      19        0.000008001376     0.000005410453     0.000000170079
      20       -0.000000857732    -0.000001174213    -0.000000619595

  **** Optimization is complete! (in 7 steps) ****
    Final optimized geometry and variables:
    Molecular point group: c1

    Geometry (in Angstrom), charge = 0, multiplicity = 1:

    O            1.838743136586     0.322445429011    -0.364658578335
    C            0.834543774833     0.621501798571     0.186011741470
    C           -0.453944262801    -0.160729690207     0.150527711208
    O            0.711616196024     1.713331861637     0.923591393778
    C           -0.361596089665    -1.433261441063    -0.686325635154
    H           -0.718928926031    -0.383601242680     1.179337151550
    H           -1.219310066685     0.513900214705    -0.212889789162
    C           -1.617882023006    -2.315404868094    -0.634747594728
    H            0.477065973419    -1.999047062335    -0.300391761620
    H           -0.128583854211    -1.168456247461    -1.710043849232
    C           -2.950407973361    -1.567765714222    -0.703561875564
    H           -1.589941991744    -2.980346751807    -1.491434961746
    H           -1.600000568019    -2.931823579074     0.257838214444
    H           -2.994564897053    -0.921514222882    -1.574662687762
    H           -3.772289292678    -2.270450113678    -0.776567118864
    H           -3.125469447761    -0.955312917684     0.172692315387
    C            1.846987426183     2.545964952968     1.044526811025
    H            2.667424743286     2.008962907601     1.497049169342
    H            1.547763601007     3.367842674646     1.674530556193
    H            2.156594372933     2.911725635584     0.076737317642

  Mulliken Charges: (a.u.)
   Center  Symbol    Alpha    Beta     Spin     Total
       1     O     4.19653  4.19653  0.00000 -0.39306
       2     C     2.80999  2.80999  0.00000  0.38003
       3     C     3.10091  3.10091  0.00000 -0.20182
       4     O     4.14672  4.14672  0.00000 -0.29345
       5     C     3.08966  3.08966  0.00000 -0.17931
       6     H     0.43941  0.43941  0.00000  0.12119
       7     H     0.43751  0.43751  0.00000  0.12498
       8     C     3.09182  3.09182  0.00000 -0.18365
       9     H     0.44267  0.44267  0.00000  0.11467
      10     H     0.44463  0.44463  0.00000  0.11074
      11     C     3.15878  3.15878  0.00000 -0.31756
      12     H     0.44822  0.44822  0.00000  0.10355
      13     H     0.45100  0.45100  0.00000  0.09799
      14     H     0.45310  0.45310  0.00000  0.09381
      15     H     0.44401  0.44401  0.00000  0.11198
      16     H     0.45305  0.45305  0.00000  0.09389
      17     C     3.03807  3.03807  0.00000 -0.07614
      18     H     0.45431  0.45431  0.00000  0.09138
      19     H     0.44521  0.44521  0.00000  0.10959
      20     H     0.45441  0.45441  0.00000  0.09117

   Total alpha = 32.00000, Total beta = 32.00000, Total charge =  0.00000
