  ==> Input File <==

--------------------------------------------------------------------------
set {
	reference rhf
	basis cc-pvtz
}

set_num_threads( 4 )
memory 2 gb

molecule MOL {
0 1

O	 -0.694481	 1.313155	 -0.204815
C	 -0.862519	 0.151932	 -0.046791
C	 -2.171428	 -0.477048	 0.339095
O	 0.085519	 -0.757083	 -0.192238
H	 -2.467997	 -1.191667	 -0.417688
H	 -2.923379	 0.287970	 0.444097
H	 -2.053854	 -1.015120	 1.270901
C	 1.432991	 -0.390789	 0.080942
C	 1.761134	 -0.521199	 1.553767
H	 1.605633	 0.615203	 -0.268330
H	 2.026886	 -1.074117	 -0.507363
H	 2.810291	 -0.299107	 1.713131
H	 1.174277	 0.169867	 2.143181
H	 1.570113	 -1.529598	 1.900516

	symmetry c1
}
set optking {
	frozen_dihedral = ("
		8 4 2 1
	")
}

ee = optimize('scf')
oeprop('DIPOLE', 'QUADRUPOLE', 'MULLIKEN_CHARGES')
f=open( 'psi4out.xyz', 'w' )
f.write( "14  " )
f.write( str(ee) + "\n" )
f.write( MOL.save_string_xyz() )
f.close()
--------------------------------------------------------------------------

    Molecular point group: c1
  Charge       = 0
  Multiplicity = 1
  Basis Set: CC-PVTZ
  Basis Set:
  @DF-RHF Final Energy:  -305.98639341570390
    Total Energy =                       -305.9863934157040148
    Molecular point group: c1
  Basis Set: CC-PVTZ
  Basis Set:
  Basis Set: CC-PVTZ
  Basis Set:
  @DF-RHF Final Energy:  -305.98282249515012
    Total Energy =                       -305.9828224951498896
  Basis Set: CC-PVTZ
  Basis Set:
  Basis Set: CC-PVTZ
  Basis Set:
  @DF-RHF Final Energy:  -305.98684988345826
    Total Energy =                       -305.9868498834582624
  Basis Set: CC-PVTZ
  Basis Set:
  Basis Set: CC-PVTZ
  Basis Set:
  @DF-RHF Final Energy:  -305.98692670321941
    Total Energy =                       -305.9869267032194102
  Basis Set: CC-PVTZ
  Basis Set:
  @DF-RHF Final Energy:  -305.98695280671132
    Total Energy =                       -305.9869528067115425
  @DF-RHF Final Energy:  -305.98697245163237
    Total Energy =                       -305.9869724516320844
  Basis Set: CC-PVTZ
  Basis Set:
  @DF-RHF Final Energy:  -305.98697455789352
    Total Energy =                       -305.9869745578931770
  Basis Set: CC-PVTZ
  Basis Set:
  Basis Set: CC-PVTZ
  Basis Set:
  @DF-RHF Final Energy:  -305.98696996954209
    Total Energy =                       -305.9869699695423151
  Basis Set: CC-PVTZ
  Basis Set:
  Basis Set: CC-PVTZ
  Basis Set:
  @DF-RHF Final Energy:  -305.98697435910674
    Total Energy =                       -305.9869743591067390
  Basis Set: CC-PVTZ
  Basis Set:
  Charge       = 0
  Multiplicity = 1
  Basis Set: CC-PVTZ
  Basis Set:

    Orbital Energies (a.u.)
    -----------------------

    Doubly Occupied:

       1A    -20.590036     2A    -20.535204     3A    -11.368438
       4A    -11.284546     5A    -11.231937     6A    -11.222026
       7A     -1.467635     8A     -1.366283     9A     -1.054996
      10A     -1.002709    11A     -0.885280    12A     -0.764514
      13A     -0.699833    14A     -0.685723    15A     -0.664705
      16A     -0.614074    17A     -0.589587    18A     -0.571912
      19A     -0.558513    20A     -0.534028    21A     -0.521135
      22A     -0.494938    23A     -0.454746    24A     -0.441123

  @DF-RHF Final Energy:  -305.98697523528631

   => Energetics <=

    Nuclear Repulsion Energy =            249.3105609753822307
    One-Electron Energy =                -911.3872407034757543
    Two-Electron Energy =                 356.0897044928071864
    DFT Exchange-Correlation Energy =       0.0000000000000000
    Empirical Dispersion Energy =           0.0000000000000000
    PCM Polarization Energy =               0.0000000000000000
    EFP Energy =                            0.0000000000000000
    Total Energy =                       -305.9869752352863088
    Molecular point group: c1
  Basis Set: CC-PVTZ
  Basis Set:

  -Total Gradient:
     Atom            X                  Y                   Z
    ------   -----------------  -----------------  -----------------
       1       -0.002258067396     0.000115361688    -0.007639074537
       2        0.003121330497    -0.001268253450     0.014439578391
       3       -0.000045443707     0.000022954061    -0.000083499622
       4       -0.000304017690     0.003366168579    -0.012624679394
       5       -0.000000322625     0.000031035550     0.000015994883
       6       -0.000002250007    -0.000007142823     0.000015402743
       7        0.000007431805    -0.000000472115     0.000042884047
       8       -0.000496146197    -0.002257157769     0.005825944161
       9       -0.000064086611     0.000049682176    -0.000003681453
      10       -0.000006608254    -0.000023074940     0.000010557464
      11        0.000018720354    -0.000003686934     0.000013240874
      12        0.000002647511    -0.000005494872    -0.000015954439
      13        0.000014270315    -0.000010332281    -0.000007783187
      14        0.000012542007    -0.000009586866     0.000011070069

  **** Optimization is complete! (in 10 steps) ****
    Final optimized geometry and variables:
    Molecular point group: c1

    Geometry (in Angstrom), charge = 0, multiplicity = 1:

    O           -0.611114691105     1.435804433962    -0.312475883796
    C           -0.788915798552     0.268435708934    -0.250759499197
    C           -2.114789157682    -0.377269213520     0.033159041883
    O            0.150828090691    -0.634339495191    -0.505502938113
    H           -2.339640763848    -1.104091927833    -0.735852373432
    H           -2.885490310087     0.374942325203     0.078819791946
    H           -2.058108768496    -0.905843706984     0.977148085540
    C            1.507329015467    -0.298442740861    -0.241313242395
    C            1.821562423844    -0.392162366556     1.237492306962
    H            1.713468074898     0.689256430816    -0.623769628079
    H            2.085186217804    -1.015885519732    -0.803794516236
    H            2.874435434340    -0.191531800879     1.398877686102
    H            1.252543082575     0.334573362502     1.803900478171
    H            1.600066790510    -1.382470753913     1.616185878923

  Mulliken Charges: (a.u.)
   Center  Symbol    Alpha    Beta     Spin     Total
       1     O     4.19322  4.19322  0.00000 -0.38645
       2     C     2.80095  2.80095  0.00000  0.39809
       3     C     3.13700  3.13700  0.00000 -0.27401
       4     O     4.16316  4.16316  0.00000 -0.32633
       5     H     0.44409  0.44409  0.00000  0.11182
       6     H     0.43831  0.43831  0.00000  0.12338
       7     H     0.44892  0.44892  0.00000  0.10216
       8     C     2.98653  2.98653  0.00000  0.02693
       9     C     3.14962  3.14962  0.00000 -0.29923
      10     H     0.44549  0.44549  0.00000  0.10902
      11     H     0.44502  0.44502  0.00000  0.10995
      12     H     0.44950  0.44950  0.00000  0.10100
      13     H     0.44719  0.44719  0.00000  0.10561
      14     H     0.45098  0.45098  0.00000  0.09804

   Total alpha = 24.00000, Total beta = 24.00000, Total charge = -0.00000
