  ==> Input File <==

--------------------------------------------------------------------------
set {
	reference rhf
	basis 6-31G*
}

set_num_threads( 1 )
memory 2 gb

molecule MOL {
0 1

H	 -3.161837	 0.500524	 -0.000234
C	 -2.367097	 -0.232926	 -0.000000
O	 -1.158440	 0.455814	 -0.000122
H	 -2.468853	 -0.861886	 -0.882833
H	 -2.468942	 -0.861421	 0.883154
C	 -0.029776	 -0.365156	 0.000148
C	 1.212217	 0.508981	 0.000007
H	 -0.036772	 -1.013236	 -0.877259
H	 -0.036869	 -1.012778	 0.877897
C	 2.339974	 -0.078115	 -0.847556
H	 0.940195	 1.493482	 -0.367993
H	 1.542360	 0.638279	 1.026159
H	 2.037754	 -0.193033	 -1.884803
H	 3.213206	 0.565299	 -0.829395
H	 2.643789	 -1.054766	 -0.481152

	symmetry c1
}
set optking {
	frozen_dihedral = ("
		6 3 2 4,
		8 6 3 2
	")
}

ee = energy('scf')
oeprop('DIPOLE', 'QUADRUPOLE', 'MULLIKEN_CHARGES')
f=open( 'psi4out.xyz', 'w' )
f.write( "15  " )
f.write( str(ee) + "\n" )
f.write( MOL.save_string_xyz() )
f.close()
--------------------------------------------------------------------------

    Molecular point group: c1

    Geometry (in Angstrom), charge = 0, multiplicity = 1:

       Center              X                  Y                   Z               Mass
    ------------   -----------------  -----------------  -----------------  -----------------
           H         -3.128841848779     0.453671721064     0.171583557180     1.007825032070
           C         -2.334101848779    -0.279778278936     0.171817557180    12.000000000000
           O         -1.125444848779     0.408961721064     0.171695557180    15.994914619560
           H         -2.435857848779    -0.908738278936    -0.711015442820     1.007825032070
           H         -2.435946848779    -0.908273278936     1.054971557180     1.007825032070
           C          0.003219151221    -0.412008278936     0.171965557180    12.000000000000
           C          1.245212151221     0.462128721064     0.171824557180    12.000000000000
           H         -0.003776848779    -1.060088278936    -0.705441442820     1.007825032070
           H         -0.003873848779    -1.059630278936     1.049714557180     1.007825032070
           C          2.372969151221    -0.124967278936    -0.675738442820    12.000000000000
           H          0.973190151221     1.446629721064    -0.196175442820     1.007825032070
           H          1.575355151221     0.591426721064     1.197976557180     1.007825032070
           H          2.070749151221    -0.239885278936    -1.712985442820     1.007825032070
           H          3.246201151221     0.518446721064    -0.657577442820     1.007825032070
           H          2.676784151221    -1.101618278936    -0.309334442820     1.007825032070

  Charge       = 0
  Multiplicity = 1
  Basis Set: 6-31G*
  Basis Set:

    Orbital Energies (a.u.)
    -----------------------

    Doubly Occupied:

       1A    -20.553436     2A    -11.265281     3A    -11.263590
       4A    -11.212789     5A    -11.211763     6A     -1.378361
       7A     -1.056706     8A     -0.954548     9A     -0.877949
      10A     -0.808657    11A     -0.673006    12A     -0.655974
      13A     -0.631196    14A     -0.601144    15A     -0.568711
      16A     -0.543223    17A     -0.497521    18A     -0.488799
      19A     -0.478140    20A     -0.461925    21A     -0.412005

  @DF-RHF Final Energy:  -232.13516041271174

   => Energetics <=

    Nuclear Repulsion Energy =            190.1126788817691704
    One-Electron Energy =                -691.3061973291005415
    Two-Electron Energy =                 269.0583580346200847
    DFT Exchange-Correlation Energy =       0.0000000000000000
    Empirical Dispersion Energy =           0.0000000000000000
    PCM Polarization Energy =               0.0000000000000000
    EFP Energy =                            0.0000000000000000
    Total Energy =                       -232.1351604127112864

  Mulliken Charges: (a.u.)
   Center  Symbol    Alpha    Beta     Spin     Total
       1     H     0.41231  0.41231  0.00000  0.17537
       2     C     3.07967  3.07967  0.00000 -0.15933
       3     O     4.30514  4.30514  0.00000 -0.61028
       4     H     0.43043  0.43043  0.00000  0.13914
       5     H     0.43053  0.43053  0.00000  0.13894
       6     C     2.98484  2.98484  0.00000  0.03032
       7     C     3.16405  3.16405  0.00000 -0.32809
       8     H     0.43164  0.43164  0.00000  0.13672
       9     H     0.43160  0.43160  0.00000  0.13680
      10     C     3.24718  3.24718  0.00000 -0.49436
      11     H     0.40574  0.40574  0.00000  0.18853
      12     H     0.41832  0.41832  0.00000  0.16336
      13     H     0.41897  0.41897  0.00000  0.16206
      14     H     0.41728  0.41728  0.00000  0.16545
      15     H     0.42230  0.42230  0.00000  0.15539

   Total alpha = 21.00000, Total beta = 21.00000, Total charge =  0.00000
