  ==> Input File <==

--------------------------------------------------------------------------
set {
	reference rhf
	basis 6-31G*
}

set_num_threads( 4 )
memory 2 gb

molecule MOL {
0 1

H	 0.700444	 -0.546814	 -1.803221
O	 0.277750	 0.246049	 -2.104137
C	 0.117723	 1.116212	 -1.021930
C	 -0.793441	 0.596080	 0.058728
H	 -0.288593	 2.034704	 -1.429952
H	 1.082345	 1.370539	 -0.583925
C	 -1.530462	 -0.493172	 -0.025500
H	 -0.820160	 1.192575	 0.957596
H	 -1.092586	 -1.461565	 -0.186463
H	 -2.602122	 -0.450675	 0.050101

	symmetry c1
}
set optking {
	frozen_dihedral = ("
		3 4 7 9
	")
}

ee = optimize('scf')
oeprop('DIPOLE', 'QUADRUPOLE', 'MULLIKEN_CHARGES')
f=open( 'psi4out.xyz', 'w' )
f.write( "10  " )
f.write( str(ee) + "\n" )
f.write( MOL.save_string_xyz() )
f.close()
--------------------------------------------------------------------------

    Molecular point group: c1
  Charge       = 0
  Multiplicity = 1
  Basis Set: 6-31G*
  Basis Set:
  @DF-RHF Final Energy:  -191.83291815203620
    Total Energy =                       -191.8329181520363420
    Molecular point group: c1
  Basis Set: 6-31G*
  Basis Set:
  Basis Set: 6-31G*
  Basis Set:
  @DF-RHF Final Energy:  -191.85972112037052
    Total Energy =                       -191.8597211203705228
  Basis Set: 6-31G*
  Basis Set:
  Basis Set: 6-31G*
  Basis Set:
  @DF-RHF Final Energy:  -191.88244600017606
    Total Energy =                       -191.8824460001760031
  Basis Set: 6-31G*
  Basis Set:
  Basis Set: 6-31G*
  Basis Set:
  @DF-RHF Final Energy:  -191.88697285567378
    Total Energy =                       -191.8869728556737755
  Basis Set: 6-31G*
  Basis Set:
  @DF-RHF Final Energy:  -191.88716434743060
    Total Energy =                       -191.8871643474306552
  @DF-RHF Final Energy:  -191.88716825040905
    Total Energy =                       -191.8871682504090757
  @DF-RHF Final Energy:  -191.88716034197074
    Total Energy =                       -191.8871603419706844
  @DF-RHF Final Energy:  -191.79868747546757
    Total Energy =                       -191.7986874754676023
  @DF-RHF Final Energy:  -191.82173428390723
    Total Energy =                       -191.8217342839072330
  @DF-RHF Final Energy:  -191.87632616422135
    Total Energy =                       -191.8763261642213251
  @DF-RHF Final Energy:  -191.88590313872618
    Total Energy =                       -191.8859031387261211
  @DF-RHF Final Energy:  -191.88713900969935
    Total Energy =                       -191.8871390096994105
  @DF-RHF Final Energy:  -191.88716704243490
    Total Energy =                       -191.8871670424348963
  @DF-RHF Final Energy:  -191.88717379970754
    Total Energy =                       -191.8871737997075115
  @DF-RHF Final Energy:  -191.88717449328806
    Total Energy =                       -191.8871744932880006
  @DF-RHF Final Energy:  -191.88717485198535
    Total Energy =                       -191.8871748519852929
  @DF-RHF Final Energy:  -191.88717371626404
    Total Energy =                       -191.8871737162640159
  @DF-RHF Final Energy:  -191.88717473674456
    Total Energy =                       -191.8871747367446119
  @DF-RHF Final Energy:  -191.81737620397911
    Total Energy =                       -191.8173762039792223
  @DF-RHF Final Energy:  -191.83809898549436
    Total Energy =                       -191.8380989854943550
  @DF-RHF Final Energy:  -191.88699290886211
    Total Energy =                       -191.8869929088621120
  @DF-RHF Final Energy:  -191.88705047068359
    Total Energy =                       -191.8870504706836755
  @DF-RHF Final Energy:  -191.88709982321183
    Total Energy =                       -191.8870998232117699
  @DF-RHF Final Energy:  -191.88713429994260
    Total Energy =                       -191.8871342999426304
  @DF-RHF Final Energy:  -191.88714524556855
    Total Energy =                       -191.8871452455685471
  @DF-RHF Final Energy:  -191.88712193540059
    Total Energy =                       -191.8871219354006143
  @DF-RHF Final Energy:  -191.88715095549276
    Total Energy =                       -191.8871509554928139
  @DF-RHF Final Energy:  -191.88714095329181
    Total Energy =                       -191.8871409532918051
  @DF-RHF Final Energy:  -191.88714384360929
    Total Energy =                       -191.8871438436092944
  @DF-RHF Final Energy:  -191.88699335981400
    Total Energy =                       -191.8869933598139710
  @DF-RHF Final Energy:  -191.88714761493696
    Total Energy =                       -191.8871476149369641
  @DF-RHF Final Energy:  -191.88714828439231
    Total Energy =                       -191.8871482843923673
  @DF-RHF Final Energy:  -191.88714749467516
    Total Energy =                       -191.8871474946750766
  @DF-RHF Final Energy:  -191.88481784304059
    Total Energy =                       -191.8848178430405937
  @DF-RHF Final Energy:  -191.88187748331580
    Total Energy =                       -191.8818774833157477
  @DF-RHF Final Energy:  -191.88239762341908
    Total Energy =                       -191.8823976234191377
  Basis Set: 6-31G*
  Basis Set:
  @DF-RHF Final Energy:  -191.88419237181262
    Total Energy =                       -191.8841923718126168
  Basis Set: 6-31G*
  Basis Set:
  Basis Set: 6-31G*
  Basis Set:
  @DF-RHF Final Energy:  -191.88565610407744
    Total Energy =                       -191.8856561040774409
  Basis Set: 6-31G*
  Basis Set:
  Basis Set: 6-31G*
  Basis Set:
  @DF-RHF Final Energy:  -191.88674619817655
    Total Energy =                       -191.8867461981766098
  Basis Set: 6-31G*
  Basis Set:
  Charge       = 0
  Multiplicity = 1
  Basis Set: 6-31G*
  Basis Set:

    Orbital Energies (a.u.)
    -----------------------

    Doubly Occupied:

       1A    -20.559881     2A    -11.282994     3A    -11.236049
       4A    -11.224201     5A     -1.367848     6A     -1.056984
       7A     -0.929815     8A     -0.769038     9A     -0.688426
      10A     -0.650206    11A     -0.611871    12A     -0.570163
      13A     -0.542738    14A     -0.485012    15A     -0.443604
      16A     -0.356135

  @DF-RHF Final Energy:  -191.88696971679940

   => Energetics <=

    Nuclear Repulsion Energy =            118.0789102433912348
    One-Electron Energy =                -494.3818308852136170
    Two-Electron Energy =                 184.4159509250229405
    DFT Exchange-Correlation Energy =       0.0000000000000000
    Empirical Dispersion Energy =           0.0000000000000000
    PCM Polarization Energy =               0.0000000000000000
    EFP Energy =                            0.0000000000000000
    Total Energy =                       -191.8869697167994275
    Molecular point group: c1
  Basis Set: 6-31G*
  Basis Set:

  -Total Gradient:
     Atom            X                  Y                   Z
    ------   -----------------  -----------------  -----------------
       1        0.002061299390    -0.002882250349     0.000941435068
       2       -0.004075857843     0.001958529677     0.000896670969
       3       -0.013744987036     0.016900793021    -0.008835833441
       4        0.029212774350    -0.035862659848     0.021357254829
       5       -0.000873298575     0.000911901243    -0.000125848747
       6        0.002507362089     0.002903492129     0.002469648469
       7       -0.016782615761     0.022564302448    -0.050860426913
       8       -0.000583666302     0.000867097238     0.001026270800
       9        0.003839432295    -0.008568023079     0.030876974850
      10       -0.001560442607     0.001206817521     0.002253854115

    Molecular point group: c1

    Geometry (in Angstrom), charge = 0, multiplicity = 1:

    H            1.416031422848    -0.818768802861    -0.881624241472
    O            0.878074806979    -0.113155614527    -1.216210290317
    C            0.551391123887     0.752832641850    -0.172991674365
    C           -0.351181626766     0.151172100475     0.880495146129
    H           -0.011217324151     1.566626942618    -0.614328342465
    H            1.441504737226     1.194771372805     0.279402457556
    C           -1.292236510430    -0.777378956980     0.724336785904
    H           -0.568420103625     0.894961402456     1.637667891294
    H           -1.138390389083    -1.776895969491     0.353336148256
    H           -2.072614167715    -0.772544761016     1.479009325748

  Mulliken Charges: (a.u.)
   Center  Symbol    Alpha    Beta     Spin     Total
       1     H     0.28054  0.28054  0.00000  0.43891
       2     O     4.36488  4.36488  0.00000 -0.72975
       3     C     3.00010  3.00010  0.00000 -0.00019
       4     C     3.09711  3.09711  0.00000 -0.19423
       5     H     0.40353  0.40353  0.00000  0.19295
       6     H     0.42757  0.42757  0.00000  0.14486
       7     C     3.17817  3.17817  0.00000 -0.35634
       8     H     0.41916  0.41916  0.00000  0.16168
       9     H     0.40954  0.40954  0.00000  0.18091
      10     H     0.41940  0.41940  0.00000  0.16120

   Total alpha = 16.00000, Total beta = 16.00000, Total charge =  0.00000
