  ==> Input File <==

--------------------------------------------------------------------------
set {
	reference rhf
	basis 6-31G*
}

set_num_threads( 1 )
memory 2 gb

molecule MOL {
0 1

O	 3.224949	 0.968356	 -0.603874
C	 2.700586	 0.056727	 -0.049766
C	 1.245376	 -0.013843	 0.345420
O	 3.347301	 -1.047515	 0.302425
C	 0.455112	 1.231400	 -0.050772
H	 0.837349	 -0.914077	 -0.102113
H	 1.209870	 -0.174208	 1.419998
C	 -0.998893	 1.219485	 0.433193
H	 0.482531	 1.345121	 -1.130325
H	 0.957290	 2.103070	 0.354729
C	 -1.883438	 0.145884	 -0.207175
H	 -1.431207	 2.195402	 0.224832
H	 -1.019646	 1.105716	 1.516076
C	 -3.347647	 0.245583	 0.225435
H	 -1.822183	 0.231698	 -1.291012
H	 -1.510341	 -0.844814	 0.042401
C	 -4.239992	 -0.825570	 -0.404234
H	 -3.732888	 1.230466	 -0.033079
H	 -3.408585	 0.170602	 1.310038
C	 -5.701275	 -0.716658	 0.029921
H	 -4.179496	 -0.752714	 -1.488058
H	 -3.859041	 -1.810759	 -0.143352
H	 -6.308102	 -1.488908	 -0.432678
H	 -6.122175	 0.245478	 -0.248167
H	 -5.799072	 -0.820114	 1.106957
C	 4.726980	 -1.111269	 -0.009516
H	 4.879186	 -1.037305	 -1.076693
H	 5.067163	 -2.069493	 0.351162
H	 5.265128	 -0.313595	 0.482063

	symmetry c1
}
set optking {
	frozen_dihedral = ("
		21 17 14 11,
		17 14 11 15,
		15 11 8 5,
		11 8 5 9,
		2 4 26 27,
		1 2 4 26,
		6 3 2 1
	")
}

ee = energy('scf')
oeprop('DIPOLE', 'QUADRUPOLE', 'MULLIKEN_CHARGES')
f=open( 'psi4out.xyz', 'w' )
f.write( "29  " )
f.write( str(ee) + "\n" )
f.write( MOL.save_string_xyz() )
f.close()
--------------------------------------------------------------------------

    Molecular point group: c1

    Geometry (in Angstrom), charge = 0, multiplicity = 1:

       Center              X                  Y                   Z               Mass
    ------------   -----------------  -----------------  -----------------  -----------------
           O          3.225267099641     0.968964453994    -0.602596267279    15.994914619560
           C          2.700904099641     0.057335453994    -0.048488267279    12.000000000000
           C          1.245694099641    -0.013234546006     0.346697732721    12.000000000000
           O          3.347619099641    -1.046906546006     0.303702732721    15.994914619560
           C          0.455430099641     1.232008453994    -0.049494267279    12.000000000000
           H          0.837667099641    -0.913468546006    -0.100835267279     1.007825032070
           H          1.210188099641    -0.173599546006     1.421275732721     1.007825032070
           C         -0.998574900359     1.220093453994     0.434470732721    12.000000000000
           H          0.482849099641     1.345729453994    -1.129047267279     1.007825032070
           H          0.957608099641     2.103678453994     0.356006732721     1.007825032070
           C         -1.883119900359     0.146492453994    -0.205897267279    12.000000000000
           H         -1.430888900359     2.196010453994     0.226109732721     1.007825032070
           H         -1.019327900359     1.106324453994     1.517353732721     1.007825032070
           C         -3.347328900359     0.246191453994     0.226712732721    12.000000000000
           H         -1.821864900359     0.232306453994    -1.289734267279     1.007825032070
           H         -1.510022900359    -0.844205546006     0.043678732721     1.007825032070
           C         -4.239673900359    -0.824961546006    -0.402956267279    12.000000000000
           H         -3.732569900359     1.231074453994    -0.031801267279     1.007825032070
           H         -3.408266900359     0.171210453994     1.311315732721     1.007825032070
           C         -5.700956900359    -0.716049546006     0.031198732721    12.000000000000
           H         -4.179177900359    -0.752105546006    -1.486780267279     1.007825032070
           H         -3.858722900359    -1.810150546006    -0.142074267279     1.007825032070
           H         -6.307783900359    -1.488299546006    -0.431400267279     1.007825032070
           H         -6.121856900359     0.246086453994    -0.246889267279     1.007825032070
           H         -5.798753900359    -0.819505546006     1.108234732721     1.007825032070
           C          4.727298099641    -1.110660546006    -0.008238267279    12.000000000000
           H          4.879504099641    -1.036696546006    -1.075415267279     1.007825032070
           H          5.067481099641    -2.068884546006     0.352439732721     1.007825032070
           H          5.265446099641    -0.312986546006     0.483340732721     1.007825032070

  Charge       = 0
  Multiplicity = 1
  Basis Set: 6-31G*
  Basis Set:

    Orbital Energies (a.u.)
    -----------------------

    Doubly Occupied:

       1A    -20.603362     2A    -20.545197     3A    -11.372004
       4A    -11.280666     5A    -11.234742     6A    -11.219096
       7A    -11.217640     8A    -11.216001     9A    -11.215856
      10A    -11.214457    11A    -11.209071    12A     -1.469065
      13A     -1.362508    14A     -1.098076    15A     -1.066812
      16A     -1.019502    17A     -0.977228    18A     -0.928566
      19A     -0.861596    20A     -0.799268    21A     -0.790497
      22A     -0.763797    23A     -0.700743    24A     -0.682308
      25A     -0.672173    26A     -0.650886    27A     -0.628800
      28A     -0.604695    29A     -0.594943    30A     -0.580915
      31A     -0.567037    32A     -0.549195    33A     -0.531873
      34A     -0.530436    35A     -0.516035    36A     -0.511833
      37A     -0.496344    38A     -0.477819    39A     -0.470189
      40A     -0.462408    41A     -0.458831    42A     -0.455781
      43A     -0.441149    44A     -0.435394

  @DF-RHF Final Energy:  -501.04411287782386

   => Energetics <=

    Nuclear Repulsion Energy =            610.1994742946069437
    One-Electron Energy =               -1891.5176275318817716
    Two-Electron Energy =                 780.2740403594530108
    DFT Exchange-Correlation Energy =       0.0000000000000000
    Empirical Dispersion Energy =           0.0000000000000000
    PCM Polarization Energy =               0.0000000000000000
    EFP Energy =                            0.0000000000000000
    Total Energy =                       -501.0441128778218172

  Mulliken Charges: (a.u.)
   Center  Symbol    Alpha    Beta     Spin     Total
       1     O     4.28596  4.28596  0.00000 -0.57192
       2     C     2.60483  2.60483  0.00000  0.79034
       3     C     3.20974  3.20974  0.00000 -0.41947
       4     O     4.30747  4.30747  0.00000 -0.61493
       5     C     3.15377  3.15377  0.00000 -0.30755
       6     H     0.39879  0.39879  0.00000  0.20243
       7     H     0.40125  0.40125  0.00000  0.19751
       8     C     3.15663  3.15663  0.00000 -0.31325
       9     H     0.41306  0.41306  0.00000  0.17389
      10     H     0.40878  0.40878  0.00000  0.18244
      11     C     3.15508  3.15508  0.00000 -0.31015
      12     H     0.41822  0.41822  0.00000  0.16355
      13     H     0.42387  0.42387  0.00000  0.15227
      14     C     3.15029  3.15029  0.00000 -0.30058
      15     H     0.42260  0.42260  0.00000  0.15479
      16     H     0.42361  0.42361  0.00000  0.15277
      17     C     3.15146  3.15146  0.00000 -0.30292
      18     H     0.42332  0.42332  0.00000  0.15336
      19     H     0.42397  0.42397  0.00000  0.15205
      20     C     3.23935  3.23935  0.00000 -0.47871
      21     H     0.42280  0.42280  0.00000  0.15440
      22     H     0.42343  0.42343  0.00000  0.15314
      23     H     0.41923  0.41923  0.00000  0.16154
      24     H     0.42154  0.42154  0.00000  0.15691
      25     H     0.42183  0.42183  0.00000  0.15634
      26     C     3.09240  3.09240  0.00000 -0.18480
      27     H     0.40908  0.40908  0.00000  0.18183
      28     H     0.40852  0.40852  0.00000  0.18296
      29     H     0.40913  0.40913  0.00000  0.18174

   Total alpha = 44.00000, Total beta = 44.00000, Total charge =  0.00000
