  ==> Input File <==

--------------------------------------------------------------------------
set {
	reference rhf
	basis 6-31G*
}

set_num_threads( 4 )
memory 2 gb

molecule MOL {
0 1

H	 -1.786327	 3.927309	 -0.918625
O	 -1.094491	 3.327810	 -1.159183
C	 -1.056159	 2.260414	 -0.247159
C	 0.061953	 1.320966	 -0.663105
H	 -0.879372	 2.626163	 0.763426
H	 -2.006595	 1.728478	 -0.239751
C	 0.198102	 0.111031	 0.262842
H	 0.991392	 1.883518	 -0.683251
H	 -0.127259	 0.994245	 -1.681893
C	 1.331804	 -0.827780	 -0.158768
H	 0.362740	 0.456578	 1.280519
H	 -0.738699	 -0.444640	 0.275133
C	 2.723619	 -0.410569	 0.329459
H	 1.342964	 -0.912588	 -1.244120
H	 1.116806	 -1.824343	 0.220779
C	 3.243875	 0.895854	 -0.272975
H	 3.424222	 -1.207124	 0.091250
H	 2.714788	 -0.329854	 1.414619
H	 3.251977	 0.848779	 -1.358681
H	 2.637085	 1.747371	 0.016682
H	 4.259473	 1.094070	 0.055697

	symmetry c1
}
set optking {
	frozen_dihedral = ("
		4 7 10 14
	")
}

ee = optimize('scf')
oeprop('DIPOLE', 'QUADRUPOLE', 'MULLIKEN_CHARGES')
f=open( 'psi4out.xyz', 'w' )
f.write( "21  " )
f.write( str(ee) + "\n" )
f.write( MOL.save_string_xyz() )
f.close()
--------------------------------------------------------------------------

    Molecular point group: c1
  Charge       = 0
  Multiplicity = 1
  Basis Set: 6-31G*
  Basis Set:
  @DF-RHF Final Energy:  -310.20464512714602
    Total Energy =                       -310.2046451271459659
    Molecular point group: c1
  Basis Set: 6-31G*
  Basis Set:
  Basis Set: 6-31G*
  Basis Set:
  @DF-RHF Final Energy:  -310.20779489125636
    Total Energy =                       -310.2077948912564125
  Basis Set: 6-31G*
  Basis Set:
  Basis Set: 6-31G*
  Basis Set:
  @DF-RHF Final Energy:  -310.20807090744233
    Total Energy =                       -310.2080709074427887
  Basis Set: 6-31G*
  Basis Set:
  Basis Set: 6-31G*
  Basis Set:
  @DF-RHF Final Energy:  -310.20807459969075
    Total Energy =                       -310.2080745996907467
  Basis Set: 6-31G*
  Basis Set:
  Basis Set: 6-31G*
  Basis Set:
  @DF-RHF Final Energy:  -310.20809377411865
    Total Energy =                       -310.2080937741188791
  Basis Set: 6-31G*
  Basis Set:
  Basis Set: 6-31G*
  Basis Set:
  @DF-RHF Final Energy:  -310.20809491091683
    Total Energy =                       -310.2080949109167136
  Basis Set: 6-31G*
  Basis Set:
  Charge       = 0
  Multiplicity = 1
  Basis Set: 6-31G*
  Basis Set:

    Orbital Energies (a.u.)
    -----------------------

    Doubly Occupied:

       1A    -20.551710     2A    -11.266690     3A    -11.216562
       4A    -11.214928     5A    -11.214154     6A    -11.209327
       7A    -11.206207     8A     -1.358484     9A     -1.083649
      10A     -1.030202    11A     -0.957201    12A     -0.876344
      13A     -0.808852    14A     -0.774898    15A     -0.691405
      16A     -0.659563    17A     -0.619645    18A     -0.607353
      19A     -0.586086    20A     -0.563431    21A     -0.545381
      22A     -0.521549    23A     -0.502805    24A     -0.494768
      25A     -0.479323    26A     -0.459889    27A     -0.447470
      28A     -0.441012    29A     -0.433628

  @DF-RHF Final Energy:  -310.20809506284235

   => Energetics <=

    Nuclear Repulsion Energy =            318.2845064141136504
    One-Electron Energy =               -1051.3401731285030110
    Two-Electron Energy =                 422.8475716515472413
    DFT Exchange-Correlation Energy =       0.0000000000000000
    Empirical Dispersion Energy =           0.0000000000000000
    PCM Polarization Energy =               0.0000000000000000
    EFP Energy =                            0.0000000000000000
    Total Energy =                       -310.2080950628421760
    Molecular point group: c1
  Basis Set: 6-31G*
  Basis Set:

  -Total Gradient:
     Atom            X                  Y                   Z
    ------   -----------------  -----------------  -----------------
       1        0.000001298924    -0.000003329046     0.000002785555
       2        0.000004688213    -0.000005022627     0.000003647759
       3       -0.000011140678    -0.000008355490    -0.000002637923
       4        0.000525023797     0.000416840946     0.000419398187
       5       -0.000001962148     0.000003627230    -0.000001225142
       6       -0.000010430584     0.000006230912     0.000002093865
       7       -0.000862855727    -0.000731256040    -0.000550506337
       8       -0.000022818725    -0.000025078668    -0.000007304563
       9       -0.000003952543     0.000000725310    -0.000003234512
      10        0.001014543141     0.001133205943     0.000093528392
      11       -0.000013603300     0.000006690502     0.000006327217
      12        0.000002738975     0.000017464594    -0.000008403865
      13       -0.000001085365    -0.000016240184    -0.000037072338
      14       -0.000613581939    -0.000781826902     0.000103331727
      15        0.000021382288    -0.000014650186    -0.000011440333
      16       -0.000032851462     0.000024345968     0.000002248995
      17       -0.000000678724    -0.000010902324     0.000003229294
      18       -0.000025282386     0.000001951947    -0.000016049738
      19        0.000001009026    -0.000002675750    -0.000001074569
      20        0.000025524689    -0.000013776164    -0.000002214066
      21        0.000004034535     0.000002030029     0.000004572392

  **** Optimization is complete! (in 7 steps) ****
    Final optimized geometry and variables:
    Molecular point group: c1

    Geometry (in Angstrom), charge = 0, multiplicity = 1:

    H           -2.710475566967     2.851521624214    -0.626715721048
    O           -1.983335161763     2.297405592174    -0.871951643664
    C           -1.877441051144     1.228920924904     0.033529120176
    C           -0.702163003935     0.364316854953    -0.389329895093
    H           -1.722681413957     1.599282986128     1.046186379971
    H           -2.793018086870     0.638945547397     0.038812277969
    C           -0.505674134809    -0.841824041917     0.534428411295
    H            0.180592937190     0.990377814260    -0.420905454541
    H           -0.879142548776     0.023980607372    -1.406102892644
    C            0.623475651498    -1.808235531947     0.135310008953
    H           -0.341418046092    -0.500980098599     1.555947067024
    H           -1.437380192687    -1.403339436046     0.554165110975
    C            2.038495428744    -1.469371950735     0.624653979740
    H            0.627013651221    -1.933563204284    -0.946114187348
    H            0.378932721146    -2.786734999657     0.541682968100
    C            2.682608613412    -0.208689773568     0.044868268664
    H            2.676364055268    -2.318023523409     0.388826787202
    H            2.026946256181    -1.397028459253     1.710469229002
    H            2.640702228129    -0.206097838815    -1.040680481675
    H            2.201783540405     0.695907811666     0.398552600838
    H            3.727632803716    -0.151953242553     0.334493188865

  Mulliken Charges: (a.u.)
   Center  Symbol    Alpha    Beta     Spin     Total
       1     H     0.28121  0.28121  0.00000  0.43758
       2     O     4.37195  4.37195  0.00000 -0.74390
       3     C     2.98997  2.98997  0.00000  0.02006
       4     C     3.16158  3.16158  0.00000 -0.32317
       5     H     0.43316  0.43316  0.00000  0.13369
       6     H     0.43297  0.43297  0.00000  0.13407
       7     C     3.16281  3.16281  0.00000 -0.32562
       8     H     0.41032  0.41032  0.00000  0.17937
       9     H     0.41540  0.41540  0.00000  0.16920
      10     C     3.15397  3.15397  0.00000 -0.30794
      11     H     0.42350  0.42350  0.00000  0.15301
      12     H     0.42193  0.42193  0.00000  0.15613
      13     C     3.15092  3.15092  0.00000 -0.30184
      14     H     0.42229  0.42229  0.00000  0.15542
      15     H     0.42081  0.42081  0.00000  0.15837
      16     C     3.24145  3.24145  0.00000 -0.48290
      17     H     0.42163  0.42163  0.00000  0.15673
      18     H     0.42392  0.42392  0.00000  0.15216
      19     H     0.42064  0.42064  0.00000  0.15871
      20     H     0.41969  0.41969  0.00000  0.16061
      21     H     0.41986  0.41986  0.00000  0.16028

   Total alpha = 29.00000, Total beta = 29.00000, Total charge = -0.00000
