                              Psi4 1.0.54 Driver

  ==> Input File <==

--------------------------------------------------------------------------
set {
	reference rhf
	basis cc-pvtz
}

set_num_threads( 4 )
memory 2 gb

molecule MOL {
0 1

O	 0.074770	 1.259872	 0.000487
C	 0.029490	 0.077183	 0.000078
C	 -1.232113	 -0.748027	 0.000015
O	 1.106773	 -0.690081	 -0.000204
C	 -2.501422	 0.088592	 -0.000052
H	 -1.188777	 -1.400384	 -0.865133
H	 -1.188857	 -1.400312	 0.865225
H	 -2.548170	 0.725504	 -0.873205
H	 -3.371613	 -0.556398	 -0.000040
H	 -2.548215	 0.725571	 0.873047
C	 1.884564	 -0.716993	 1.179609
H	 2.259373	 0.268857	 1.411672
H	 2.703376	 -1.389320	 0.981244
H	 1.300065	 -1.077019	 2.013267

	symmetry c1
}
set optking {
	frozen_dihedral = ("
		11 4 2 3
	")
}

ee,wfn = optimize('scf', return_wfn=True)
oeprop( wfn, 'DIPOLE', 'QUADRUPOLE', 'MULLIKEN_CHARGES')
f=open( 'psi4out.xyz', 'w' )
f.write( "14  " )
f.write( str(ee) + "\n" )
f.write( MOL.save_string_xyz() )
f.close()
--------------------------------------------------------------------------

    Molecular point group: c1
  Charge       = 0
  Multiplicity = 1
  Basis Set: CC-PVTZ
  Basis Set:
  @DF-RHF Final Energy:  -305.97050134244438
    Total Energy =                       -305.9705013424441518
    Molecular point group: c1
  Basis Set: CC-PVTZ
  Basis Set:
  Basis Set: CC-PVTZ
  Basis Set:
  @DF-RHF Final Energy:  -305.97034998020536
    Total Energy =                       -305.9703499802050146
  Basis Set: CC-PVTZ
  Basis Set:
  Basis Set: CC-PVTZ
  Basis Set:
  @DF-RHF Final Energy:  -305.97068301558681
    Total Energy =                       -305.9706830155867010
  Basis Set: CC-PVTZ
  Basis Set:
  Basis Set: CC-PVTZ
  Basis Set:
  @DF-RHF Final Energy:  -305.97137964790886
    Total Energy =                       -305.9713796479087478
  Basis Set: CC-PVTZ
  Basis Set:
  Basis Set: CC-PVTZ
  Basis Set:
  @DF-RHF Final Energy:  -305.97140012825821
    Total Energy =                       -305.9714001282580398
  Basis Set: CC-PVTZ
  Basis Set:
  Basis Set: CC-PVTZ
  Basis Set:
  @DF-RHF Final Energy:  -305.97140189752071
    Total Energy =                       -305.9714018975208774
  Basis Set: CC-PVTZ
  Basis Set:
  Charge       = 0
  Multiplicity = 1
  Basis Set: CC-PVTZ
  Basis Set:

    Orbital Energies (a.u.)
    -----------------------

    Doubly Occupied:

       1A    -20.579975     2A    -20.545306     3A    -11.368440
       4A    -11.286692     5A    -11.240990     6A    -11.217392
       7A     -1.463829     8A     -1.369449     9A     -1.064668
      10A     -0.976454    11A     -0.889567    12A     -0.767453
      13A     -0.702677    14A     -0.680198    15A     -0.674422
      16A     -0.620489    17A     -0.616517    18A     -0.556648
      19A     -0.543700    20A     -0.524706    21A     -0.511313
      22A     -0.497381    23A     -0.458621    24A     -0.440339

  @DF-RHF Final Energy:  -305.97140179783332

   => Energetics <=

    Nuclear Repulsion Energy =            247.0921151636615321
    One-Electron Energy =                -906.9325841664751806
    Two-Electron Energy =                 353.8690672049804675
    DFT Exchange-Correlation Energy =       0.0000000000000000
    Empirical Dispersion Energy =           0.0000000000000000
    PCM Polarization Energy =               0.0000000000000000
    EFP Energy =                            0.0000000000000000
    Total Energy =                       -305.9714017978331526
    Molecular point group: c1
  Basis Set: CC-PVTZ
  Basis Set:

  -Total Gradient:
     Atom            X                  Y                   Z
    ------   -----------------  -----------------  -----------------
       1        0.000010705722     0.000154541154    -0.000053599612
       2       -0.001652324390    -0.001634866301    -0.006332859737
       3        0.000118142582    -0.000437157247     0.005025985947
       4        0.004443549384     0.006378062882    -0.000241812935
       5       -0.000003980235    -0.000008076326    -0.000007590905
       6        0.000001293368    -0.000000878727    -0.000018540899
       7        0.000003161588     0.000005565368    -0.000012152739
       8        0.000007400158    -0.000004179390     0.000003291389
       9        0.000005131207    -0.000002045151     0.000002193882
      10       -0.000000480830     0.000005523057     0.000006284271
      11       -0.002896336946    -0.004454120488     0.001622291148
      12       -0.000009281466     0.000006805331    -0.000007933201
      13       -0.000006802772     0.000000410827     0.000004571892
      14       -0.000020177368    -0.000009584987     0.000009871497

  **** Optimization is complete! (in 7 steps) ****
    Final optimized geometry and variables:
    Molecular point group: c1

    Geometry (in Angstrom), charge = 0, multiplicity = 1:

    O            0.171708544987     1.374995730810    -0.040863022486
    C            0.103155753968     0.208869256002    -0.188860110872
    C           -1.174645393086    -0.586789863915    -0.221774349954
    O            1.199239131358    -0.565662854703    -0.300702376776
    C           -2.433463027841     0.264042439887    -0.187664988021
    H           -1.144184208477    -1.221615879787    -1.100403393631
    H           -1.131514721120    -1.262810281921     0.627505894043
    H           -2.476535604198     0.926445712979    -1.042202614600
    H           -3.312654620845    -0.368401433999    -0.201833596268
    H           -2.465838429183     0.876182026741     0.703482522017
    C            2.003560280713    -0.691331370196     0.852022170321
    H            2.345587398110     0.276664880956     1.190473173650
    H            2.849027267561    -1.299885522884     0.575459576713
    H            1.455000352374    -1.183787538220     1.647376214513

  Mulliken Charges: (a.u.)
   Center  Symbol    Alpha    Beta     Spin     Total
       1     O     4.17433  4.17433  0.00000 -0.34865
       2     C     2.79220  2.79220  0.00000  0.41561
       3     C     3.09963  3.09963  0.00000 -0.19926
       4     O     4.16891  4.16891  0.00000 -0.33782
       5     C     3.13912  3.13912  0.00000 -0.27824
       6     H     0.43867  0.43867  0.00000  0.12266
       7     H     0.44615  0.44615  0.00000  0.10771
       8     H     0.44772  0.44772  0.00000  0.10456
       9     H     0.45045  0.45045  0.00000  0.09910
      10     H     0.44780  0.44780  0.00000  0.10441
      11     C     3.03418  3.03418  0.00000 -0.06835
      12     H     0.44929  0.44929  0.00000  0.10143
      13     H     0.44423  0.44423  0.00000  0.11154
      14     H     0.46735  0.46735  0.00000  0.06531

   Total alpha = 24.00000, Total beta = 24.00000, Total charge =  0.00000

*** Psi4 exiting successfully. Buy a developer a beer!
