                              Psi4 1.0.54 Driver

  ==> Input File <==

--------------------------------------------------------------------------
set {
	reference rhf
	basis cc-pvtz
}

set_num_threads( 4 )
memory 2 gb

molecule MOL {
0 1

H	 -3.294565	 0.569785	 0.000000
C	 -2.246225	 0.343737	 0.000000
C	 -1.809462	 -0.973484	 0.000000
C	 -1.312577	 1.353775	 0.000000
H	 -2.523539	 -1.775124	 0.000000
C	 -0.467257	 -1.267606	 0.000000
H	 -1.631287	 2.379013	 0.000000
C	 0.046966	 1.074396	 0.000000
H	 -0.119372	 -2.281828	 0.000000
C	 0.471772	 -0.241514	 0.000000
H	 0.748162	 1.882966	 0.000000
O	 1.760432	 -0.625184	 0.000000
C	 2.601036	 -0.244605	 1.047236
H	 2.690492	 0.833959	 1.113606
H	 3.569926	 -0.664951	 0.828309
H	 2.253510	 -0.633763	 1.997756

	symmetry c1
}
set optking {
	frozen_dihedral = ("
		13 12 10 8
	")
}

ee,wfn = optimize('scf', return_wfn=True)
oeprop( wfn, 'DIPOLE', 'QUADRUPOLE', 'MULLIKEN_CHARGES')
f=open( 'psi4out.xyz', 'w' )
f.write( "16  " )
f.write( str(ee) + "\n" )
f.write( MOL.save_string_xyz() )
f.close()
--------------------------------------------------------------------------

    Molecular point group: c1
  Charge       = 0
  Multiplicity = 1
  Basis Set: CC-PVTZ
  Basis Set:
  @DF-RHF Final Energy:  -344.69987670600375
    Total Energy =                       -344.6998767060040905
    Molecular point group: c1
  Basis Set: CC-PVTZ
  Basis Set:
  Basis Set: CC-PVTZ
  Basis Set:
  @DF-RHF Final Energy:  -344.57179287616049
    Total Energy =                       -344.5717928761603730
  Basis Set: CC-PVTZ
  Basis Set:
  Basis Set: CC-PVTZ
  Basis Set:
  @DF-RHF Final Energy:  -344.68041992455102
    Total Energy =                       -344.6804199245507903
  Basis Set: CC-PVTZ
  Basis Set:
  Basis Set: CC-PVTZ
  Basis Set:
  @DF-RHF Final Energy:  -344.70070660501040
    Total Energy =                       -344.7007066050103958
  Basis Set: CC-PVTZ
  Basis Set:
  Basis Set: CC-PVTZ
  Basis Set:
  @DF-RHF Final Energy:  -344.70093690128510
    Total Energy =                       -344.7009369012851039
  Basis Set: CC-PVTZ
  Basis Set:
  Basis Set: CC-PVTZ
  Basis Set:
  @DF-RHF Final Energy:  -344.70099905343034
    Total Energy =                       -344.7009990534304507
  Basis Set: CC-PVTZ
  Basis Set:
  Basis Set: CC-PVTZ
  Basis Set:
  @DF-RHF Final Energy:  -344.70100591577005
    Total Energy =                       -344.7010059157703381
  Basis Set: CC-PVTZ
  Basis Set:
  Charge       = 0
  Multiplicity = 1
  Basis Set: CC-PVTZ
  Basis Set:

    Orbital Energies (a.u.)
    -----------------------

    Doubly Occupied:

       1A    -20.569420     2A    -11.287529     3A    -11.275095
       4A    -11.232188     5A    -11.231113     6A    -11.224540
       7A    -11.222375     8A    -11.221594     9A     -1.407631
      10A     -1.152577    11A     -1.022369    12A     -1.018467
      13A     -0.937588    14A     -0.837859    15A     -0.809845
      16A     -0.720116    17A     -0.669555    18A     -0.667141
      19A     -0.644706    20A     -0.616781    21A     -0.597331
      22A     -0.586347    23A     -0.532384    24A     -0.512926
      25A     -0.508862    26A     -0.487194    27A     -0.446420
      28A     -0.340194    29A     -0.321370

  @DF-RHF Final Energy:  -344.70100647349881

   => Energetics <=

    Nuclear Repulsion Energy =            348.6281281749664345
    One-Electron Energy =               -1158.4552259910019529
    Two-Electron Energy =                 465.1260913425367107
    DFT Exchange-Correlation Energy =       0.0000000000000000
    Empirical Dispersion Energy =           0.0000000000000000
    PCM Polarization Energy =               0.0000000000000000
    EFP Energy =                            0.0000000000000000
    Total Energy =                       -344.7010064734988646
    Molecular point group: c1
  Basis Set: CC-PVTZ
  Basis Set:

  -Total Gradient:
     Atom            X                  Y                   Z
    ------   -----------------  -----------------  -----------------
       1        0.000004579013    -0.000011616906    -0.000004190007
       2       -0.000002159901     0.000075099833     0.000083210751
       3        0.000073410389    -0.000024436849    -0.000054999001
       4       -0.000052268164    -0.000037679612    -0.000060784365
       5       -0.000013917164     0.000010650164     0.000011600449
       6       -0.000022167566    -0.000014954767    -0.000009176801
       7       -0.000002492964    -0.000000324436     0.000007902884
       8        0.000001337791     0.000056048852    -0.000203339424
       9        0.000006211042     0.000003385127     0.000009074647
      10       -0.000040307111    -0.000178396490     0.000368476624
      11        0.000007025619    -0.000013956965     0.000001036196
      12        0.000002491343     0.000345249339    -0.000243289073
      13        0.000018591415    -0.000218497556     0.000112909364
      14        0.000008139900    -0.000004558052    -0.000014967072
      15       -0.000003178946    -0.000000986232    -0.000001172632
      16        0.000014705307     0.000014974549    -0.000002292543

  **** Optimization is complete! (in 8 steps) ****
    Final optimized geometry and variables:
    Molecular point group: c1

    Geometry (in Angstrom), charge = 0, multiplicity = 1:

    H           -3.297387869426    -0.429878138869     0.199381893074
    C           -2.238468642223    -0.301588183123     0.085473221053
    C           -1.455791097943    -1.338728159170    -0.385790353157
    C           -1.644019476936     0.904852712798     0.402082543359
    H           -1.906566973566    -2.279355499169    -0.639361868215
    C           -0.091661735110    -1.177032737898    -0.530585108224
    H           -2.243209255895     1.720582918674     0.759758150868
    C           -0.281145260287     1.078880436962     0.253240433026
    H            0.526137069454    -1.973161557712    -0.897346316123
    C            0.497250747210     0.032016270963    -0.209110105300
    H            0.170195350858     2.024275975470     0.481937517151
    O            1.831872851022     0.165166314931    -0.410871325834
    C            2.622281994131     0.509978077115     0.694710854264
    H            2.404787342145     1.509219196150     1.052002213262
    H            3.649693178608     0.473703505988     0.365981279073
    H            2.480382860452    -0.194407455177     1.507100523467

  Mulliken Charges: (a.u.)
   Center  Symbol    Alpha    Beta     Spin     Total
       1     H     0.42372  0.42372  0.00000  0.15256
       2     C     3.09086  3.09086  0.00000 -0.18172
       3     C     3.06371  3.06371  0.00000 -0.12742
       4     C     3.06646  3.06646  0.00000 -0.13292
       5     H     0.42229  0.42229  0.00000  0.15543
       6     C     3.11255  3.11255  0.00000 -0.22509
       7     H     0.42246  0.42246  0.00000  0.15507
       8     C     3.11828  3.11828  0.00000 -0.23656
       9     H     0.41789  0.41789  0.00000  0.16422
      10     C     2.85588  2.85588  0.00000  0.28823
      11     H     0.42227  0.42227  0.00000  0.15545
      12     O     4.17407  4.17407  0.00000 -0.34813
      13     C     3.03621  3.03621  0.00000 -0.07242
      14     H     0.46465  0.46465  0.00000  0.07069
      15     H     0.44389  0.44389  0.00000  0.11221
      16     H     0.46481  0.46481  0.00000  0.07039

   Total alpha = 29.00000, Total beta = 29.00000, Total charge =  0.00000

*** Psi4 exiting successfully. Buy a developer a beer!
