  ==> Input File <==

--------------------------------------------------------------------------
set {
	reference rhf
	basis cc-pvtz
}

set_num_threads( 4 )
memory 2 gb

molecule MOL {
0 1

H	 -0.238742	 -0.968373	 -0.858890
N	 -0.625934	 -0.663929	 -0.000707
C	 -1.978635	 -0.158664	 0.001017
C	 0.142876	 -0.746489	 1.107759
H	 -2.519057	 -0.493535	 -0.876362
H	 -1.938890	 0.917202	 -0.004137
H	 -2.514266	 -0.485137	 0.884506
C	 1.526879	 -1.311031	 0.873988
O	 -0.231228	 -0.409768	 2.192074
H	 2.074180	 -0.692216	 0.172469
H	 2.054910	 -1.342479	 1.812743
H	 1.463558	 -2.311263	 0.461501

	symmetry c1
}
set optking {
	frozen_dihedral = ("
		4 2 3 5
	")
}

ee = optimize('scf')
oeprop('DIPOLE', 'QUADRUPOLE', 'MULLIKEN_CHARGES')
f=open( 'psi4out.xyz', 'w' )
f.write( "12  " )
f.write( str(ee) + "\n" )
f.write( MOL.save_string_xyz() )
f.close()
--------------------------------------------------------------------------

    Molecular point group: c1
  Charge       = 0
  Multiplicity = 1
  Basis Set: CC-PVTZ
  Basis Set:
  @DF-RHF Final Energy:  -247.10037528359103
    Total Energy =                       -247.1003752835911200
    Molecular point group: c1
  Basis Set: CC-PVTZ
  Basis Set:
  Basis Set: CC-PVTZ
  Basis Set:
  @DF-RHF Final Energy:  -247.10102483228150
    Total Energy =                       -247.1010248322813254
  Basis Set: CC-PVTZ
  Basis Set:
  Basis Set: CC-PVTZ
  Basis Set:
  @DF-RHF Final Energy:  -247.10084063663541
    Total Energy =                       -247.1008406366353256
  Basis Set: CC-PVTZ
  Basis Set:
  Basis Set: CC-PVTZ
  Basis Set:
  @DF-RHF Final Energy:  -247.10119539416252
    Total Energy =                       -247.1011953941625734
  Basis Set: CC-PVTZ
  Basis Set:
  @DF-RHF Final Energy:  -247.10120705347725
    Total Energy =                       -247.1012070534771965
  @DF-RHF Final Energy:  -247.10123349379020
    Total Energy =                       -247.1012334937901755
  @DF-RHF Final Energy:  -247.10124232551146
    Total Energy =                       -247.1012423255114072
  @DF-RHF Final Energy:  -247.10124611699933
    Total Energy =                       -247.1012461169991070
  @DF-RHF Final Energy:  -247.10124855498128
    Total Energy =                       -247.1012485549813960
  @DF-RHF Final Energy:  -247.10125958568375
    Total Energy =                       -247.1012595856834650
  @DF-RHF Final Energy:  -247.10127527587224
    Total Energy =                       -247.1012752758722399
  @DF-RHF Final Energy:  -247.10086283049802
    Total Energy =                       -247.1008628304980448
  @DF-RHF Final Energy:  -247.10129187433125
    Total Energy =                       -247.1012918743313662
  @DF-RHF Final Energy:  -247.10130594709247
    Total Energy =                       -247.1013059470923849
  @DF-RHF Final Energy:  -247.10131414005602
    Total Energy =                       -247.1013141400560471
  @DF-RHF Final Energy:  -247.10132961390272
    Total Energy =                       -247.1013296139026920
  @DF-RHF Final Energy:  -247.10133673809025
    Total Energy =                       -247.1013367380901400
  @DF-RHF Final Energy:  -247.10134842417929
    Total Energy =                       -247.1013484241790366
  @DF-RHF Final Energy:  -247.10135993634540
    Total Energy =                       -247.1013599363452045
  @DF-RHF Final Energy:  -247.10137215828763
    Total Energy =                       -247.1013721582875746
  @DF-RHF Final Energy:  -247.10138571894265
    Total Energy =                       -247.1013857189427654
  Basis Set: CC-PVTZ
  Basis Set:
  @DF-RHF Final Energy:  -247.10140938367670
    Total Energy =                       -247.1014093836766392
  Basis Set: CC-PVTZ
  Basis Set:
  Basis Set: CC-PVTZ
  Basis Set:
  @DF-RHF Final Energy:  -247.10141423453717
    Total Energy =                       -247.1014142345369464
  Basis Set: CC-PVTZ
  Basis Set:
  Basis Set: CC-PVTZ
  Basis Set:
  @DF-RHF Final Energy:  -247.10141761390642
    Total Energy =                       -247.1014176139063920
  Basis Set: CC-PVTZ
  Basis Set:
  Charge       = 0
  Multiplicity = 1
  Basis Set: CC-PVTZ
  Basis Set:

    Orbital Energies (a.u.)
    -----------------------

    Doubly Occupied:

       1A    -20.504936     2A    -15.576506     3A    -11.335732
       4A    -11.253796     5A    -11.228420     6A     -1.387876
       7A     -1.231551     8A     -1.016149     9A     -0.933983
      10A     -0.789753    11A     -0.690783    12A     -0.651922
      13A     -0.635835    14A     -0.585952    15A     -0.582981
      16A     -0.555764    17A     -0.547655    18A     -0.506462
      19A     -0.417083    20A     -0.390843

  @DF-RHF Final Energy:  -247.10141834027280

   => Energetics <=

    Nuclear Repulsion Energy =            181.8320537370307761
    One-Electron Energy =                -696.2189775261564364
    Two-Electron Energy =                 267.2855054488529163
    DFT Exchange-Correlation Energy =       0.0000000000000000
    Empirical Dispersion Energy =           0.0000000000000000
    PCM Polarization Energy =               0.0000000000000000
    EFP Energy =                            0.0000000000000000
    Total Energy =                       -247.1014183402726871
    Molecular point group: c1
  Basis Set: CC-PVTZ
  Basis Set:

  -Total Gradient:
     Atom            X                  Y                   Z
    ------   -----------------  -----------------  -----------------
       1       -0.000001387383     0.000000408304    -0.000001823703
       2        0.000109506045     0.000208735837    -0.000076392156
       3        0.000038375168     0.000105193525    -0.000139967956
       4       -0.000075323798    -0.000154212487     0.000067073068
       5       -0.000064884320    -0.000140097654     0.000140222200
       6       -0.000000634918    -0.000001201651    -0.000000599771
       7        0.000002695152    -0.000001207689    -0.000002211862
       8       -0.000010139534    -0.000004156968     0.000009021091
       9       -0.000003269353    -0.000020631303     0.000011898606
      10       -0.000000662026     0.000000242039    -0.000018334248
      11        0.000008647552     0.000015837977     0.000003247657
      12       -0.000002922581    -0.000008909928     0.000007867077

  **** Optimization is complete! (in 25 steps) ****
    Final optimized geometry and variables:
    Molecular point group: c1

    Geometry (in Angstrom), charge = 0, multiplicity = 1:

    H           -0.098648903239    -0.541156484700    -1.639638241863
    N           -0.443085633927    -0.164607971955    -0.792884410411
    C           -1.750607850115     0.449769972339    -0.789769244219
    C            0.393641569540    -0.078116817845     0.262118384298
    H           -2.363902170314    -0.022655493695    -1.544566144672
    H           -1.701243208144     1.513649150406    -0.992086955855
    H           -2.212148736989     0.310164009726     0.174812948177
    C            1.765643248970    -0.681425135356     0.063314493830
    O            0.083853090061     0.450598265479     1.289241608154
    H            2.461281662464     0.116434883143    -0.168347401875
    H            2.078528087706    -1.140576979769     0.988716797698
    H            1.795664225560    -1.411657822932    -0.734703619383

  Mulliken Charges: (a.u.)
   Center  Symbol    Alpha    Beta     Spin     Total
       1     H     0.41106  0.41106  0.00000  0.17789
       2     N     3.61486  3.61486  0.00000 -0.22971
       3     C     3.07859  3.07859  0.00000 -0.15719
       4     C     2.84152  2.84152  0.00000  0.31697
       5     H     0.45539  0.45539  0.00000  0.08923
       6     H     0.45664  0.45664  0.00000  0.08672
       7     H     0.43834  0.43834  0.00000  0.12332
       8     C     3.14566  3.14566  0.00000 -0.29131
       9     O     4.21935  4.21935  0.00000 -0.43870
      10     H     0.44401  0.44401  0.00000  0.11199
      11     H     0.43671  0.43671  0.00000  0.12659
      12     H     0.45789  0.45789  0.00000  0.08422

   Total alpha = 20.00000, Total beta = 20.00000, Total charge = -0.00000
