  ==> Input File <==

--------------------------------------------------------------------------
set {
	reference rhf
	basis cc-pvtz
}

set_num_threads( 4 )
memory 2 gb

molecule MOL {
0 1

H	 -3.144994	 -1.202467	 -0.018751
O	 -2.321472	 -0.864941	 -0.318626
C	 -2.021813	 0.336996	 0.342658
C	 -0.669613	 0.837286	 -0.127252
H	 -2.780861	 1.084746	 0.127159
H	 -2.006390	 0.184138	 1.420053
C	 0.490865	 -0.082543	 0.241244
H	 -0.708709	 0.967192	 -1.204587
H	 -0.507562	 1.822272	 0.303070
C	 1.839800	 0.429565	 -0.255472
H	 0.305636	 -1.070211	 -0.165276
H	 0.527397	 -0.195943	 1.322876
C	 2.055877	 1.913036	 0.024548
H	 2.634828	 -0.143955	 0.213259
H	 1.924369	 0.249321	 -1.324139
H	 2.012234	 2.119694	 1.088646
H	 3.022092	 2.245369	 -0.337791
H	 1.295688	 2.517551	 -0.459311

	symmetry c1
}
set optking {
	frozen_dihedral = ("
		14 10 7 11
	")
}

ee = optimize('scf')
oeprop('DIPOLE', 'QUADRUPOLE', 'MULLIKEN_CHARGES')
f=open( 'psi4out.xyz', 'w' )
f.write( "18  " )
f.write( str(ee) + "\n" )
f.write( MOL.save_string_xyz() )
f.close()
--------------------------------------------------------------------------

    Molecular point group: c1
  Charge       = 0
  Multiplicity = 1
  Basis Set: CC-PVTZ
  Basis Set:
  @DF-RHF Final Energy:  -271.28233246149011
    Total Energy =                       -271.2823324614900571
    Molecular point group: c1
  Basis Set: CC-PVTZ
  Basis Set:
  Basis Set: CC-PVTZ
  Basis Set:
  @DF-RHF Final Energy:  -271.28311858983329
    Total Energy =                       -271.2831185898335775
  Basis Set: CC-PVTZ
  Basis Set:
  Basis Set: CC-PVTZ
  Basis Set:
  @DF-RHF Final Energy:  -271.28394497350433
    Total Energy =                       -271.2839449735043331
  Basis Set: CC-PVTZ
  Basis Set:
  Basis Set: CC-PVTZ
  Basis Set:
  @DF-RHF Final Energy:  -271.28401412171729
    Total Energy =                       -271.2840141217172913
  Basis Set: CC-PVTZ
  Basis Set:
  Basis Set: CC-PVTZ
  Basis Set:
  @DF-RHF Final Energy:  -271.28401945707446
    Total Energy =                       -271.2840194570738959
  Basis Set: CC-PVTZ
  Basis Set:
  Charge       = 0
  Multiplicity = 1
  Basis Set: CC-PVTZ
  Basis Set:

    Orbital Energies (a.u.)
    -----------------------

    Doubly Occupied:

       1A    -20.546269     2A    -11.265834     3A    -11.209721
       4A    -11.209466     5A    -11.205156     6A    -11.203227
       7A     -1.364152     8A     -1.075974     9A     -1.006885
      10A     -0.916147    11A     -0.831676    12A     -0.769448
      13A     -0.708873    14A     -0.635751    15A     -0.624533
      16A     -0.605213    17A     -0.567933    18A     -0.552288
      19A     -0.526483    20A     -0.503036    21A     -0.494943
      22A     -0.462320    23A     -0.457338    24A     -0.449944
      25A     -0.429415

  @DF-RHF Final Energy:  -271.28402023786236

   => Energetics <=

    Nuclear Repulsion Energy =            252.1835059009765416
    One-Electron Energy =                -867.6909996246835135
    Two-Electron Energy =                 344.2234734858448633
    DFT Exchange-Correlation Energy =       0.0000000000000000
    Empirical Dispersion Energy =           0.0000000000000000
    PCM Polarization Energy =               0.0000000000000000
    EFP Energy =                            0.0000000000000000
    Total Energy =                       -271.2840202378620802
    Molecular point group: c1
  Basis Set: CC-PVTZ
  Basis Set:

  -Total Gradient:
     Atom            X                  Y                   Z
    ------   -----------------  -----------------  -----------------
       1       -0.000005224484    -0.000003338687    -0.000008755839
       2       -0.000050549062     0.000030413687    -0.000014182370
       3        0.000052377271    -0.000051925932     0.000075425205
       4        0.000008283405     0.000020140497    -0.000078295250
       5        0.000011998062    -0.000021616045    -0.000017204781
       6       -0.000022283743     0.000009517941     0.000020724977
       7        0.002320220109    -0.001383794202     0.004461101754
       8        0.000009443670     0.000019977679    -0.000022751771
       9        0.000001913499    -0.000001897813    -0.000002020327
      10       -0.000764872471    -0.002840223341    -0.004224908911
      11       -0.001810445825     0.001626589706    -0.003092586596
      12        0.000011094004    -0.000016741566     0.000008848733
      13       -0.000022225016    -0.000003376003     0.000007057518
      14        0.000267003310     0.002621236673     0.002888944102
      15       -0.000004323315    -0.000008576723    -0.000002538839
      16       -0.000003846923     0.000005060230     0.000003467116
      17       -0.000000284424    -0.000008326785     0.000002802320
      18        0.000001721924     0.000006880681    -0.000005127038

  **** Optimization is complete! (in 6 steps) ****
    Final optimized geometry and variables:
    Molecular point group: c1

    Geometry (in Angstrom), charge = 0, multiplicity = 1:

    H           -2.944251684592    -1.692906988837    -0.082990194020
    O           -2.133462622952    -1.306271775556    -0.356862721495
    C           -1.895176684489    -0.122789475539     0.360417208954
    C           -0.557673861631     0.455584756159    -0.061660889511
    H           -2.681821486462     0.600845022382     0.162641280456
    H           -1.891678328128    -0.321172128395     1.430586849835
    C            0.629338126470    -0.433414929574     0.310919622495
    H           -0.578992830408     0.612897376454    -1.136436720519
    H           -0.461308948412     1.433053491093     0.399113322910
    C            1.977416401787     0.034051605196    -0.246730647928
    H            0.422397368924    -1.423545993359    -0.075808051205
    H            0.689548067483    -0.510984194478     1.393687013086
    C            2.309041237784     1.503892268850     0.009694712010
    H            2.758091990654    -0.560185136994     0.218156870318
    H            2.017633930691    -0.162436299533    -1.313615281630
    H            2.246827588672     1.740876785268     1.067530585168
    H            3.317666240207     1.729166851336    -0.317689826457
    H            1.639621342366     2.171898920104    -0.518466201280

  Mulliken Charges: (a.u.)
   Center  Symbol    Alpha    Beta     Spin     Total
       1     H     0.39563  0.39563  0.00000  0.20874
       2     O     4.19874  4.19874  0.00000 -0.39748
       3     C     2.97293  2.97293  0.00000  0.05414
       4     C     3.09443  3.09443  0.00000 -0.18886
       5     H     0.46491  0.46491  0.00000  0.07018
       6     H     0.47377  0.47377  0.00000  0.05246
       7     C     3.09602  3.09602  0.00000 -0.19204
       8     H     0.45168  0.45168  0.00000  0.09663
       9     H     0.45188  0.45188  0.00000  0.09625
      10     C     3.09023  3.09023  0.00000 -0.18045
      11     H     0.44080  0.44080  0.00000  0.11839
      12     H     0.45663  0.45663  0.00000  0.08674
      13     C     3.15625  3.15625  0.00000 -0.31251
      14     H     0.45055  0.45055  0.00000  0.09891
      15     H     0.45161  0.45161  0.00000  0.09677
      16     H     0.45522  0.45522  0.00000  0.08956
      17     H     0.44593  0.44593  0.00000  0.10815
      18     H     0.45279  0.45279  0.00000  0.09443

   Total alpha = 25.00000, Total beta = 25.00000, Total charge = -0.00000
