  ==> Input File <==

--------------------------------------------------------------------------
set {
	reference rhf
	basis 6-31G*
}

set_num_threads( 4 )
memory 2 gb

molecule MOL {
0 1

H	 1.136379	 0.211822	 1.465562
C	 1.135357	 0.094285	 0.374742
C	 0.065331	 0.871482	 -0.349150
O	 1.941633	 -0.601957	 -0.151457
C	 -1.253202	 0.923588	 0.435857
H	 -0.074004	 0.430108	 -1.329297
H	 0.440784	 1.884412	 -0.487600
C	 -1.934504	 -0.439412	 0.564248
H	 -1.922976	 1.617538	 -0.061986
H	 -1.068742	 1.337159	 1.425086
H	 -2.159289	 -0.854823	 -0.413214
H	 -2.866590	 -0.354883	 1.113235
H	 -1.307629	 -1.155343	 1.087565

	symmetry c1
}
set optking {
	frozen_dihedral = ("
		6 3 2 4
	")
}

ee = optimize('scf')
oeprop('DIPOLE', 'QUADRUPOLE', 'MULLIKEN_CHARGES')
f=open( 'psi4out.xyz', 'w' )
f.write( "13  " )
f.write( str(ee) + "\n" )
f.write( MOL.save_string_xyz() )
f.close()
--------------------------------------------------------------------------

    Molecular point group: c1
  Charge       = 0
  Multiplicity = 1
  Basis Set: 6-31G*
  Basis Set:
  @DF-RHF Final Energy:  -230.98435382689775
    Total Energy =                       -230.9843538268978023
    Molecular point group: c1
  Basis Set: 6-31G*
  Basis Set:
  Basis Set: 6-31G*
  Basis Set:
  @DF-RHF Final Energy:  -230.98318866168944
    Total Energy =                       -230.9831886616895815
  Basis Set: 6-31G*
  Basis Set:
  Basis Set: 6-31G*
  Basis Set:
  @DF-RHF Final Energy:  -230.98442228276730
    Total Energy =                       -230.9844222827672411
  Basis Set: 6-31G*
  Basis Set:
  Basis Set: 6-31G*
  Basis Set:
  @DF-RHF Final Energy:  -230.98440257766654
    Total Energy =                       -230.9844025776664864
  Basis Set: 6-31G*
  Basis Set:
  Basis Set: 6-31G*
  Basis Set:
  @DF-RHF Final Energy:  -230.98439975011573
    Total Energy =                       -230.9843997501155286
  Basis Set: 6-31G*
  Basis Set:
  Basis Set: 6-31G*
  Basis Set:
  @DF-RHF Final Energy:  -230.98443349999690
    Total Energy =                       -230.9844334999969533
  Basis Set: 6-31G*
  Basis Set:
  Charge       = 0
  Multiplicity = 1
  Basis Set: 6-31G*
  Basis Set:

    Orbital Energies (a.u.)
    -----------------------

    Doubly Occupied:

       1A    -20.562673     2A    -11.327566     3A    -11.238010
       4A    -11.236131     5A    -11.223257     6A     -1.402996
       7A     -1.087553     8A     -0.972879     9A     -0.848370
      10A     -0.790778    11A     -0.660952    12A     -0.648470
      13A     -0.633221    14A     -0.593942    15A     -0.562996
      16A     -0.530695    17A     -0.508294    18A     -0.493305
      19A     -0.482090    20A     -0.410545

  @DF-RHF Final Energy:  -230.98443353266853

   => Energetics <=

    Nuclear Repulsion Energy =            173.1730081955378466
    One-Electron Energy =                -655.8854370710644162
    Two-Electron Energy =                 251.7279953428580654
    DFT Exchange-Correlation Energy =       0.0000000000000000
    Empirical Dispersion Energy =           0.0000000000000000
    PCM Polarization Energy =               0.0000000000000000
    EFP Energy =                            0.0000000000000000
    Total Energy =                       -230.9844335326685325
    Molecular point group: c1
  Basis Set: 6-31G*
  Basis Set:

  -Total Gradient:
     Atom            X                  Y                   Z
    ------   -----------------  -----------------  -----------------
       1        0.000005184395    -0.000001962441     0.000001048935
       2       -0.000943971169    -0.001179606943     0.000165760295
       3        0.000994038675     0.000991085482    -0.000441745552
       4        0.000562198965     0.000728192808    -0.000055941903
       5       -0.000003682448     0.000000259277     0.000005028015
       6       -0.000612934566    -0.000539661264     0.000329090738
       7       -0.000003340145     0.000001896207     0.000000880835
       8       -0.000000794169     0.000003948305    -0.000006109389
       9       -0.000003726632     0.000000051856     0.000004436673
      10        0.000008079677     0.000000249475    -0.000003471998
      11        0.000005649055    -0.000004298430     0.000001029229
      12       -0.000004268116    -0.000001116647    -0.000003806087
      13       -0.000002433529     0.000000962319     0.000003800211

  **** Optimization is complete! (in 7 steps) ****
    Final optimized geometry and variables:
    Molecular point group: c1

    Geometry (in Angstrom), charge = 0, multiplicity = 1:

    H            1.177569651068     0.068949248385     1.290295294138
    C            1.150995516596    -0.060398815259     0.201190747488
    C            0.071305540334     0.714056367656    -0.515884050850
    O            1.957582467626    -0.745889405805    -0.338046548206
    C           -1.248506198422     0.771621750554     0.260723534553
    H           -0.065500712157     0.274661910389    -1.497705412397
    H            0.455305688922     1.723218221821    -0.659984152431
    C           -1.932513602071    -0.590435442779     0.387023530380
    H           -1.916464077029     1.465784604043    -0.239307647501
    H           -1.068082100501     1.184872394032     1.250838954168
    H           -2.152806193839    -1.006811187473    -0.591238028617
    H           -2.867176524269    -0.506515513080     0.931562489845
    H           -1.308971556867    -1.306696350089     0.914968455681

  Mulliken Charges: (a.u.)
   Center  Symbol    Alpha    Beta     Spin     Total
       1     H     0.43158  0.43158  0.00000  0.13684
       2     C     2.83247  2.83247  0.00000  0.33505
       3     C     3.20810  3.20810  0.00000 -0.41619
       4     O     4.23819  4.23819  0.00000 -0.47637
       5     C     3.16577  3.16577  0.00000 -0.33153
       6     H     0.39933  0.39933  0.00000  0.20134
       7     H     0.40286  0.40286  0.00000  0.19429
       8     C     3.24274  3.24274  0.00000 -0.48548
       9     H     0.41182  0.41182  0.00000  0.17635
      10     H     0.41880  0.41880  0.00000  0.16239
      11     H     0.41577  0.41577  0.00000  0.16845
      12     H     0.41445  0.41445  0.00000  0.17110
      13     H     0.41812  0.41812  0.00000  0.16375

   Total alpha = 20.00000, Total beta = 20.00000, Total charge = -0.00000
