                              Psi4 1.0.54 Driver

  ==> Input File <==

--------------------------------------------------------------------------
set {
	reference rhf
	basis cc-pvtz
}

set_num_threads( 4 )
memory 2 gb

molecule MOL {
0 1

H	 3.164350	 1.208900	 -0.841562
O	 2.241092	 1.086397	 -0.679434
C	 2.076458	 -0.067370	 -0.038225
C	 0.626018	 -0.337582	 0.258241
O	 2.988529	 -0.764581	 0.244382
C	 -0.267326	 0.883135	 0.076490
H	 0.325620	 -1.161483	 -0.378003
H	 0.574537	 -0.713685	 1.275261
C	 -1.726822	 0.642622	 0.463839
H	 -0.210803	 1.217591	 -0.953497
H	 0.129920	 1.693110	 0.675679
C	 -2.480891	 -0.340606	 -0.429852
H	 -2.243098	 1.597649	 0.438609
H	 -1.776542	 0.301208	 1.495542
C	 -3.955933	 -0.460128	 -0.060472
H	 -2.393755	 -0.020485	 -1.464726
H	 -2.024244	 -1.323637	 -0.374360
H	 -4.467673	 -1.160944	 -0.709827
H	 -4.458917	 0.497287	 -0.144505
H	 -4.076458	 -0.806900	 0.960497

	symmetry c1
}
set optking {
	frozen_dihedral = ("
		5 3 4 7
	")
}

ee,wfn = optimize('scf', return_wfn=True)
oeprop( wfn, 'DIPOLE', 'QUADRUPOLE', 'MULLIKEN_CHARGES')
f=open( 'psi4out.xyz', 'w' )
f.write( "20  " )
f.write( str(ee) + "\n" )
f.write( MOL.save_string_xyz() )
f.close()
--------------------------------------------------------------------------

    Molecular point group: c1
  Charge       = 0
  Multiplicity = 1
  Basis Set: CC-PVTZ
  Basis Set:
  @DF-RHF Final Energy:  -384.09106935257034
    Total Energy =                       -384.0910693525702300
    Molecular point group: c1
  Basis Set: CC-PVTZ
  Basis Set:
  Basis Set: CC-PVTZ
  Basis Set:
  @DF-RHF Final Energy:  -384.09169343221453
    Total Energy =                       -384.0916934322144130
  Basis Set: CC-PVTZ
  Basis Set:
  Basis Set: CC-PVTZ
  Basis Set:
  @DF-RHF Final Energy:  -384.09127012501256
    Total Energy =                       -384.0912701250121017
  Basis Set: CC-PVTZ
  Basis Set:
  Basis Set: CC-PVTZ
  Basis Set:
  @DF-RHF Final Energy:  -384.09232279484371
    Total Energy =                       -384.0923227948434828
  Basis Set: CC-PVTZ
  Basis Set:
  Basis Set: CC-PVTZ
  Basis Set:
  @DF-RHF Final Energy:  -384.09234815240529
    Total Energy =                       -384.0923481524052931
  Basis Set: CC-PVTZ
  Basis Set:
  Basis Set: CC-PVTZ
  Basis Set:
  @DF-RHF Final Energy:  -384.09234677295944
    Total Energy =                       -384.0923467729589902
  Basis Set: CC-PVTZ
  Basis Set:
  Basis Set: CC-PVTZ
  Basis Set:
  @DF-RHF Final Energy:  -384.09234981757248
    Total Energy =                       -384.0923498175727104
  Basis Set: CC-PVTZ
  Basis Set:
  Charge       = 0
  Multiplicity = 1
  Basis Set: CC-PVTZ
  Basis Set:

    Orbital Energies (a.u.)
    -----------------------

    Doubly Occupied:

       1A    -20.606494     2A    -20.535939     3A    -11.373766
       4A    -11.238744     5A    -11.225555     6A    -11.220911
       7A    -11.219870     8A    -11.211657     9A     -1.478526
      10A     -1.367339    11A     -1.099621    12A     -1.042704
      13A     -0.960916    14A     -0.863492    15A     -0.829466
      16A     -0.792671    17A     -0.703082    18A     -0.682411
      19A     -0.666997    20A     -0.634273    21A     -0.606655
      22A     -0.592819    23A     -0.578411    24A     -0.551948
      25A     -0.549531    26A     -0.521522    27A     -0.501562
      28A     -0.484533    29A     -0.477525    30A     -0.470906
      31A     -0.457567    32A     -0.436485

  @DF-RHF Final Energy:  -384.09234992820421

   => Energetics <=

    Nuclear Repulsion Energy =            377.1020660646667579
    One-Electron Energy =               -1270.4210362940855248
    Two-Electron Energy =                 509.2266203012139840
    DFT Exchange-Correlation Energy =       0.0000000000000000
    Empirical Dispersion Energy =           0.0000000000000000
    PCM Polarization Energy =               0.0000000000000000
    EFP Energy =                            0.0000000000000000
    Total Energy =                       -384.0923499282047260
    Molecular point group: c1
  Basis Set: CC-PVTZ
  Basis Set:

  -Total Gradient:
     Atom            X                  Y                   Z
    ------   -----------------  -----------------  -----------------
       1       -0.000008726733    -0.000005461560     0.000003833077
       2        0.000003776646     0.000033468003    -0.000028314578
       3        0.000143534567     0.000448820557     0.001068197821
       4       -0.000202062409     0.000406863793    -0.000909531745
       5       -0.000055311371    -0.000405806434    -0.000652096845
       6       -0.000024281939     0.000002338626    -0.000005280997
       7        0.000134867849    -0.000474411907     0.000519841900
       8        0.000001411656    -0.000000887743    -0.000001372383
       9        0.000003055052    -0.000000781210    -0.000005755923
      10       -0.000000584770     0.000000059793     0.000001808447
      11       -0.000000363150    -0.000000992535     0.000000707721
      12        0.000005012859    -0.000008144774     0.000008891356
      13        0.000000889835     0.000000428346     0.000001271751
      14        0.000002438390    -0.000003294632    -0.000000411391
      15       -0.000003690346     0.000006901205    -0.000003923777
      16        0.000003082492    -0.000000051915     0.000002541771
      17        0.000000214496    -0.000000815405     0.000000662227
      18       -0.000001780063     0.000001957856    -0.000002323743
      19       -0.000003277298     0.000001956165     0.000001909594
      20        0.000001794239    -0.000002146229    -0.000000654284

  **** Optimization is complete! (in 8 steps) ****
    Final optimized geometry and variables:
    Molecular point group: c1

    Geometry (in Angstrom), charge = 0, multiplicity = 1:

    H            3.360616151007     0.889466258399    -0.749308538782
    O            2.422995724432     0.883397115276    -0.626718601452
    C            2.100698019073    -0.218624710438     0.039492266732
    C            0.620805737038    -0.386429560399     0.281836462360
    O            2.916691778899    -1.004562106951     0.381459184143
    C           -0.249281321396     0.851607366487     0.081225075582
    H            0.315347806674    -1.196714977881    -0.370557467723
    H            0.527285615748    -0.768534547646     1.291013873594
    C           -1.716057441262     0.631828568946     0.455118643567
    H           -0.181440980308     1.182731383873    -0.948548633453
    H            0.146502877111     1.659968558801     0.685640523611
    C           -2.473483169437    -0.344584410662    -0.443246773154
    H           -2.219374011120     1.593568190119     0.421505571340
    H           -1.779817354651     0.294514069715     1.487129299575
    C           -3.952870018760    -0.446152350087    -0.085697157544
    H           -2.374049253297    -0.027795802373    -1.478119276493
    H           -2.028807255544    -1.332510553027    -0.381575393628
    H           -4.466462637614    -1.144548766814    -0.736096139758
    H           -4.444900919294     0.516171538050    -0.178472924429
    H           -4.085656193191    -0.786911861169     0.935719897375

  Mulliken Charges: (a.u.)
   Center  Symbol    Alpha    Beta     Spin     Total
       1     H     0.38477  0.38477  0.00000  0.23045
       2     O     4.15047  4.15047  0.00000 -0.30095
       3     C     2.81260  2.81260  0.00000  0.37479
       4     C     3.10074  3.10074  0.00000 -0.20147
       5     O     4.19724  4.19724  0.00000 -0.39448
       6     C     3.09868  3.09868  0.00000 -0.19735
       7     H     0.43824  0.43824  0.00000  0.12352
       8     H     0.43435  0.43435  0.00000  0.13130
       9     C     3.09975  3.09975  0.00000 -0.19950
      10     H     0.44439  0.44439  0.00000  0.11122
      11     H     0.44137  0.44137  0.00000  0.11725
      12     C     3.08739  3.08739  0.00000 -0.17479
      13     H     0.44587  0.44587  0.00000  0.10827
      14     H     0.45292  0.45292  0.00000  0.09416
      15     C     3.14967  3.14967  0.00000 -0.29934
      16     H     0.45278  0.45278  0.00000  0.09443
      17     H     0.45319  0.45319  0.00000  0.09362
      18     H     0.44738  0.44738  0.00000  0.10524
      19     H     0.45388  0.45388  0.00000  0.09224
      20     H     0.45431  0.45431  0.00000  0.09138

   Total alpha = 32.00000, Total beta = 32.00000, Total charge = -0.00000

*** Psi4 exiting successfully. Buy a developer a beer!
