                              Psi4 1.0.54 Driver

  ==> Input File <==

--------------------------------------------------------------------------
set {
	reference rhf
	basis cc-pvtz
}

set_num_threads( 4 )
memory 2 gb

molecule MOL {
0 1

H	 -1.966284	 0.042381	 0.396347
N	 -1.173824	 -0.310545	 -0.096857
C	 -0.022588	 0.563366	 0.065815
H	 -0.982973	 -1.221773	 0.264878
C	 1.270420	 -0.230572	 -0.014245
H	 -0.045354	 1.293678	 -0.735129
H	 -0.043155	 1.123061	 1.001180
H	 1.336273	 -0.754933	 -0.959364
H	 2.130728	 0.422015	 0.082222
H	 1.323344	 -0.967006	 0.781773

	symmetry c1
}
set optking {
	frozen_dihedral = ("
		1 2 3 6
	")
}

ee,wfn = optimize('scf', return_wfn=True)
oeprop( wfn, 'DIPOLE', 'QUADRUPOLE', 'MULLIKEN_CHARGES')
f=open( 'psi4out.xyz', 'w' )
f.write( "10  " )
f.write( str(ee) + "\n" )
f.write( MOL.save_string_xyz() )
f.close()
--------------------------------------------------------------------------

    Molecular point group: c1
  Charge       = 0
  Multiplicity = 1
  Basis Set: CC-PVTZ
  Basis Set:
  @DF-RHF Final Energy:  -134.30260422648146
    Total Energy =                       -134.3026042264813498
    Molecular point group: c1
  Basis Set: CC-PVTZ
  Basis Set:
  Basis Set: CC-PVTZ
  Basis Set:
  @DF-RHF Final Energy:  -134.30277833609392
    Total Energy =                       -134.3027783360939225
  Basis Set: CC-PVTZ
  Basis Set:
  Basis Set: CC-PVTZ
  Basis Set:
  @DF-RHF Final Energy:  -134.30279884283894
    Total Energy =                       -134.3027988428389392
  Basis Set: CC-PVTZ
  Basis Set:
  Charge       = 0
  Multiplicity = 1
  Basis Set: CC-PVTZ
  Basis Set:

    Orbital Energies (a.u.)
    -----------------------

    Doubly Occupied:

       1A    -15.526534     2A    -11.240889     3A    -11.209622
       4A     -1.177572     5A     -0.990222     6A     -0.827929
       7A     -0.657943     8A     -0.630067     9A     -0.590516
      10A     -0.522218    11A     -0.502479    12A     -0.493185
      13A     -0.385580

  @DF-RHF Final Energy:  -134.30279984147819

   => Energetics <=

    Nuclear Repulsion Energy =             83.5190965375459058
    One-Electron Energy =                -346.1342815597736262
    Two-Electron Energy =                 128.3123851807495726
    DFT Exchange-Correlation Energy =       0.0000000000000000
    Empirical Dispersion Energy =           0.0000000000000000
    PCM Polarization Energy =               0.0000000000000000
    EFP Energy =                            0.0000000000000000
    Total Energy =                       -134.3027998414781337
    Molecular point group: c1
  Basis Set: CC-PVTZ
  Basis Set:

  -Total Gradient:
     Atom            X                  Y                   Z
    ------   -----------------  -----------------  -----------------
       1        0.000871679740    -0.001775564752     0.002730294571
       2       -0.000687410826     0.001778013038    -0.003807187791
       3       -0.001945326557     0.001854896437     0.002834072004
       4       -0.000008204538     0.000003338574    -0.000012802008
       5        0.000014479302     0.000033760262     0.000071387278
       6        0.001698481192    -0.001895551746    -0.001735243899
       7        0.000042891298     0.000002816637    -0.000023252149
       8        0.000006053895     0.000014016613    -0.000012865066
       9        0.000002540069    -0.000017504401    -0.000021802316
      10        0.000004816424     0.000001779337    -0.000022600623

  **** Optimization is complete! (in 4 steps) ****
    Final optimized geometry and variables:
    Molecular point group: c1

    Geometry (in Angstrom), charge = 0, multiplicity = 1:

    H           -1.982585602714     0.067545141449     0.372728380734
    N           -1.186207034382    -0.291479753451    -0.109703736738
    C           -0.024200992871     0.571637124303     0.073916956451
    H           -1.011884335361    -1.193605199198     0.282158634955
    C            1.264359582727    -0.230590713790    -0.016165576803
    H           -0.015979072735     1.310691596697    -0.719899372402
    H           -0.047452494898     1.107189767538     1.020429396481
    H            1.312228811157    -0.767936797018    -0.956366267403
    H            2.128721470438     0.419603041922     0.047326677129
    H            1.332171380552    -0.954346943994     0.790248910774

  Mulliken Charges: (a.u.)
   Center  Symbol    Alpha    Beta     Spin     Total
       1     H     0.43143  0.43143  0.00000  0.13715
       2     N     3.68613  3.68613  0.00000 -0.37226
       3     C     3.01339  3.01339  0.00000 -0.02678
       4     H     0.43230  0.43230  0.00000  0.13541
       5     C     3.14493  3.14493  0.00000 -0.28986
       6     H     0.46180  0.46180  0.00000  0.07640
       7     H     0.46844  0.46844  0.00000  0.06311
       8     H     0.44906  0.44906  0.00000  0.10189
       9     H     0.45204  0.45204  0.00000  0.09593
      10     H     0.46049  0.46049  0.00000  0.07902

   Total alpha = 13.00000, Total beta = 13.00000, Total charge = -0.00000

*** Psi4 exiting successfully. Buy a developer a beer!
