  ==> Input File <==

--------------------------------------------------------------------------
set {
	reference rhf
	basis 6-31G*
}

set_num_threads( 4 )
memory 2 gb

molecule MOL {
0 1

O	 -2.324811	 1.361668	 -0.277141
C	 -2.105949	 0.203097	 -0.092081
C	 -0.889235	 -0.467034	 -0.705952
C	 -3.002726	 -0.644460	 0.782455
C	 0.245192	 -0.592700	 0.323818
H	 -0.558368	 0.148339	 -1.535498
H	 -1.148344	 -1.447802	 -1.094517
C	 1.500149	 -1.235114	 -0.272001
H	 0.467366	 0.397741	 0.704673
H	 -0.093396	 -1.186759	 1.171284
C	 2.639672	 -1.448382	 0.731024
H	 1.858253	 -0.622714	 -1.097504
H	 1.231229	 -2.198187	 -0.700977
C	 3.252430	 -0.158230	 1.278776
H	 3.420397	 -2.026556	 0.243299
H	 2.281703	 -2.059393	 1.557227
H	 3.609491	 0.477014	 0.472738
H	 4.097223	 -0.378019	 1.924079
H	 2.539740	 0.415885	 1.861234
H	 -3.496582	 -1.399307	 0.176174
H	 -3.747939	 -0.023774	 1.260148
H	 -2.421318	 -1.168775	 1.535358

	symmetry c1
}
set optking {
	frozen_dihedral = ("
		6 3 2 1
	")
}

ee = optimize('scf')
oeprop('DIPOLE', 'QUADRUPOLE', 'MULLIKEN_CHARGES')
f=open( 'psi4out.xyz', 'w' )
f.write( "22  " )
f.write( str(ee) + "\n" )
f.write( MOL.save_string_xyz() )
f.close()
--------------------------------------------------------------------------

    Molecular point group: c1
  Charge       = 0
  Multiplicity = 1
  Basis Set: 6-31G*
  Basis Set:
  @DF-RHF Final Energy:  -348.09787071464132
    Total Energy =                       -348.0978707146414877
    Molecular point group: c1
  Basis Set: 6-31G*
  Basis Set:
  Basis Set: 6-31G*
  Basis Set:
  @DF-RHF Final Energy:  -348.09612843416215
    Total Energy =                       -348.0961284341621536
  Basis Set: 6-31G*
  Basis Set:
  Basis Set: 6-31G*
  Basis Set:
  @DF-RHF Final Energy:  -348.09795042386469
    Total Energy =                       -348.0979504238645177
  Basis Set: 6-31G*
  Basis Set:
  Basis Set: 6-31G*
  Basis Set:
  @DF-RHF Final Energy:  -348.09782795308337
    Total Energy =                       -348.0978279530831969
  Basis Set: 6-31G*
  Basis Set:
  @DF-RHF Final Energy:  -348.09473479090349
    Total Energy =                       -348.0947347909033169
  @DF-RHF Final Energy:  -348.09801125802284
    Total Energy =                       -348.0980112580228933
  Basis Set: 6-31G*
  Basis Set:
  @DF-RHF Final Energy:  -348.09798134280106
    Total Energy =                       -348.0979813428011198
  Basis Set: 6-31G*
  Basis Set:
  Basis Set: 6-31G*
  Basis Set:
  @DF-RHF Final Energy:  -348.09801253043588
    Total Energy =                       -348.0980125304358808
  Basis Set: 6-31G*
  Basis Set:
  Basis Set: 6-31G*
  Basis Set:
  @DF-RHF Final Energy:  -348.09804261099254
    Total Energy =                       -348.0980426109925929
  Basis Set: 6-31G*
  Basis Set:
  Charge       = 0
  Multiplicity = 1
  Basis Set: 6-31G*
  Basis Set:

    Orbital Energies (a.u.)
    -----------------------

    Doubly Occupied:

       1A    -20.547752     2A    -11.324132     3A    -11.231875
       4A    -11.229347     5A    -11.227496     6A    -11.223943
       7A    -11.222080     8A    -11.212722     9A     -1.392999
      10A     -1.097529    11A     -1.045225    12A     -0.997987
      13A     -0.938974    14A     -0.860040    15A     -0.788145
      16A     -0.733060    17A     -0.663242    18A     -0.644036
      19A     -0.629052    20A     -0.619382    21A     -0.598047
      22A     -0.585384    23A     -0.561299    24A     -0.536934
      25A     -0.535712    26A     -0.524204    27A     -0.496607
      28A     -0.490231    29A     -0.472228    30A     -0.466346
      31A     -0.462139    32A     -0.396255

  @DF-RHF Final Energy:  -348.09804276105825

   => Energetics <=

    Nuclear Repulsion Energy =            372.7391954416970634
    One-Electron Energy =               -1210.1656691053792656
    Two-Electron Energy =                 489.3284309026239498
    DFT Exchange-Correlation Energy =       0.0000000000000000
    Empirical Dispersion Energy =           0.0000000000000000
    PCM Polarization Energy =               0.0000000000000000
    EFP Energy =                            0.0000000000000000
    Total Energy =                       -348.0980427610581955
    Molecular point group: c1
  Basis Set: 6-31G*
  Basis Set:

  -Total Gradient:
     Atom            X                  Y                   Z
    ------   -----------------  -----------------  -----------------
       1       -0.000462290385    -0.000192526819    -0.000681143356
       2        0.000686668635     0.000360640938     0.001026208173
       3       -0.000793238429    -0.000562546648    -0.000964001726
       4       -0.000039917023     0.000005628210    -0.000001275339
       5        0.000032146186    -0.000050737779     0.000037231123
       6        0.000496918378     0.000422208331     0.000514706873
       7        0.000003337537     0.000035692992    -0.000006266300
       8        0.000017291695    -0.000031566397     0.000030821107
       9        0.000002180695     0.000010011131     0.000010807064
      10        0.000026680970    -0.000007613635    -0.000011112124
      11        0.000002080262     0.000016608192     0.000008305148
      12       -0.000013841718     0.000009871011     0.000007985270
      13        0.000019054679    -0.000005173863    -0.000002515217
      14        0.000012305846    -0.000011083271    -0.000019759108
      15        0.000012577239    -0.000001716387     0.000014097590
      16       -0.000022356430     0.000010202105    -0.000003754702
      17       -0.000019139755     0.000005508511    -0.000001223868
      18        0.000012628301    -0.000003271898    -0.000012873056
      19        0.000008855975    -0.000012849694     0.000011986434
      20        0.000015661355    -0.000019374992     0.000024487105
      21        0.000017549529    -0.000004990168     0.000026284002
      22       -0.000015153536     0.000027080132    -0.000008995093

  **** Optimization is complete! (in 10 steps) ****
    Final optimized geometry and variables:
    Molecular point group: c1

    Geometry (in Angstrom), charge = 0, multiplicity = 1:

    O           -2.252776822617     1.722798580326    -0.527910496706
    C           -2.027526253115     0.569307218492    -0.320497675981
    C           -0.806148274141    -0.111282773743    -0.911334433196
    C           -2.953645781525    -0.271779275058     0.533012673029
    C            0.336691068440    -0.236079419008     0.110617335201
    H           -0.476173290791     0.490630658550    -1.749612201148
    H           -1.075851883296    -1.097829943039    -1.280410268091
    C            1.589774886212    -0.865795803415    -0.503709372775
    H            0.563457055633     0.752821781861     0.496417071996
    H            0.015690353961    -0.837558959185     0.958181319698
    C            2.740949920075    -1.082963415706     0.484872195228
    H            1.935679045373    -0.244215238850    -1.327320696972
    H            1.320196719486    -1.825995207035    -0.938655320873
    C            3.351279931353     0.204472646270     1.041722067660
    H            3.520346857727    -1.649875611033    -0.017895674479
    H            2.396255191832    -1.706288359112     1.307529009979
    H            3.690074548262     0.854340089651     0.239556254094
    H            4.207942748501    -0.017283791001     1.670427947570
    H            2.643178119493     0.763982800909     1.643837808162
    H           -3.460679277491    -1.000132360776    -0.094519106353
    H           -3.689988585449     0.362476851506     1.006632515666
    H           -2.405530403776    -0.824847118950     1.288460516328

  Mulliken Charges: (a.u.)
   Center  Symbol    Alpha    Beta     Spin     Total
       1     O     4.26073  4.26073  0.00000 -0.52147
       2     C     2.73660  2.73660  0.00000  0.52680
       3     C     3.20107  3.20107  0.00000 -0.40215
       4     C     3.28975  3.28975  0.00000 -0.57949
       5     C     3.16618  3.16618  0.00000 -0.33236
       6     H     0.39988  0.39988  0.00000  0.20024
       7     H     0.41581  0.41581  0.00000  0.16837
       8     C     3.15229  3.15229  0.00000 -0.30458
       9     H     0.40774  0.40774  0.00000  0.18453
      10     H     0.42067  0.42067  0.00000  0.15866
      11     C     3.15345  3.15345  0.00000 -0.30690
      12     H     0.41980  0.41980  0.00000  0.16040
      13     H     0.42128  0.42128  0.00000  0.15743
      14     C     3.24200  3.24200  0.00000 -0.48400
      15     H     0.41907  0.41907  0.00000  0.16187
      16     H     0.42304  0.42304  0.00000  0.15392
      17     H     0.42041  0.42041  0.00000  0.15918
      18     H     0.41790  0.41790  0.00000  0.16420
      19     H     0.41925  0.41925  0.00000  0.16151
      20     H     0.40690  0.40690  0.00000  0.18619
      21     H     0.39671  0.39671  0.00000  0.20658
      22     H     0.40947  0.40947  0.00000  0.18105

   Total alpha = 32.00000, Total beta = 32.00000, Total charge = -0.00000
