  ==> Input File <==

--------------------------------------------------------------------------
set {
	reference rhf
	basis cc-pvtz
}

set_num_threads( 4 )
memory 2 gb

molecule MOL {
0 1

H	 1.581559	 -2.968770	 -0.532953
C	 1.386868	 -1.917518	 -0.716664
C	 0.329517	 -1.401595	 0.249946
H	 1.047799	 -1.803931	 -1.738942
H	 2.326777	 -1.388929	 -0.617183
N	 0.000297	 0.000045	 0.046090
H	 -0.568109	 -1.987375	 0.107660
H	 0.648278	 -1.582446	 1.280292
C	 -1.359159	 0.315706	 0.454404
C	 0.980357	 0.892896	 0.643436
C	 -2.416729	 -0.286720	 -0.460525
H	 -1.478729	 1.390261	 0.442008
H	 -1.539692	 0.003361	 1.486761
C	 1.078677	 2.237352	 -0.064526
H	 1.950193	 0.417370	 0.594936
H	 0.772117	 1.047123	 1.705869
H	 -2.285276	 0.073129	 -1.473515
H	 -2.371743	 -1.368476	 -0.483209
H	 -3.408658	 -0.007405	 -0.121593
H	 1.352881	 2.095395	 -1.102586
H	 0.144121	 2.783914	 -0.038985
H	 1.832902	 2.856338	 0.409617

	symmetry c1
}
set optking {
	frozen_dihedral = ("
		3 6 9 11
	")
}

ee = optimize('scf')
oeprop('DIPOLE', 'QUADRUPOLE', 'MULLIKEN_CHARGES')
f=open( 'psi4out.xyz', 'w' )
f.write( "22  " )
f.write( str(ee) + "\n" )
f.write( MOL.save_string_xyz() )
f.close()
--------------------------------------------------------------------------

    Molecular point group: c1
  Charge       = 0
  Multiplicity = 1
  Basis Set: CC-PVTZ
  Basis Set:
  @DF-RHF Final Energy:  -290.47598782393516
    Total Energy =                       -290.4759878239351565
    Molecular point group: c1
  Basis Set: CC-PVTZ
  Basis Set:
  Basis Set: CC-PVTZ
  Basis Set:
  @DF-RHF Final Energy:  -290.47613931701045
    Total Energy =                       -290.4761393170099382
  Basis Set: CC-PVTZ
  Basis Set:
  Basis Set: CC-PVTZ
  Basis Set:
  @DF-RHF Final Energy:  -290.47625306839097
    Total Energy =                       -290.4762530683911450
  Basis Set: CC-PVTZ
  Basis Set:
  Basis Set: CC-PVTZ
  Basis Set:
  @DF-RHF Final Energy:  -290.47626299135271
    Total Energy =                       -290.4762629913529395
  Basis Set: CC-PVTZ
  Basis Set:
  Basis Set: CC-PVTZ
  Basis Set:
  @DF-RHF Final Energy:  -290.47626505028808
    Total Energy =                       -290.4762650502880774
  Basis Set: CC-PVTZ
  Basis Set:
  Charge       = 0
  Multiplicity = 1
  Basis Set: CC-PVTZ
  Basis Set:

    Orbital Energies (a.u.)
    -----------------------

    Doubly Occupied:

       1A    -15.532938     2A    -11.239069     3A    -11.238518
       4A    -11.238049     5A    -11.204879     6A    -11.203576
       7A    -11.203517     8A     -1.226059     9A     -1.024939
      10A     -1.024403    11A     -0.957370    12A     -0.849721
      13A     -0.845691    14A     -0.770920    15A     -0.648665
      16A     -0.644302    17A     -0.624656    18A     -0.593841
      19A     -0.591577    20A     -0.549828    21A     -0.532323
      22A     -0.520985    23A     -0.518254    24A     -0.495641
      25A     -0.493630    26A     -0.490407    27A     -0.462744
      28A     -0.461629    29A     -0.342799

  @DF-RHF Final Energy:  -290.47626520644252

   => Energetics <=

    Nuclear Repulsion Energy =            337.7801165167095974
    One-Electron Energy =               -1061.4508953268539244
    Two-Electron Energy =                 433.1945136037016368
    DFT Exchange-Correlation Energy =       0.0000000000000000
    Empirical Dispersion Energy =           0.0000000000000000
    PCM Polarization Energy =               0.0000000000000000
    EFP Energy =                            0.0000000000000000
    Total Energy =                       -290.4762652064427471
    Molecular point group: c1
  Basis Set: CC-PVTZ
  Basis Set:

  -Total Gradient:
     Atom            X                  Y                   Z
    ------   -----------------  -----------------  -----------------
       1       -0.000001134162     0.000005316958    -0.000001939182
       2       -0.000001851289    -0.000003916916    -0.000001498969
       3       -0.000596997669    -0.000400859675    -0.001719594208
       4        0.000001193281    -0.000000253464    -0.000000675907
       5       -0.000000112176     0.000003056308     0.000001220020
       6        0.000821111134    -0.000077630821     0.002854185589
       7       -0.000005388562    -0.000005310428     0.000006475404
       8       -0.000001994244     0.000005151963    -0.000004892618
       9       -0.000149019412     0.001953409224    -0.002129422184
      10       -0.000009687947    -0.000009371610    -0.000010082551
      11       -0.000051407369    -0.001474998507     0.000999744573
      12        0.000004353901     0.000001189565     0.000000621962
      13       -0.000001381872     0.000003889893     0.000000647435
      14       -0.000005681113     0.000000556774    -0.000000143568
      15       -0.000001199978     0.000000094973    -0.000004810050
      16       -0.000000308746     0.000001762950     0.000004656532
      17       -0.000001762149    -0.000001105356     0.000001574267
      18        0.000001995958    -0.000003244244    -0.000000066127
      19       -0.000003219724    -0.000001146499    -0.000000388706
      20        0.000000437379    -0.000000024411     0.000000832092
      21        0.000000644952     0.000003915284     0.000000120586
      22        0.000001409807    -0.000000481960     0.000003435611

  **** Optimization is complete! (in 6 steps) ****
    Final optimized geometry and variables:
    Molecular point group: c1

    Geometry (in Angstrom), charge = 0, multiplicity = 1:

    H            1.620267222093    -2.924658945340    -0.571553077475
    C            1.405142111340    -1.875909672065    -0.746886189679
    C            0.344263410260    -1.385674179369     0.229722141615
    H            1.057609258463    -1.761627925010    -1.766248894048
    H            2.335675390900    -1.330523022822    -0.649591300658
    N           -0.002564414141     0.012808812303     0.038162950158
    H           -0.541795867556    -1.985941373660     0.087923926359
    H            0.673077064555    -1.570830746181     1.256311221898
    C           -1.362164339587     0.333185467709     0.436256247851
    C            0.968371545023     0.915653178699     0.634383008824
    C           -2.433870323931    -0.250855760393    -0.475059622357
    H           -1.467200864932     1.409032691346     0.426160019128
    H           -1.553148646214     0.018765096313     1.467937016196
    C            1.080168225911     2.250453423888    -0.090542456847
    H            1.938721124468     0.439567405121     0.608551350567
    H            0.743583264197     1.085818643854     1.691043842336
    H           -2.265581345407     0.054852283856    -1.500678354421
    H           -2.465403920170    -1.331924146214    -0.447190387070
    H           -3.409927758332     0.107986413908    -0.167142876889
    H            1.362407291240     2.093587928026    -1.124310985937
    H            0.149874388887     2.804311060508    -0.079309117948
    H            1.834724733740     2.870160036261     0.382240791822

  Mulliken Charges: (a.u.)
   Center  Symbol    Alpha    Beta     Spin     Total
       1     H     0.45323  0.45323  0.00000  0.09353
       2     C     3.14091  3.14091  0.00000 -0.28183
       3     C     3.04332  3.04332  0.00000 -0.08663
       4     H     0.45185  0.45185  0.00000  0.09630
       5     H     0.45609  0.45609  0.00000  0.08781
       6     N     3.62313  3.62313  0.00000 -0.24626
       7     H     0.44933  0.44933  0.00000  0.10135
       8     H     0.46371  0.46371  0.00000  0.07258
       9     C     3.03886  3.03886  0.00000 -0.07773
      10     C     3.04528  3.04528  0.00000 -0.09056
      11     C     3.14763  3.14763  0.00000 -0.29527
      12     H     0.45019  0.45019  0.00000  0.09962
      13     H     0.46673  0.46673  0.00000  0.06655
      14     C     3.14022  3.14022  0.00000 -0.28044
      15     H     0.44883  0.44883  0.00000  0.10233
      16     H     0.46231  0.46231  0.00000  0.07538
      17     H     0.45071  0.45071  0.00000  0.09858
      18     H     0.45514  0.45514  0.00000  0.08973
      19     H     0.45102  0.45102  0.00000  0.09796
      20     H     0.45175  0.45175  0.00000  0.09649
      21     H     0.45635  0.45635  0.00000  0.08729
      22     H     0.45340  0.45340  0.00000  0.09321

   Total alpha = 29.00000, Total beta = 29.00000, Total charge = -0.00000
