                              Psi4 1.0.54 Driver

  ==> Input File <==

--------------------------------------------------------------------------
set {
	reference rhf
	basis cc-pvtz
}

set_num_threads( 4 )
memory 2 gb

molecule MOL {
0 1

H	 -1.571634	 -2.791323	 -1.976251
O	 -1.535196	 -2.273933	 -1.185873
C	 -0.443478	 -1.515500	 -1.229060
C	 -0.310616	 -0.658853	 0.000791
O	 0.307240	 -1.545083	 -2.142032
C	 0.926581	 0.227233	 0.000178
H	 -0.317979	 -1.325963	 0.856734
H	 -1.218412	 -0.069302	 0.078591
C	 2.220156	 -0.582071	 -0.000088
H	 0.899945	 0.878221	 -0.866390
H	 0.900542	 0.878581	 0.866486
C	 3.466689	 0.296012	 -0.000457
H	 2.239073	 -1.234095	 -0.869382
H	 2.239505	 -1.233985	 0.869270
H	 3.493549	 0.935857	 -0.875887
H	 4.368821	 -0.304526	 -0.001199
H	 3.494559	 0.935166	 0.875458

	symmetry c1
}
set optking {
	frozen_dihedral = ("
		7 4 6 10
	")
}

ee,wfn = optimize('scf', return_wfn=True)
oeprop( wfn, 'DIPOLE', 'QUADRUPOLE', 'MULLIKEN_CHARGES')
f=open( 'psi4out.xyz', 'w' )
f.write( "17  " )
f.write( str(ee) + "\n" )
f.write( MOL.save_string_xyz() )
f.close()
--------------------------------------------------------------------------

    Molecular point group: c1
  Charge       = 0
  Multiplicity = 1
  Basis Set: CC-PVTZ
  Basis Set:
  @DF-RHF Final Energy:  -345.04641516041386
    Total Energy =                       -345.0464151604136873
    Molecular point group: c1
  Basis Set: CC-PVTZ
  Basis Set:
  Basis Set: CC-PVTZ
  Basis Set:
  @DF-RHF Final Energy:  -345.04761204550067
    Total Energy =                       -345.0476120455006708
  Basis Set: CC-PVTZ
  Basis Set:
  Basis Set: CC-PVTZ
  Basis Set:
  @DF-RHF Final Energy:  -345.04454302661566
    Total Energy =                       -345.0445430266157700
  Basis Set: CC-PVTZ
  Basis Set:
  Basis Set: CC-PVTZ
  Basis Set:
  @DF-RHF Final Energy:  -345.04792441011233
    Total Energy =                       -345.0479244101122731
  Basis Set: CC-PVTZ
  Basis Set:
  @DF-RHF Final Energy:  -345.04809248059235
    Total Energy =                       -345.0480924805925156
  Basis Set: CC-PVTZ
  Basis Set:
  @DF-RHF Final Energy:  -345.04814989642449
    Total Energy =                       -345.0481498964244338
  Basis Set: CC-PVTZ
  Basis Set:
  Basis Set: CC-PVTZ
  Basis Set:
  @DF-RHF Final Energy:  -345.04816423377440
    Total Energy =                       -345.0481642337744574
  Basis Set: CC-PVTZ
  Basis Set:
  Basis Set: CC-PVTZ
  Basis Set:
  @DF-RHF Final Energy:  -345.04816724961864
    Total Energy =                       -345.0481672496186434
  Basis Set: CC-PVTZ
  Basis Set:
  Charge       = 0
  Multiplicity = 1
  Basis Set: CC-PVTZ
  Basis Set:

    Orbital Energies (a.u.)
    -----------------------

    Doubly Occupied:

       1A    -20.605208     2A    -20.540869     3A    -11.374619
       4A    -11.239775     5A    -11.222324     6A    -11.214623
       7A    -11.207286     8A     -1.478670     9A     -1.369820
      10A     -1.090812    11A     -1.017114    12A     -0.913529
      13A     -0.829473    14A     -0.785451    15A     -0.706222
      16A     -0.695236    17A     -0.658953    18A     -0.629671
      19A     -0.589403    20A     -0.584377    21A     -0.578831
      22A     -0.532080    23A     -0.519019    24A     -0.489319
      25A     -0.479256    26A     -0.471632    27A     -0.467958
      28A     -0.444329

  @DF-RHF Final Energy:  -345.04816741248879

   => Energetics <=

    Nuclear Repulsion Energy =            311.1431046210834097
    One-Electron Energy =               -1086.9108273719277804
    Two-Electron Energy =                 430.7195553383555762
    DFT Exchange-Correlation Energy =       0.0000000000000000
    Empirical Dispersion Energy =           0.0000000000000000
    PCM Polarization Energy =               0.0000000000000000
    EFP Energy =                            0.0000000000000000
    Total Energy =                       -345.0481674124887377
    Molecular point group: c1
  Basis Set: CC-PVTZ
  Basis Set:

  -Total Gradient:
     Atom            X                  Y                   Z
    ------   -----------------  -----------------  -----------------
       1        0.000010326704     0.000015202006     0.000003131095
       2       -0.000009850795    -0.000008957830     0.000025450938
       3       -0.000022921167    -0.000015174761    -0.000010170723
       4        0.000692803531    -0.000976932318    -0.000776715428
       5        0.000023185788     0.000018659613    -0.000005478317
       6        0.000598254574    -0.000882785699    -0.000717632177
       7       -0.000653451999     0.000936949256     0.000743568544
       8       -0.000011570324    -0.000001203017     0.000000979418
       9        0.000005257025    -0.000002713988    -0.000003595137
      10       -0.000633168205     0.000919114705     0.000740991587
      11        0.000003713394     0.000001161851    -0.000004452846
      12       -0.000004421477    -0.000005624477     0.000002878503
      13       -0.000001119991    -0.000000394734    -0.000002008778
      14        0.000002406964     0.000002181817     0.000002786914
      15       -0.000000557377    -0.000000003126     0.000000585261
      16       -0.000000032366    -0.000000127110    -0.000000134731
      17        0.000001145718     0.000000647809    -0.000000184122

  **** Optimization is complete! (in 9 steps) ****
    Final optimized geometry and variables:
    Molecular point group: c1

    Geometry (in Angstrom), charge = 0, multiplicity = 1:

    H           -2.177552020612    -1.988245030770    -1.227301024109
    O           -2.047249856650    -1.548502144423    -0.400499277152
    C           -1.135116247821    -0.596536889328    -0.570442448291
    C           -0.910028069025     0.195524219404     0.690185914638
    O           -0.612051629533    -0.406678808909    -1.614204027384
    C            0.339047102445     1.068997849860     0.678012192852
    H           -0.914782033196    -0.484953843434     1.533083094841
    H           -1.797842626937     0.810892450551     0.806580765948
    C            1.651061721953     0.288391259706     0.681541748497
    H            0.302710982592     1.731971530807    -0.178445004237
    H            0.303484779432     1.703150742354     1.558993857415
    C            2.873461873630     1.199693545463     0.704138825472
    H            1.695764375882    -0.349789438578    -0.192680350163
    H            1.674160436269    -0.365585857348     1.549931906536
    H            2.896000517291     1.841659893003    -0.169750204894
    H            3.790696366813     0.622606364886     0.713747344886
    H            2.873883537378     1.836477815070     1.582841920822

  Mulliken Charges: (a.u.)
   Center  Symbol    Alpha    Beta     Spin     Total
       1     H     0.38201  0.38201  0.00000  0.23599
       2     O     4.15933  4.15933  0.00000 -0.31865
       3     C     2.80311  2.80311  0.00000  0.39378
       4     C     3.11773  3.11773  0.00000 -0.23546
       5     O     4.19408  4.19408  0.00000 -0.38815
       6     C     3.08828  3.08828  0.00000 -0.17656
       7     H     0.43544  0.43544  0.00000  0.12913
       8     H     0.43231  0.43231  0.00000  0.13539
       9     C     3.08726  3.08726  0.00000 -0.17453
      10     H     0.44572  0.44572  0.00000  0.10857
      11     H     0.44713  0.44713  0.00000  0.10574
      12     C     3.15081  3.15081  0.00000 -0.30163
      13     H     0.44347  0.44347  0.00000  0.11305
      14     H     0.45660  0.45660  0.00000  0.08681
      15     H     0.45228  0.45228  0.00000  0.09545
      16     H     0.44787  0.44787  0.00000  0.10425
      17     H     0.45659  0.45659  0.00000  0.08682

   Total alpha = 28.00000, Total beta = 28.00000, Total charge = -0.00000

*** Psi4 exiting successfully. Buy a developer a beer!
