  ==> Input File <==

--------------------------------------------------------------------------
set {
	reference rhf
	basis 6-31G*
}

set_num_threads( 4 )
memory 2 gb

molecule MOL {
0 1

H	 -2.098997	 -0.674324	 -0.616650
O	 -2.035884	 -0.060112	 0.102722
C	 -0.955155	 0.788182	 -0.092531
C	 0.353668	 0.040312	 -0.004810
H	 -0.985057	 1.290372	 -1.054184
H	 -0.974469	 1.533190	 0.688632
F	 0.221056	 -1.191729	 -0.483414
F	 1.284514	 0.651045	 -0.720163
F	 0.794869	 -0.061230	 1.232356

	symmetry c1
}
set optking {
	frozen_dihedral = ("
		7 4 3 5
	")
}

ee = optimize('scf')
oeprop('DIPOLE', 'QUADRUPOLE', 'MULLIKEN_CHARGES')
f=open( 'psi4out.xyz', 'w' )
f.write( "9  " )
f.write( str(ee) + "\n" )
f.write( MOL.save_string_xyz() )
f.close()
--------------------------------------------------------------------------

    Molecular point group: c1
  Charge       = 0
  Multiplicity = 1
  Basis Set: 6-31G*
  Basis Set:
  @DF-RHF Final Energy:  -450.65988652269175
    Total Energy =                       -450.6598865226917496
    Molecular point group: c1
  Basis Set: 6-31G*
  Basis Set:
  Basis Set: 6-31G*
  Basis Set:
  @DF-RHF Final Energy:  -450.66020167317021
    Total Energy =                       -450.6602016731701497
  Basis Set: 6-31G*
  Basis Set:
  Basis Set: 6-31G*
  Basis Set:
  @DF-RHF Final Energy:  -450.66035922478324
    Total Energy =                       -450.6603592247832353
  Basis Set: 6-31G*
  Basis Set:
  Basis Set: 6-31G*
  Basis Set:
  @DF-RHF Final Energy:  -450.66036598586379
    Total Energy =                       -450.6603659858636775
  Basis Set: 6-31G*
  Basis Set:
  Charge       = 0
  Multiplicity = 1
  Basis Set: 6-31G*
  Basis Set:

    Orbital Energies (a.u.)
    -----------------------

    Doubly Occupied:

       1A    -26.345348     2A    -26.344718     3A    -26.338196
       4A    -20.590432     5A    -11.501792     6A    -11.309509
       7A     -1.741177     8A     -1.641218     9A     -1.635803
      10A     -1.402964    11A     -1.046601    12A     -0.924424
      13A     -0.830050    14A     -0.829737    15A     -0.809326
      16A     -0.723784    17A     -0.712654    18A     -0.698749
      19A     -0.665485    20A     -0.659866    21A     -0.642841
      22A     -0.628047    23A     -0.615411    24A     -0.528653
      25A     -0.480202

  @DF-RHF Final Energy:  -450.66036681347236

   => Energetics <=

    Nuclear Repulsion Energy =            276.7592464060753628
    One-Electron Energy =               -1175.5452504536924607
    Two-Electron Energy =                 448.1256372341446195
    DFT Exchange-Correlation Energy =       0.0000000000000000
    Empirical Dispersion Energy =           0.0000000000000000
    PCM Polarization Energy =               0.0000000000000000
    EFP Energy =                            0.0000000000000000
    Total Energy =                       -450.6603668134724785
    Molecular point group: c1
  Basis Set: 6-31G*
  Basis Set:

  -Total Gradient:
     Atom            X                  Y                   Z
    ------   -----------------  -----------------  -----------------
       1        0.000011207717     0.000012248085    -0.000008532725
       2        0.000033691709     0.000041653331     0.000004550054
       3       -0.003125658871    -0.005742415386    -0.001497837884
       4        0.001913207468     0.002785685962    -0.004706572112
       5        0.002253881877     0.004233453922     0.002252905360
       6       -0.000007162430     0.000004530913     0.000015908469
       7       -0.001144861736    -0.001403944505     0.004028374847
       8        0.000083297255     0.000045281124    -0.000052966886
       9       -0.000017602983     0.000023506556    -0.000035829119

  **** Optimization is complete! (in 5 steps) ****
    Final optimized geometry and variables:
    Molecular point group: c1

    Geometry (in Angstrom), charge = 0, multiplicity = 1:

    H           -2.091336661134    -0.706098584151    -0.556510316248
    O           -2.050998782448    -0.034220060704     0.110787571572
    C           -0.959873302676     0.789169214677    -0.109425988803
    C            0.356870754232     0.038277461130    -0.015597943758
    H           -0.985102275992     1.310016771818    -1.061396504643
    H           -0.961329338009     1.540666612375     0.666556792803
    F            0.244747828231    -1.185857474962    -0.512803699056
    F            1.308014930938     0.668639514307    -0.684066283663
    F            0.769061049531    -0.090379386829     1.233033222703

  Mulliken Charges: (a.u.)
   Center  Symbol    Alpha    Beta     Spin     Total
       1     H     0.27194  0.27194  0.00000  0.45612
       2     O     4.36022  4.36022  0.00000 -0.72043
       3     C     3.06160  3.06160  0.00000 -0.12320
       4     C     2.45868  2.45868  0.00000  1.08265
       5     H     0.40879  0.40879  0.00000  0.18243
       6     H     0.39404  0.39404  0.00000  0.21192
       7     F     4.68514  4.68514  0.00000 -0.37028
       8     F     4.68162  4.68162  0.00000 -0.36324
       9     F     4.67798  4.67798  0.00000 -0.35596

   Total alpha = 25.00000, Total beta = 25.00000, Total charge =  0.00000
