  ==> Input File <==

--------------------------------------------------------------------------
set {
	reference rhf
	basis 6-31G*
}

set_num_threads( 1 )
memory 2 gb

molecule MOL {
0 1

O	 1.214711	 1.306902	 -0.000018
C	 1.122059	 0.121804	 -0.000188
C	 -0.170150	 -0.657997	 -0.000612
O	 2.172624	 -0.688929	 0.000216
C	 -1.412532	 0.227344	 -0.000452
H	 -0.153702	 -1.313099	 -0.867402
H	 -0.153924	 -1.313811	 0.865644
C	 -2.701403	 -0.579464	 -0.165494
H	 -1.331445	 0.958816	 -0.798499
H	 -1.448843	 0.793708	 0.924976
C	 -3.951232	 0.299700	 -0.165132
H	 -2.659437	 -1.145623	 -1.093815
H	 -2.776343	 -1.312546	 0.635160
H	 -3.922380	 1.021445	 -0.976246
H	 -4.850543	 -0.296484	 -0.283799
H	 -4.040447	 0.852842	 0.765306
C	 3.452279	 -0.082609	 0.000533
H	 3.583069	 0.529321	 -0.880332
H	 4.163299	 -0.894027	 0.001117
H	 3.582335	 0.529955	 0.881077

	symmetry c1
}
set optking {
	frozen_dihedral = ("
		9 5 8 12,
		1 2 3 6,
		1 2 4 17
	")
}

ee = energy('scf')
oeprop('DIPOLE', 'QUADRUPOLE', 'MULLIKEN_CHARGES')
f=open( 'psi4out.xyz', 'w' )
f.write( "20  " )
f.write( str(ee) + "\n" )
f.write( MOL.save_string_xyz() )
f.close()
--------------------------------------------------------------------------

    Molecular point group: c1

    Geometry (in Angstrom), charge = 0, multiplicity = 1:

       Center              X                  Y                   Z               Mass
    ------------   -----------------  -----------------  -----------------  -----------------
           O          1.213317959239     1.304939447100     0.041385354809    15.994914619560
           C          1.120665959239     0.119841447100     0.041215354809    12.000000000000
           C         -0.171543040761    -0.659959552900     0.040791354809    12.000000000000
           O          2.171230959239    -0.690891552900     0.041619354809    15.994914619560
           C         -1.413925040761     0.225381447100     0.040951354809    12.000000000000
           H         -0.155095040761    -1.315061552900    -0.825998645191     1.007825032070
           H         -0.155317040761    -1.315773552900     0.907047354809     1.007825032070
           C         -2.702796040761    -0.581426552900    -0.124090645191    12.000000000000
           H         -1.332838040761     0.956853447100    -0.757095645191     1.007825032070
           H         -1.450236040761     0.791745447100     0.966379354809     1.007825032070
           C         -3.952625040761     0.297737447100    -0.123728645191    12.000000000000
           H         -2.660830040761    -1.147585552900    -1.052411645191     1.007825032070
           H         -2.777736040761    -1.314508552900     0.676563354809     1.007825032070
           H         -3.923773040761     1.019482447100    -0.934842645191     1.007825032070
           H         -4.851936040761    -0.298446552900    -0.242395645191     1.007825032070
           H         -4.041840040761     0.850879447100     0.806709354809     1.007825032070
           C          3.450885959239    -0.084571552900     0.041936354809    12.000000000000
           H          3.581675959239     0.527358447100    -0.838928645191     1.007825032070
           H          4.161905959239    -0.895989552900     0.042520354809     1.007825032070
           H          3.580941959239     0.527992447100     0.922480354809     1.007825032070

  Charge       = 0
  Multiplicity = 1
  Basis Set: 6-31G*
  Basis Set:

    Orbital Energies (a.u.)
    -----------------------

    Doubly Occupied:

       1A    -20.603790     2A    -20.545590     3A    -11.372456
       4A    -11.280959     5A    -11.235683     6A    -11.220310
       7A    -11.219234     8A    -11.210634     9A     -1.469496
      10A     -1.362952    11A     -1.088742    12A     -1.024422
      13A     -0.969150    14A     -0.885857    15A     -0.804058
      16A     -0.767614    17A     -0.696996    18A     -0.683744
      19A     -0.672057    20A     -0.645947    21A     -0.597578
      22A     -0.592119    23A     -0.578907    24A     -0.539893
      25A     -0.536826    26A     -0.522783    27A     -0.500761
      28A     -0.478288    29A     -0.473261    30A     -0.470516
      31A     -0.455855    32A     -0.437141

  @DF-RHF Final Energy:  -383.94144223167717

   => Energetics <=

    Nuclear Repulsion Energy =            381.1083242805000850
    One-Electron Energy =               -1278.2123139444122444
    Two-Electron Energy =                 513.1625474322349874
    DFT Exchange-Correlation Energy =       0.0000000000000000
    Empirical Dispersion Energy =           0.0000000000000000
    PCM Polarization Energy =               0.0000000000000000
    EFP Energy =                            0.0000000000000000
    Total Energy =                       -383.9414422316772288

  Mulliken Charges: (a.u.)
   Center  Symbol    Alpha    Beta     Spin     Total
       1     O     4.28592  4.28592  0.00000 -0.57183
       2     C     2.60547  2.60547  0.00000  0.78905
       3     C     3.20821  3.20821  0.00000 -0.41642
       4     O     4.30716  4.30716  0.00000 -0.61433
       5     C     3.15136  3.15136  0.00000 -0.30271
       6     H     0.40080  0.40080  0.00000  0.19840
       7     H     0.40037  0.40037  0.00000  0.19926
       8     C     3.15433  3.15433  0.00000 -0.30867
       9     H     0.40994  0.40994  0.00000  0.18013
      10     H     0.41360  0.41360  0.00000  0.17280
      11     C     3.23934  3.23934  0.00000 -0.47868
      12     H     0.42278  0.42278  0.00000  0.15445
      13     H     0.42311  0.42311  0.00000  0.15378
      14     H     0.41979  0.41979  0.00000  0.16043
      15     H     0.41875  0.41875  0.00000  0.16251
      16     H     0.42014  0.42014  0.00000  0.15972
      17     C     3.09244  3.09244  0.00000 -0.18488
      18     H     0.40907  0.40907  0.00000  0.18187
      19     H     0.40841  0.40841  0.00000  0.18319
      20     H     0.40903  0.40903  0.00000  0.18193

   Total alpha = 32.00000, Total beta = 32.00000, Total charge = -0.00000
