  ==> Input File <==

--------------------------------------------------------------------------
set {
	reference rhf
	basis 6-31G*
}

set_num_threads( 1 )
memory 2 gb

molecule MOL {
0 1

H	 -2.172150	 0.880146	 0.502514
C	 -2.018062	 -0.000025	 -0.114509
O	 -0.774054	 0.001095	 -0.743181
H	 -2.760490	 0.003458	 -0.901350
H	 -2.173624	 -0.884374	 0.496163
C	 -0.703038	 0.039389	 -2.157402
C	 0.796922	 0.033100	 -2.443918
C	 -1.358491	 -1.198871	 -2.777307
C	 -1.334838	 1.321815	 -2.708154
H	 1.251862	 -0.860656	 -2.032018
H	 1.268563	 0.893725	 -1.983208
H	 0.991190	 0.060976	 -3.511225
H	 -0.955364	 -2.101008	 -2.329350
H	 -1.165227	 -1.232049	 -3.844617
H	 -2.434807	 -1.202783	 -2.642835
H	 -0.914857	 2.190425	 -2.211983
H	 -1.140660	 1.409568	 -3.772169
H	 -2.410961	 1.338640	 -2.572854

	symmetry c1
}
set optking {
	frozen_dihedral = ("
		2 3 6 7
	")
}

ee = energy('scf')
oeprop('DIPOLE', 'QUADRUPOLE', 'MULLIKEN_CHARGES')
f=open( 'psi4out.xyz', 'w' )
f.write( "18  " )
f.write( str(ee) + "\n" )
f.write( MOL.save_string_xyz() )
f.close()
--------------------------------------------------------------------------

    Molecular point group: c1

    Geometry (in Angstrom), charge = 0, multiplicity = 1:

       Center              X                  Y                   Z               Mass
    ------------   -----------------  -----------------  -----------------  -----------------
           H         -1.258228506679     0.847651974744     2.310911721916     1.007825032070
           C         -1.104140506679    -0.032519025256     1.693888721916    12.000000000000
           O          0.139867493321    -0.031399025256     1.065216721916    15.994914619560
           H         -1.846568506679    -0.029036025256     0.907047721916     1.007825032070
           H         -1.259702506679    -0.916868025256     2.304560721916     1.007825032070
           C          0.210883493321     0.006894974744    -0.349004278084    12.000000000000
           C          1.710843493321     0.000605974744    -0.635520278084    12.000000000000
           C         -0.444569506679    -1.231365025256    -0.968909278084    12.000000000000
           C         -0.420916506679     1.289320974744    -0.899756278084    12.000000000000
           H          2.165783493321    -0.893150025256    -0.223620278084     1.007825032070
           H          2.182484493321     0.861230974744    -0.174810278084     1.007825032070
           H          1.905111493321     0.028481974744    -1.702827278084     1.007825032070
           H         -0.041442506679    -2.133502025256    -0.520952278084     1.007825032070
           H         -0.251305506679    -1.264543025256    -2.036219278084     1.007825032070
           H         -1.520885506679    -1.235277025256    -0.834437278084     1.007825032070
           H         -0.000935506679     2.157930974744    -0.403585278084     1.007825032070
           H         -0.226738506679     1.377073974744    -1.963771278084     1.007825032070
           H         -1.497039506679     1.306145974744    -0.764456278084     1.007825032070

  Charge       = 0
  Multiplicity = 1
  Basis Set: 6-31G*
  Basis Set:

    Orbital Energies (a.u.)
    -----------------------

    Doubly Occupied:

       1A    -20.543632     2A    -11.282708     3A    -11.260718
       4A    -11.209149     5A    -11.209130     6A    -11.203530
       7A     -1.369102     8A     -1.072988     9A     -0.947038
      10A     -0.940194    11A     -0.911473    12A     -0.753173
      13A     -0.655383    14A     -0.643153    15A     -0.642844
      16A     -0.589712    17A     -0.573645    18A     -0.547896
      19A     -0.539572    20A     -0.525024    21A     -0.515585
      22A     -0.490374    23A     -0.487197    24A     -0.435198
      25A     -0.401964

  @DF-RHF Final Energy:  -271.17060921623272

   => Energetics <=

    Nuclear Repulsion Energy =            272.5096989048344085
    One-Electron Energy =                -907.8594691291184517
    Two-Electron Energy =                 364.1791610080507553
    DFT Exchange-Correlation Energy =       0.0000000000000000
    Empirical Dispersion Energy =           0.0000000000000000
    PCM Polarization Energy =               0.0000000000000000
    EFP Energy =                            0.0000000000000000
    Total Energy =                       -271.1706092162332880

  Mulliken Charges: (a.u.)
   Center  Symbol    Alpha    Beta     Spin     Total
       1     H     0.42187  0.42187  0.00000  0.15625
       2     C     3.07245  3.07245  0.00000 -0.14490
       3     O     4.32204  4.32204  0.00000 -0.64408
       4     H     0.43296  0.43296  0.00000  0.13408
       5     H     0.42122  0.42122  0.00000  0.15757
       6     C     2.84612  2.84612  0.00000  0.30776
       7     C     3.23242  3.23242  0.00000 -0.46484
       8     C     3.24584  3.24584  0.00000 -0.49168
       9     C     3.24586  3.24586  0.00000 -0.49172
      10     H     0.41385  0.41385  0.00000  0.17229
      11     H     0.41385  0.41385  0.00000  0.17230
      12     H     0.42524  0.42524  0.00000  0.14952
      13     H     0.41296  0.41296  0.00000  0.17408
      14     H     0.41976  0.41976  0.00000  0.16048
      15     H     0.42037  0.42037  0.00000  0.15927
      16     H     0.41299  0.41299  0.00000  0.17402
      17     H     0.41975  0.41975  0.00000  0.16050
      18     H     0.42045  0.42045  0.00000  0.15911

   Total alpha = 25.00000, Total beta = 25.00000, Total charge =  0.00000
