  ==> Input File <==

--------------------------------------------------------------------------
set {
	reference rhf
	basis 6-31G*
}

set_num_threads( 1 )
memory 2 gb

molecule MOL {
0 1

O	 -0.566270	 0.026763	 0.535134
C	 0.486307	 0.169203	 0.000779
C	 1.608116	 -0.841643	 0.000302
O	 0.819634	 1.258709	 -0.677069
C	 2.990107	 -0.200498	 -0.000684
H	 1.468623	 -1.481519	 -0.865924
H	 1.469683	 -1.481289	 0.866878
H	 3.129736	 0.423364	 -0.875135
H	 3.757882	 -0.966877	 -0.001197
H	 3.130964	 0.423383	 0.873533
C	 -0.145225	 2.302495	 -0.760484
C	 0.467347	 3.422793	 -1.574117
H	 -0.400173	 2.627567	 0.238973
H	 -1.043024	 1.916579	 -1.223751
H	 1.368380	 3.794609	 -1.099723
H	 -0.237618	 4.243028	 -1.662920
H	 0.721997	 3.079846	 -2.570509

	symmetry c1
}
set optking {
	frozen_dihedral = ("
		2 4 11 13,
		11 4 2 3
	")
}

ee = energy('scf')
oeprop('DIPOLE', 'QUADRUPOLE', 'MULLIKEN_CHARGES')
f=open( 'psi4out.xyz', 'w' )
f.write( "17  " )
f.write( str(ee) + "\n" )
f.write( MOL.save_string_xyz() )
f.close()
--------------------------------------------------------------------------

    Molecular point group: c1

    Geometry (in Angstrom), charge = 0, multiplicity = 1:

       Center              X                  Y                   Z               Mass
    ------------   -----------------  -----------------  -----------------  -----------------
           O         -1.373607639769    -0.869367650648     0.894207216687    15.994914619560
           C         -0.321030639769    -0.726927650648     0.359852216687    12.000000000000
           C          0.800778360231    -1.737773650648     0.359375216687    12.000000000000
           O          0.012296360231     0.362578349352    -0.317995783313    15.994914619560
           C          2.182769360231    -1.096628650648     0.358389216687    12.000000000000
           H          0.661285360231    -2.377649650648    -0.506850783313     1.007825032070
           H          0.662345360231    -2.377419650648     1.225951216687     1.007825032070
           H          2.322398360231    -0.472766650648    -0.516061783313     1.007825032070
           H          2.950544360231    -1.863007650648     0.357876216687     1.007825032070
           H          2.323626360231    -0.472747650648     1.232606216687     1.007825032070
           C         -0.952562639769     1.406364349352    -0.401410783313    12.000000000000
           C         -0.339990639769     2.526662349352    -1.215043783313    12.000000000000
           H         -1.207510639769     1.731436349352     0.598046216687     1.007825032070
           H         -1.850361639769     1.020448349352    -0.864677783313     1.007825032070
           H          0.561042360231     2.898478349352    -0.740649783313     1.007825032070
           H         -1.044955639769     3.346897349352    -1.303846783313     1.007825032070
           H         -0.085340639769     2.183715349352    -2.211435783313     1.007825032070

  Charge       = 0
  Multiplicity = 1
  Basis Set: 6-31G*
  Basis Set:

    Orbital Energies (a.u.)
    -----------------------

    Doubly Occupied:

       1A    -20.602284     2A    -20.542387     3A    -11.371213
       4A    -11.285327     5A    -11.237031     6A    -11.223073
       7A    -11.220067     8A     -1.468080     9A     -1.361171
      10A     -1.074796    11A     -1.029610    12A     -0.904349
      13A     -0.859790    14A     -0.778173    15A     -0.691757
      16A     -0.678311    17A     -0.673626    18A     -0.626430
      19A     -0.580497    20A     -0.571224    21A     -0.552011
      22A     -0.546637    23A     -0.525003    24A     -0.514646
      25A     -0.504784    26A     -0.490963    27A     -0.452012
      28A     -0.430977

  @DF-RHF Final Energy:  -344.90922503175369

   => Energetics <=

    Nuclear Repulsion Energy =            318.6793689721332044
    One-Electron Energy =               -1101.5847720839606154
    Two-Electron Energy =                 437.9961780800732072
    DFT Exchange-Correlation Energy =       0.0000000000000000
    Empirical Dispersion Energy =           0.0000000000000000
    PCM Polarization Energy =               0.0000000000000000
    EFP Energy =                            0.0000000000000000
    Total Energy =                       -344.9092250317541470

  Mulliken Charges: (a.u.)
   Center  Symbol    Alpha    Beta     Spin     Total
       1     O     4.28803  4.28803  0.00000 -0.57606
       2     C     2.60579  2.60579  0.00000  0.78842
       3     C     3.20560  3.20560  0.00000 -0.41119
       4     O     4.31008  4.31008  0.00000 -0.62015
       5     C     3.24317  3.24317  0.00000 -0.48633
       6     H     0.40049  0.40049  0.00000  0.19901
       7     H     0.39814  0.39814  0.00000  0.20372
       8     H     0.40601  0.40601  0.00000  0.18797
       9     H     0.41621  0.41621  0.00000  0.16758
      10     H     0.41562  0.41562  0.00000  0.16875
      11     C     3.00214  3.00214  0.00000 -0.00428
      12     C     3.24890  3.24890  0.00000 -0.49780
      13     H     0.40980  0.40980  0.00000  0.18040
      14     H     0.41005  0.41005  0.00000  0.17990
      15     H     0.41194  0.41194  0.00000  0.17611
      16     H     0.41597  0.41597  0.00000  0.16805
      17     H     0.41204  0.41204  0.00000  0.17591

   Total alpha = 28.00000, Total beta = 28.00000, Total charge = -0.00000
