                              Psi4 1.0.54 Driver

  ==> Input File <==

--------------------------------------------------------------------------
set {
	reference rhf
	basis cc-pvtz
}

set_num_threads( 4 )
memory 2 gb

molecule MOL {
0 1

H	 -0.238917	 3.337200	 -2.310266
O	 -0.725258	 2.533277	 -2.301285
C	 -0.427838	 1.800476	 -1.145999
C	 0.950913	 1.175373	 -1.223986
H	 -0.498553	 2.415240	 -0.254263
H	 -1.172162	 1.021161	 -1.066416
O	 1.172093	 0.457955	 -0.054438
H	 1.706241	 1.953834	 -1.343884
H	 1.007835	 0.528378	 -2.096759
C	 2.395478	 -0.199028	 -0.000366
H	 2.505946	 -0.901710	 -0.823354
H	 3.174616	 0.545641	 -0.071768
H	 2.513730	 -0.742241	 0.934223

	symmetry c1
}
set optking {
	frozen_dihedral = ("
		4 7 10 13
	")
}

ee,wfn = optimize('scf', return_wfn=True)
oeprop( wfn, 'DIPOLE', 'QUADRUPOLE', 'MULLIKEN_CHARGES')
f=open( 'psi4out.xyz', 'w' )
f.write( "13  " )
f.write( str(ee) + "\n" )
f.write( MOL.save_string_xyz() )
f.close()
--------------------------------------------------------------------------

    Molecular point group: c1
  Charge       = 0
  Multiplicity = 1
  Basis Set: CC-PVTZ
  Basis Set:
  @DF-RHF Final Energy:  -268.06131089621289
    Total Energy =                       -268.0613108962128877
    Molecular point group: c1
  Basis Set: CC-PVTZ
  Basis Set:
  Basis Set: CC-PVTZ
  Basis Set:
  @DF-RHF Final Energy:  -268.06209248645706
    Total Energy =                       -268.0620924864570043
  Basis Set: CC-PVTZ
  Basis Set:
  Basis Set: CC-PVTZ
  Basis Set:
  @DF-RHF Final Energy:  -268.06231079625519
    Total Energy =                       -268.0623107962551330
  Basis Set: CC-PVTZ
  Basis Set:
  Charge       = 0
  Multiplicity = 1
  Basis Set: CC-PVTZ
  Basis Set:

    Orbital Energies (a.u.)
    -----------------------

    Doubly Occupied:

       1A    -20.556095     2A    -20.552896     3A    -11.269312
       4A    -11.267815     5A    -11.267519     6A     -1.392174
       7A     -1.369313     8A     -1.019786     9A     -0.914019
      10A     -0.842895    11A     -0.712102    12A     -0.676612
      13A     -0.663215    14A     -0.639401    15A     -0.597869
      16A     -0.571124    17A     -0.546974    18A     -0.491400
      19A     -0.483504    20A     -0.441752    21A     -0.424840

  @DF-RHF Final Energy:  -268.06231160032723

   => Energetics <=

    Nuclear Repulsion Energy =            190.5170399406186164
    One-Electron Energy =                -743.7574651879812109
    Two-Electron Energy =                 285.1781136470356159
    DFT Exchange-Correlation Energy =       0.0000000000000000
    Empirical Dispersion Energy =           0.0000000000000000
    PCM Polarization Energy =               0.0000000000000000
    EFP Energy =                            0.0000000000000000
    Total Energy =                       -268.0623116003270070
    Molecular point group: c1
  Basis Set: CC-PVTZ
  Basis Set:

  -Total Gradient:
     Atom            X                  Y                   Z
    ------   -----------------  -----------------  -----------------
       1        0.000006558309     0.000009740155    -0.000004117362
       2        0.000094378669    -0.000057352267     0.000066084480
       3       -0.000061256043    -0.000054184683     0.000092469281
       4        0.000090994981    -0.000016844558    -0.000132365608
       5       -0.000013098911     0.000028448834    -0.000005324188
       6       -0.000008729532    -0.000005899398     0.000007371236
       7       -0.000033410950     0.000035217396     0.000016877931
       8        0.000011236714    -0.000011838491     0.000033081120
       9        0.000004889220    -0.000010186373    -0.000009454716
      10       -0.000006250134     0.000026671543    -0.000054375506
      11       -0.000022447215     0.000012534362    -0.000006535677
      12       -0.000025597312     0.000013583617    -0.000002296760
      13       -0.000037267797     0.000030109863    -0.000001414233

  **** Optimization is complete! (in 4 steps) ****
    Final optimized geometry and variables:
    Molecular point group: c1

    Geometry (in Angstrom), charge = 0, multiplicity = 1:

    H           -0.873299616833     2.150374021944    -1.390604173941
    O           -1.377238012001     1.357841252899    -1.360995435396
    C           -1.088845814084     0.644413695577    -0.191479792218
    C            0.275902797015    -0.011262119225    -0.263519847838
    H           -1.141164276801     1.280060315228     0.686803895653
    H           -1.848971725963    -0.116994316033    -0.090637628608
    O            0.488554799467    -0.706877631513     0.920552816075
    H            1.046792074996     0.748152768040    -0.404525262289
    H            0.314120969492    -0.678561316229    -1.121930052604
    C            1.698174254186    -1.387994379451     0.982485034550
    H            1.774830664738    -2.133739151567     0.194777032249
    H            2.542276290473    -0.707399759652     0.895689952663
    H            1.749166418523    -1.885373686147     1.939892001449

  Mulliken Charges: (a.u.)
   Center  Symbol    Alpha    Beta     Spin     Total
       1     H     0.39407  0.39407  0.00000  0.21187
       2     O     4.20213  4.20213  0.00000 -0.40425
       3     C     2.97335  2.97335  0.00000  0.05331
       4     C     2.96511  2.96511  0.00000  0.06978
       5     H     0.46684  0.46684  0.00000  0.06633
       6     H     0.45268  0.45268  0.00000  0.09465
       7     O     4.17536  4.17536  0.00000 -0.35072
       8     H     0.48210  0.48210  0.00000  0.03580
       9     H     0.46957  0.46957  0.00000  0.06087
      10     C     3.03181  3.03181  0.00000 -0.06362
      11     H     0.46982  0.46982  0.00000  0.06035
      12     H     0.47126  0.47126  0.00000  0.05748
      13     H     0.44591  0.44591  0.00000  0.10817

   Total alpha = 21.00000, Total beta = 21.00000, Total charge =  0.00000

*** Psi4 exiting successfully. Buy a developer a beer!
