  ==> Input File <==

--------------------------------------------------------------------------
set {
	reference rhf
	basis cc-pvtz
}

set_num_threads( 4 )
memory 2 gb

molecule MOL {
0 1

O	 0.833172	 1.910651	 -0.442437
C	 0.010644	 1.882882	 -1.293165
C	 -1.253853	 1.063416	 -1.261764
O	 0.099476	 2.586948	 -2.409757
C	 -1.413045	 0.229353	 0.001137
H	 -2.084444	 1.750502	 -1.386314
H	 -1.252760	 0.437847	 -2.148401
C	 -2.702562	 -0.586401	 0.000228
H	 -1.392103	 0.882221	 0.866507
H	 -0.560073	 -0.432100	 0.103426
C	 -3.953810	 0.284959	 -0.000782
H	 -2.717793	 -1.238567	 -0.869075
H	 -2.719108	 -1.238472	 0.869576
H	 -3.983727	 0.924403	 -0.876454
H	 -4.852989	 -0.320147	 -0.001515
H	 -3.985140	 0.924399	 0.874841
C	 1.240762	 3.404477	 -2.572335
H	 1.296107	 4.142786	 -1.786164
H	 1.126943	 3.887583	 -3.529164
H	 2.141427	 2.808758	 -2.560275

	symmetry c1
}
set optking {
	frozen_dihedral = ("
		9 5 8 12
	")
}

ee = optimize('scf')
oeprop('DIPOLE', 'QUADRUPOLE', 'MULLIKEN_CHARGES')
f=open( 'psi4out.xyz', 'w' )
f.write( "20  " )
f.write( str(ee) + "\n" )
f.write( MOL.save_string_xyz() )
f.close()
--------------------------------------------------------------------------

    Molecular point group: c1
  Charge       = 0
  Multiplicity = 1
  Basis Set: CC-PVTZ
  Basis Set:
  @DF-RHF Final Energy:  -384.08087920519347
    Total Energy =                       -384.0808792051936962
    Molecular point group: c1
  Basis Set: CC-PVTZ
  Basis Set:
  Basis Set: CC-PVTZ
  Basis Set:
  @DF-RHF Final Energy:  -384.08129486023944
    Total Energy =                       -384.0812948602392680
  Basis Set: CC-PVTZ
  Basis Set:
  Basis Set: CC-PVTZ
  Basis Set:
  @DF-RHF Final Energy:  -384.08159799198029
    Total Energy =                       -384.0815979919796064
  Basis Set: CC-PVTZ
  Basis Set:
  Basis Set: CC-PVTZ
  Basis Set:
  @DF-RHF Final Energy:  -384.08152126132802
    Total Energy =                       -384.0815212613280210
  Basis Set: CC-PVTZ
  Basis Set:
  Basis Set: CC-PVTZ
  Basis Set:
  @DF-RHF Final Energy:  -384.08160926794875
    Total Energy =                       -384.0816092679488065
  Basis Set: CC-PVTZ
  Basis Set:
  Charge       = 0
  Multiplicity = 1
  Basis Set: CC-PVTZ
  Basis Set:

    Orbital Energies (a.u.)
    -----------------------

    Doubly Occupied:

       1A    -20.596297     2A    -20.534152     3A    -11.364635
       4A    -11.278474     5A    -11.233469     6A    -11.218679
       7A    -11.217486     8A    -11.210744     9A     -1.472224
      10A     -1.365812    11A     -1.089866    12A     -1.023708
      13A     -0.968661    14A     -0.895554    15A     -0.800532
      16A     -0.766193    17A     -0.703664    18A     -0.685975
      19A     -0.676063    20A     -0.635239    21A     -0.612176
      22A     -0.596051    23A     -0.570786    24A     -0.550021
      25A     -0.535154    26A     -0.524436    27A     -0.509951
      28A     -0.475168    29A     -0.472694    30A     -0.468546
      31A     -0.459097    32A     -0.440873

  @DF-RHF Final Energy:  -384.08161397372544

   => Energetics <=

    Nuclear Repulsion Energy =            385.3716942935017187
    One-Electron Energy =               -1287.0018585791876831
    Two-Electron Energy =                 517.5485503119607529
    DFT Exchange-Correlation Energy =       0.0000000000000000
    Empirical Dispersion Energy =           0.0000000000000000
    PCM Polarization Energy =               0.0000000000000000
    EFP Energy =                            0.0000000000000000
    Total Energy =                       -384.0816139737252115
    Molecular point group: c1
  Basis Set: CC-PVTZ
  Basis Set:

  -Total Gradient:
     Atom            X                  Y                   Z
    ------   -----------------  -----------------  -----------------
       1        0.000001824876     0.000001001564     0.000014290852
       2        0.000009544335    -0.000002170967    -0.000014154898
       3       -0.000014060792    -0.000009563899    -0.000009495807
       4       -0.000013858844    -0.000008712465    -0.000002020299
       5       -0.000019209662     0.000025841835     0.000015099920
       6       -0.000010732320     0.000009302049    -0.000004869765
       7        0.000000385612     0.000008298036    -0.000000658395
       8        0.000012361689    -0.000009881543    -0.000035582125
       9        0.000013854235    -0.000001982065     0.000011112174
      10       -0.000014313103    -0.000012519268     0.000010482567
      11        0.000020258758     0.000018078996     0.000007206003
      12        0.000002061570    -0.000015795625     0.000000638387
      13        0.000006398471     0.000001321429    -0.000001386316
      14        0.000001345441     0.000003689576    -0.000002975263
      15        0.000012589872    -0.000004769584     0.000004172362
      16       -0.000004342422     0.000005106907    -0.000002916653
      17        0.000001723022    -0.000002639166     0.000009293030
      18       -0.000000397665     0.000000449530     0.000000682137
      19       -0.000004815468    -0.000003576790     0.000001109487
      20       -0.000000617608    -0.000001478552    -0.000000027401

  **** Optimization is complete! (in 6 steps) ****
    Final optimized geometry and variables:
    Molecular point group: c1

    Geometry (in Angstrom), charge = 0, multiplicity = 1:

    O            1.718591898241     0.511801777126     0.562006503053
    C            0.891569429591     0.515833420216    -0.284744030130
    C           -0.399062568305    -0.262400999164    -0.253922470477
    O            0.997619935530     1.224673158638    -1.396994277764
    C           -0.570448279336    -1.103062964991     1.004896086767
    H           -1.201399997429     0.455696557124    -0.374533716459
    H           -0.419774644370    -0.882992644930    -1.144219144591
    C           -1.838295128872    -1.957925443239     1.005737895565
    H           -0.566278735737    -0.453089014318     1.873085687251
    H            0.293010339945    -1.748373841539     1.110618999623
    C           -3.143344252933    -1.166442012094     1.047790859185
    H           -1.837622852086    -2.607304379246     0.133986516092
    H           -1.801521236656    -2.613649844869     1.869451137404
    H           -3.283141009457    -0.562318381699     0.158938714518
    H           -3.994389138783    -1.833420842594     1.121608928835
    H           -3.168515215318    -0.503278613967     1.906361180738
    C            2.163691315673     2.006313334512    -1.559507393474
    H            2.246088940452     2.737313402050    -0.768883664117
    H            2.061231137353     2.499103656299    -2.512686564504
    H            3.044919478828     1.382080795130    -1.555409678885

  Mulliken Charges: (a.u.)
   Center  Symbol    Alpha    Beta     Spin     Total
       1     O     4.19679  4.19679  0.00000 -0.39359
       2     C     2.80489  2.80489  0.00000  0.39022
       3     C     3.10215  3.10215  0.00000 -0.20431
       4     O     4.14711  4.14711  0.00000 -0.29422
       5     C     3.08870  3.08870  0.00000 -0.17741
       6     H     0.43924  0.43924  0.00000  0.12153
       7     H     0.44015  0.44015  0.00000  0.11970
       8     C     3.09422  3.09422  0.00000 -0.18844
       9     H     0.44653  0.44653  0.00000  0.10693
      10     H     0.44114  0.44114  0.00000  0.11773
      11     C     3.15297  3.15297  0.00000 -0.30594
      12     H     0.45495  0.45495  0.00000  0.09009
      13     H     0.44574  0.44574  0.00000  0.10851
      14     H     0.45501  0.45501  0.00000  0.08997
      15     H     0.44549  0.44549  0.00000  0.10903
      16     H     0.45317  0.45317  0.00000  0.09367
      17     C     3.03790  3.03790  0.00000 -0.07579
      18     H     0.45434  0.45434  0.00000  0.09133
      19     H     0.44525  0.44525  0.00000  0.10949
      20     H     0.45426  0.45426  0.00000  0.09148

   Total alpha = 32.00000, Total beta = 32.00000, Total charge = -0.00000
