  ==> Input File <==

--------------------------------------------------------------------------
set {
	reference rhf
	basis cc-pvtz
}

set_num_threads( 4 )
memory 2 gb

molecule MOL {
0 1

O	 -0.600420	 -0.016102	 -0.434086
C	 0.485107	 0.171416	 -0.000134
C	 1.606966	 -0.836201	 0.000174
O	 0.861889	 1.311786	 0.551390
C	 2.988788	 -0.202529	 -0.000115
H	 1.465110	 -1.474645	 -0.864821
H	 1.465209	 -1.474077	 0.865596
H	 3.131767	 0.419673	 -0.873407
H	 3.750876	 -0.972315	 0.000098
H	 3.131883	 0.420264	 0.872742
C	 -0.093028	 2.361257	 0.622315
C	 0.569859	 3.544420	 1.288043
H	 -0.951647	 2.019938	 1.183227
H	 -0.426378	 2.603457	 -0.376955
H	 0.900247	 3.289788	 2.287232
H	 -0.133549	 4.365696	 1.358438
H	 1.428461	 3.876684	 0.718154

	symmetry c1
}
set optking {
	frozen_dihedral = ("
		4 2 3 6
	")
}

ee = optimize('scf')
oeprop('DIPOLE', 'QUADRUPOLE', 'MULLIKEN_CHARGES')
f=open( 'psi4out.xyz', 'w' )
f.write( "17  " )
f.write( str(ee) + "\n" )
f.write( MOL.save_string_xyz() )
f.close()
--------------------------------------------------------------------------

    Molecular point group: c1
  Charge       = 0
  Multiplicity = 1
  Basis Set: CC-PVTZ
  Basis Set:
  @DF-RHF Final Energy:  -345.03743696715605
    Total Energy =                       -345.0374369671559407
    Molecular point group: c1
  Basis Set: CC-PVTZ
  Basis Set:
  Basis Set: CC-PVTZ
  Basis Set:
  @DF-RHF Final Energy:  -345.03800216644362
    Total Energy =                       -345.0380021664436754
  Basis Set: CC-PVTZ
  Basis Set:
  Basis Set: CC-PVTZ
  Basis Set:
  @DF-RHF Final Energy:  -345.03731707914949
    Total Energy =                       -345.0373170791494886
  Basis Set: CC-PVTZ
  Basis Set:
  Basis Set: CC-PVTZ
  Basis Set:
  @DF-RHF Final Energy:  -345.03833349233400
    Total Energy =                       -345.0383334923342318
  Basis Set: CC-PVTZ
  Basis Set:
  Basis Set: CC-PVTZ
  Basis Set:
  @DF-RHF Final Energy:  -345.03834762043277
    Total Energy =                       -345.0383476204332283
  Basis Set: CC-PVTZ
  Basis Set:
  Charge       = 0
  Multiplicity = 1
  Basis Set: CC-PVTZ
  Basis Set:

    Orbital Energies (a.u.)
    -----------------------

    Doubly Occupied:

       1A    -20.595789     2A    -20.529165     3A    -11.363562
       4A    -11.283328     5A    -11.236000     6A    -11.221145
       7A    -11.219457     8A     -1.471284     9A     -1.363282
      10A     -1.073142    11A     -1.031137    12A     -0.906559
      13A     -0.861159    14A     -0.780229    15A     -0.693507
      16A     -0.680010    17A     -0.675625    18A     -0.629284
      19A     -0.580363    20A     -0.573784    21A     -0.553793
      22A     -0.549579    23A     -0.523966    24A     -0.514081
      25A     -0.507189    26A     -0.492091    27A     -0.454890
      28A     -0.434005

  @DF-RHF Final Energy:  -345.03834812607937

   => Energetics <=

    Nuclear Repulsion Energy =            318.0171260243291158
    One-Electron Energy =               -1100.5161424150246603
    Two-Electron Energy =                 437.4606682646162312
    DFT Exchange-Correlation Energy =       0.0000000000000000
    Empirical Dispersion Energy =           0.0000000000000000
    PCM Polarization Energy =               0.0000000000000000
    EFP Energy =                            0.0000000000000000
    Total Energy =                       -345.0383481260792564
    Molecular point group: c1
  Basis Set: CC-PVTZ
  Basis Set:

  -Total Gradient:
     Atom            X                  Y                   Z
    ------   -----------------  -----------------  -----------------
       1        0.000077054804     0.000031281736     0.000022525618
       2       -0.000286032911    -0.000326203274     0.000587526552
       3       -0.000433487232    -0.000451320782     0.000278248248
       4        0.000194635720     0.000322484305    -0.000491842117
       5        0.000012037605     0.000008749061    -0.000014106416
       6        0.000421097538     0.000442505125    -0.000376918726
       7        0.000007540574     0.000010316697     0.000001118660
       8       -0.000002861803     0.000002632795    -0.000002634132
       9        0.000000703728    -0.000009987684     0.000001559913
      10       -0.000019580827    -0.000005089588    -0.000000129566
      11        0.000046263468    -0.000046516228    -0.000020843157
      12       -0.000006052886     0.000007945685     0.000007800972
      13       -0.000007677279     0.000006678944     0.000004543803
      14       -0.000009948647     0.000008520948     0.000000339282
      15        0.000003815930     0.000002320146     0.000004300351
      16        0.000001294454    -0.000003849869    -0.000000592441
      17        0.000001197766    -0.000000468019    -0.000000896844

  **** Optimization is complete! (in 6 steps) ****
    Final optimized geometry and variables:
    Molecular point group: c1

    Geometry (in Angstrom), charge = 0, multiplicity = 1:

    O           -1.414221551970    -0.940873633105    -0.712245993271
    C           -0.325780429394    -0.728409317562    -0.295185714120
    C            0.782470120329    -1.755387479952    -0.307022382775
    O            0.029797232903     0.419875344042     0.248931758842
    C            2.205472810652    -1.209605696007    -0.297747035832
    H            0.608678878307    -2.375957811119    -1.174967974019
    H            0.615867430538    -2.384692134299     0.561958232200
    H            2.386196728530    -0.568054328998    -1.151689286950
    H            2.911558065808    -2.029785223579    -0.341638040742
    H            2.405566627249    -0.636910524194     0.596714194022
    C           -0.954114776691     1.441384565040     0.340157895127
    C           -0.312389016569     2.644297764404     0.990974276906
    H           -1.789833456782     1.074603728996     0.919003138902
    H           -1.315372659232     1.671440813675    -0.652006008732
    H            0.046165629716     2.401349854681     1.983380657373
    H           -1.038473474123     3.444181489374     1.075533272274
    H            0.523595684603     3.001636259621     0.402893795547

  Mulliken Charges: (a.u.)
   Center  Symbol    Alpha    Beta     Spin     Total
       1     O     4.20254  4.20254  0.00000 -0.40508
       2     C     2.81157  2.81157  0.00000  0.37686
       3     C     3.08807  3.08807  0.00000 -0.17614
       4     O     4.14897  4.14897  0.00000 -0.29794
       5     C     3.14296  3.14296  0.00000 -0.28592
       6     H     0.43586  0.43586  0.00000  0.12827
       7     H     0.44500  0.44500  0.00000  0.10999
       8     H     0.45171  0.45171  0.00000  0.09657
       9     H     0.44910  0.44910  0.00000  0.10181
      10     H     0.44772  0.44772  0.00000  0.10457
      11     C     2.97885  2.97885  0.00000  0.04230
      12     C     3.13392  3.13392  0.00000 -0.26783
      13     H     0.45356  0.45356  0.00000  0.09289
      14     H     0.45368  0.45368  0.00000  0.09263
      15     H     0.45159  0.45159  0.00000  0.09681
      16     H     0.45367  0.45367  0.00000  0.09267
      17     H     0.45123  0.45123  0.00000  0.09754

   Total alpha = 28.00000, Total beta = 28.00000, Total charge =  0.00000
