  ==> Input File <==

--------------------------------------------------------------------------
set {
	reference rhf
	basis 6-31G*
}

set_num_threads( 1 )
memory 2 gb

molecule MOL {
0 1

O	 -2.042549	 -1.228399	 -0.269030
C	 -1.653912	 -0.146171	 0.050137
C	 -0.332303	 0.024011	 0.778412
C	 -2.438579	 1.106236	 -0.272369
C	 -0.437700	 1.109646	 1.861076
H	 -0.020041	 -0.915456	 1.225933
H	 0.412317	 0.313931	 0.045329
C	 0.882486	 1.334939	 2.599577
H	 -1.208852	 0.838664	 2.580087
H	 -0.759966	 2.035020	 1.393134
C	 0.782917	 2.420289	 3.670702
H	 1.204137	 0.402297	 3.057993
H	 1.652712	 1.605108	 1.881018
H	 0.043562	 2.162427	 4.423639
H	 0.494384	 3.373195	 3.236925
H	 1.733563	 2.560432	 4.175340
H	 -3.277823	 0.863061	 -0.908988
H	 -1.806773	 1.843019	 -0.759671
H	 -2.802853	 1.554979	 0.648059

	symmetry c1
}
set optking {
	frozen_dihedral = ("
		11 8 5 9,
		9 5 3 2
	")
}

ee = energy('scf')
oeprop('DIPOLE', 'QUADRUPOLE', 'MULLIKEN_CHARGES')
f=open( 'psi4out.xyz', 'w' )
f.write( "19  " )
f.write( str(ee) + "\n" )
f.write( MOL.save_string_xyz() )
f.close()
--------------------------------------------------------------------------

    Molecular point group: c1

    Geometry (in Angstrom), charge = 0, multiplicity = 1:

       Center              X                  Y                   Z               Mass
    ------------   -----------------  -----------------  -----------------  -----------------
           O         -1.289167632409    -1.900862975164    -1.479059536091    15.994914619560
           C         -0.900530632409    -0.818634975164    -1.159892536091    12.000000000000
           C          0.421078367591    -0.648452975164    -0.431617536091    12.000000000000
           C         -1.685197632409     0.433772024836    -1.482398536091    12.000000000000
           C          0.315681367591     0.437182024836     0.651046463909    12.000000000000
           H          0.733340367591    -1.587919975164     0.015903463909     1.007825032070
           H          1.165698367591    -0.358532975164    -1.164700536091     1.007825032070
           C          1.635867367591     0.662475024836     1.389547463909    12.000000000000
           H         -0.455470632409     0.166200024836     1.370057463909     1.007825032070
           H         -0.006584632409     1.362556024836     0.183104463909     1.007825032070
           C          1.536298367591     1.747825024836     2.460672463909    12.000000000000
           H          1.957518367591    -0.270166975164     1.847963463909     1.007825032070
           H          2.406093367591     0.932644024836     0.670988463909     1.007825032070
           H          0.796943367591     1.489963024836     3.213609463909     1.007825032070
           H          1.247765367591     2.700731024836     2.026895463909     1.007825032070
           H          2.486944367591     1.887968024836     2.965310463909     1.007825032070
           H         -2.524441632409     0.190597024836    -2.119017536091     1.007825032070
           H         -1.053391632409     1.170555024836    -1.969700536091     1.007825032070
           H         -2.049471632409     0.882515024836    -0.561970536091     1.007825032070

  Charge       = 0
  Multiplicity = 1
  Basis Set: 6-31G*
  Basis Set:

    Orbital Energies (a.u.)
    -----------------------

    Doubly Occupied:

       1A    -20.546812     2A    -11.324445     3A    -11.231435
       4A    -11.230461     5A    -11.228469     6A    -11.226590
       7A    -11.217041     8A     -1.392271     9A     -1.096542
      10A     -1.030907    11A     -0.980995    12A     -0.893695
      13A     -0.810011    14A     -0.733414    15A     -0.664480
      16A     -0.648871    17A     -0.626760    18A     -0.613830
      19A     -0.582890    20A     -0.575467    21A     -0.552617
      22A     -0.535761    23A     -0.517979    24A     -0.494495
      25A     -0.486337    26A     -0.477645    27A     -0.471718
      28A     -0.396289

  @DF-RHF Final Energy:  -309.06193869642709

   => Energetics <=

    Nuclear Repulsion Energy =            302.7264716238609026
    One-Electron Energy =               -1018.4003799896343025
    Two-Electron Energy =                 406.6119696693468200
    DFT Exchange-Correlation Energy =       0.0000000000000000
    Empirical Dispersion Energy =           0.0000000000000000
    PCM Polarization Energy =               0.0000000000000000
    EFP Energy =                            0.0000000000000000
    Total Energy =                       -309.0619386964265800

  Mulliken Charges: (a.u.)
   Center  Symbol    Alpha    Beta     Spin     Total
       1     O     4.26261  4.26261  0.00000 -0.52522
       2     C     2.73064  2.73064  0.00000  0.53871
       3     C     3.20340  3.20340  0.00000 -0.40681
       4     C     3.29539  3.29539  0.00000 -0.59078
       5     C     3.16847  3.16847  0.00000 -0.33694
       6     H     0.39903  0.39903  0.00000  0.20195
       7     H     0.40731  0.40731  0.00000  0.18539
       8     C     3.15092  3.15092  0.00000 -0.30184
       9     H     0.41666  0.41666  0.00000  0.16667
      10     H     0.41795  0.41795  0.00000  0.16409
      11     C     3.24006  3.24006  0.00000 -0.48013
      12     H     0.41928  0.41928  0.00000  0.16143
      13     H     0.42149  0.42149  0.00000  0.15702
      14     H     0.42024  0.42024  0.00000  0.15952
      15     H     0.42126  0.42126  0.00000  0.15748
      16     H     0.41688  0.41688  0.00000  0.16625
      17     H     0.39496  0.39496  0.00000  0.21008
      18     H     0.40956  0.40956  0.00000  0.18088
      19     H     0.40388  0.40388  0.00000  0.19224

   Total alpha = 28.00000, Total beta = 28.00000, Total charge = -0.00000
