  ==> Input File <==

--------------------------------------------------------------------------
set {
	reference rhf
	basis 6-31G*
}

set_num_threads( 4 )
memory 2 gb

molecule MOL {
0 1

H	 -4.031818	 -0.453427	 -0.000094
C	 -2.967712	 -0.297022	 -0.000064
C	 -2.458620	 0.992929	 0.000032
C	 -2.109895	 -1.385637	 -0.000122
H	 -3.124998	 1.836319	 0.000077
C	 -1.090278	 1.193236	 0.000070
H	 -2.506361	 -2.384847	 -0.000198
C	 -0.739812	 -1.187531	 -0.000085
H	 -0.678594	 2.184290	 0.000146
C	 -0.226438	 0.104061	 0.000012
H	 -0.072310	 -2.027032	 -0.000131
C	 1.239129	 0.373821	 0.000060
O	 1.825151	 0.057957	 -1.145108
O	 1.832505	 0.826526	 0.928404
C	 3.221050	 0.282557	 -1.232820
H	 3.445361	 1.329687	 -1.091404
H	 3.507429	 -0.031945	 -2.224247
H	 3.745289	 -0.298479	 -0.488179

	symmetry c1
}
set optking {
	frozen_dihedral = ("
		13 12 10 6
	")
}

ee = optimize('scf')
oeprop('DIPOLE', 'QUADRUPOLE', 'MULLIKEN_CHARGES')
f=open( 'psi4out.xyz', 'w' )
f.write( "18  " )
f.write( str(ee) + "\n" )
f.write( MOL.save_string_xyz() )
f.close()
--------------------------------------------------------------------------

    Molecular point group: c1
  Charge       = 0
  Multiplicity = 1
  Basis Set: 6-31G*
  Basis Set:
  @DF-RHF Final Energy:  -457.33952536911119
    Total Energy =                       -457.3395253691116977
    Molecular point group: c1
  Basis Set: 6-31G*
  Basis Set:
  Basis Set: 6-31G*
  Basis Set:
  @DF-RHF Final Energy:  -457.33797290524859
    Total Energy =                       -457.3379729052487619
  Basis Set: 6-31G*
  Basis Set:
  Basis Set: 6-31G*
  Basis Set:
  @DF-RHF Final Energy:  -457.34000766413016
    Total Energy =                       -457.3400076641298710
  Basis Set: 6-31G*
  Basis Set:
  Basis Set: 6-31G*
  Basis Set:
  @DF-RHF Final Energy:  -457.34007074917088
    Total Energy =                       -457.3400707491711046
  Basis Set: 6-31G*
  Basis Set:
  Basis Set: 6-31G*
  Basis Set:
  @DF-RHF Final Energy:  -457.34007259269549
    Total Energy =                       -457.3400725926953783
  Basis Set: 6-31G*
  Basis Set:
  Charge       = 0
  Multiplicity = 1
  Basis Set: 6-31G*
  Basis Set:

    Orbital Energies (a.u.)
    -----------------------

    Doubly Occupied:

       1A    -20.609831     2A    -20.550145     3A    -11.380263
       4A    -11.283639     5A    -11.250915     6A    -11.244238
       7A    -11.243620     8A    -11.240969     9A    -11.239542
      10A    -11.238963    11A     -1.475218    12A     -1.367621
      13A     -1.166630    14A     -1.048923    15A     -1.025800
      16A     -0.979685    17A     -0.859751    18A     -0.838098
      19A     -0.780130    20A     -0.737784    21A     -0.685097
      22A     -0.679900    23A     -0.676329    24A     -0.630593
      25A     -0.629798    26A     -0.597312    27A     -0.591016
      28A     -0.549380    29A     -0.536090    30A     -0.517179
      31A     -0.507685    32A     -0.502079    33A     -0.459444
      34A     -0.444464    35A     -0.342638    36A     -0.342426

  @DF-RHF Final Energy:  -457.34007298492196

   => Energetics <=

    Nuclear Repulsion Energy =            491.8897595602362003
    One-Electron Energy =               -1597.9532823677363922
    Two-Electron Energy =                 648.7234498225786865
    DFT Exchange-Correlation Energy =       0.0000000000000000
    Empirical Dispersion Energy =           0.0000000000000000
    PCM Polarization Energy =               0.0000000000000000
    EFP Energy =                            0.0000000000000000
    Total Energy =                       -457.3400729849215622
    Molecular point group: c1
  Basis Set: 6-31G*
  Basis Set:

  -Total Gradient:
     Atom            X                  Y                   Z
    ------   -----------------  -----------------  -----------------
       1       -0.000003626686     0.000009201637    -0.000007985491
       2        0.000018773258    -0.000077514442     0.000012491908
       3        0.000062343511     0.000047510501    -0.000016880436
       4       -0.000082018910     0.000037231608     0.000025701395
       5       -0.000006548854    -0.000006118900     0.000008442481
       6       -0.000098018474    -0.000013148025    -0.004606778698
       7        0.000009738132     0.000003327927    -0.000005353083
       8        0.000070003463     0.000069402646     0.000010908252
       9        0.000008193115    -0.000009095311    -0.000000608564
      10       -0.000181922197     0.001334706827     0.006095247057
      11       -0.000005369681    -0.000000005749     0.000002216337
      12        0.000970023432    -0.005604763562     0.000059558649
      13       -0.000761697908     0.004191602711    -0.001599265219
      14       -0.000007477443     0.000000326712     0.000033833000
      15        0.000008671293     0.000031107721    -0.000012264120
      16        0.000008637859    -0.000006817535    -0.000002849980
      17       -0.000003987393    -0.000004490979     0.000002118538
      18       -0.000005716529    -0.000002463787     0.000001467977

  **** Optimization is complete! (in 6 steps) ****
    Final optimized geometry and variables:
    Molecular point group: c1

    Geometry (in Angstrom), charge = 0, multiplicity = 1:

    H           -4.004185474601    -0.592350971212     0.117490116098
    C           -2.942401297975    -0.423879540921     0.136242362839
    C           -2.446346205276     0.869662540304     0.154451515862
    C           -2.069879491945    -1.500589958601     0.137293400985
    H           -3.120980019685     1.706603256695     0.145876622166
    C           -1.079193451203     1.088036714488     0.186159653476
    H           -2.452327482178    -2.505129852331     0.118737774769
    C           -0.702318168670    -1.284785066969     0.150147820299
    H           -0.691400157050     2.090159401724     0.214925884919
    C           -0.206849243680     0.009969627140     0.196191659957
    H           -0.025089723377    -2.119527148013     0.128786412218
    C            1.268771310666     0.266274745307     0.188697227270
    O            1.824048833093    -0.076417458394    -0.962758472584
    O            1.869774859943     0.765039671567     1.084343954478
    C            3.220900904230     0.131785689417    -1.087191365660
    H            3.456933776556     1.180739301186    -0.982336510316
    H            3.481939678070    -0.215033143685    -2.074569835234
    H            3.757354954348    -0.430684448098    -0.336691693149

  Mulliken Charges: (a.u.)
   Center  Symbol    Alpha    Beta     Spin     Total
       1     H     0.39634  0.39634  0.00000  0.20732
       2     C     3.09638  3.09638  0.00000 -0.19276
       3     C     3.10087  3.10087  0.00000 -0.20175
       4     C     3.10106  3.10106  0.00000 -0.20211
       5     H     0.39570  0.39570  0.00000  0.20860
       6     C     3.09839  3.09839  0.00000 -0.19677
       7     H     0.39595  0.39595  0.00000  0.20810
       8     C     3.09529  3.09529  0.00000 -0.19059
       9     H     0.38801  0.38801  0.00000  0.22398
      10     C     3.01387  3.01387  0.00000 -0.02773
      11     H     0.39121  0.39121  0.00000  0.21758
      12     C     2.63653  2.63653  0.00000  0.72695
      13     O     4.29569  4.29569  0.00000 -0.59138
      14     O     4.27778  4.27778  0.00000 -0.55556
      15     C     3.09434  3.09434  0.00000 -0.18868
      16     H     0.40760  0.40760  0.00000  0.18480
      17     H     0.40651  0.40651  0.00000  0.18698
      18     H     0.40848  0.40848  0.00000  0.18304

   Total alpha = 36.00000, Total beta = 36.00000, Total charge = -0.00000
