  ==> Input File <==

--------------------------------------------------------------------------
set {
	reference rhf
	basis 6-31G*
}

set_num_threads( 1 )
memory 2 gb

molecule MOL {
0 1

H	 2.343737	 -1.771508	 0.669311
O	 2.826016	 -1.159218	 0.122261
C	 2.077727	 -0.067559	 -0.035091
C	 0.624473	 -0.343591	 0.253101
O	 2.542965	 0.974826	 -0.363729
C	 -0.265902	 0.883932	 0.072916
H	 0.324016	 -1.163849	 -0.390541
H	 0.565024	 -0.726111	 1.268924
C	 -1.728698	 0.646073	 0.462102
H	 -0.209144	 1.219470	 -0.958188
H	 0.135059	 1.692851	 0.673903
C	 -2.482460	 -0.343073	 -0.431425
H	 -2.245265	 1.602650	 0.432430
H	 -1.779332	 0.308348	 1.496285
C	 -3.960546	 -0.461025	 -0.060175
H	 -2.395034	 -0.026811	 -1.468912
H	 -2.024850	 -1.327147	 -0.371646
H	 -4.472726	 -1.168004	 -0.705284
H	 -4.465146	 0.496508	 -0.151489
H	 -4.081218	 -0.800940	 0.964585

	symmetry c1
}
set optking {
	frozen_dihedral = ("
		16 12 9 6,
		7 4 6 10,
		12 9 6 10,
		5 3 4 7
	")
}

ee = energy('scf')
oeprop('DIPOLE', 'QUADRUPOLE', 'MULLIKEN_CHARGES')
f=open( 'psi4out.xyz', 'w' )
f.write( "20  " )
f.write( str(ee) + "\n" )
f.write( MOL.save_string_xyz() )
f.close()
--------------------------------------------------------------------------

    Molecular point group: c1

    Geometry (in Angstrom), charge = 0, multiplicity = 1:

       Center              X                  Y                   Z               Mass
    ------------   -----------------  -----------------  -----------------  -----------------
           H          2.355767924409    -1.764187263480     0.662887415586     1.007825032070
           O          2.838046924409    -1.151897263480     0.115837415586    15.994914619560
           C          2.089757924409    -0.060238263480    -0.041514584414    12.000000000000
           C          0.636503924409    -0.336270263480     0.246677415586    12.000000000000
           O          2.554995924409     0.982146736520    -0.370152584414    15.994914619560
           C         -0.253871075591     0.891252736520     0.066492415586    12.000000000000
           H          0.336046924409    -1.156528263480    -0.396964584414     1.007825032070
           H          0.577054924409    -0.718790263480     1.262500415586     1.007825032070
           C         -1.716667075591     0.653393736520     0.455678415586    12.000000000000
           H         -0.197113075591     1.226790736520    -0.964611584414     1.007825032070
           H          0.147089924409     1.700171736520     0.667479415586     1.007825032070
           C         -2.470429075591    -0.335752263480    -0.437848584414    12.000000000000
           H         -2.233234075591     1.609970736520     0.426006415586     1.007825032070
           H         -1.767301075591     0.315668736520     1.489861415586     1.007825032070
           C         -3.948515075591    -0.453704263480    -0.066598584414    12.000000000000
           H         -2.383003075591    -0.019490263480    -1.475335584414     1.007825032070
           H         -2.012819075591    -1.319826263480    -0.378069584414     1.007825032070
           H         -4.460695075591    -1.160683263480    -0.711707584414     1.007825032070
           H         -4.453115075591     0.503828736520    -0.157912584414     1.007825032070
           H         -4.069187075591    -0.793619263480     0.958161415586     1.007825032070

  Charge       = 0
  Multiplicity = 1
  Basis Set: 6-31G*
  Basis Set:

    Orbital Energies (a.u.)
    -----------------------

    Doubly Occupied:

       1A    -20.613648     2A    -20.550046     3A    -11.380829
       4A    -11.251742     5A    -11.229633     6A    -11.226246
       7A    -11.225655     8A    -11.216937     9A     -1.470524
      10A     -1.370470    11A     -1.102724    12A     -1.046063
      13A     -0.962833    14A     -0.866469    15A     -0.828579
      16A     -0.794842    17A     -0.721252    18A     -0.672265
      19A     -0.661524    20A     -0.636916    21A     -0.616885
      22A     -0.599640    23A     -0.568729    24A     -0.565745
      25A     -0.549053    26A     -0.516999    27A     -0.502944
      28A     -0.478632    29A     -0.473922    30A     -0.472982
      31A     -0.463227    32A     -0.440153

  @DF-RHF Final Energy:  -383.93475933760624

   => Energetics <=

    Nuclear Repulsion Energy =            376.5885580462246480
    One-Electron Energy =               -1268.8903760580349172
    Two-Electron Energy =                 508.3670586742042588
    DFT Exchange-Correlation Energy =       0.0000000000000000
    Empirical Dispersion Energy =           0.0000000000000000
    PCM Polarization Energy =               0.0000000000000000
    EFP Energy =                            0.0000000000000000
    Total Energy =                       -383.9347593376060104

  Mulliken Charges: (a.u.)
   Center  Symbol    Alpha    Beta     Spin     Total
       1     H     0.26806  0.26806  0.00000  0.46389
       2     O     4.34945  4.34945  0.00000 -0.69889
       3     C     2.60362  2.60362  0.00000  0.79277
       4     C     3.24281  3.24281  0.00000 -0.48562
       5     O     4.26727  4.26727  0.00000 -0.53453
       6     C     3.15315  3.15315  0.00000 -0.30631
       7     H     0.39716  0.39716  0.00000  0.20568
       8     H     0.40936  0.40936  0.00000  0.18129
       9     C     3.15632  3.15632  0.00000 -0.31264
      10     H     0.40862  0.40862  0.00000  0.18276
      11     H     0.40528  0.40528  0.00000  0.18944
      12     C     3.15467  3.15467  0.00000 -0.30933
      13     H     0.41627  0.41627  0.00000  0.16746
      14     H     0.42449  0.42449  0.00000  0.15101
      15     C     3.23932  3.23932  0.00000 -0.47863
      16     H     0.42004  0.42004  0.00000  0.15992
      17     H     0.42534  0.42534  0.00000  0.14932
      18     H     0.41769  0.41769  0.00000  0.16461
      19     H     0.41959  0.41959  0.00000  0.16083
      20     H     0.42151  0.42151  0.00000  0.15697

   Total alpha = 32.00000, Total beta = 32.00000, Total charge =  0.00000
