                              Psi4 1.0.54 Driver

  ==> Input File <==

--------------------------------------------------------------------------
set {
	reference rhf
	basis cc-pvtz
}

set_num_threads( 4 )
memory 2 gb

molecule MOL {
0 1

O	 1.991714	 1.029589	 0.699955
C	 1.704209	 0.119472	 -0.000093
C	 0.380337	 -0.600947	 -0.000234
O	 2.531095	 -0.394761	 -0.895772
C	 -0.824290	 0.329213	 -0.000115
H	 0.371455	 -1.255476	 -0.865660
H	 0.371410	 -1.255787	 0.864952
C	 -2.146151	 -0.432825	 -0.000068
H	 -0.773936	 0.979158	 -0.866319
H	 -0.773838	 0.979034	 0.866186
C	 -3.366283	 0.483552	 0.000557
H	 -2.189286	 -1.084450	 -0.869996
H	 -2.188867	 -1.085083	 0.869399
C	 -4.687436	 -0.278003	 0.000108
H	 -3.325150	 1.134819	 -0.867957
H	 -3.325087	 1.133730	 0.869885
H	 -4.773783	 -0.912098	 -0.876078
H	 -5.531922	 0.401392	 0.000363
H	 -4.773901	 -0.912898	 0.875703
C	 3.814374	 0.187343	 -1.003823
H	 3.738643	 1.229186	 -1.277759
H	 4.327246	 -0.363934	 -1.775123
H	 4.349536	 0.106736	 -0.069309

	symmetry c1
}
set optking {
	frozen_dihedral = ("
		1 2 3 6
	")
}

ee,wfn = optimize('scf', return_wfn=True)
oeprop( wfn, 'DIPOLE', 'QUADRUPOLE', 'MULLIKEN_CHARGES')
f=open( 'psi4out.xyz', 'w' )
f.write( "23  " )
f.write( str(ee) + "\n" )
f.write( MOL.save_string_xyz() )
f.close()
--------------------------------------------------------------------------

    Molecular point group: c1
  Charge       = 0
  Multiplicity = 1
  Basis Set: CC-PVTZ
  Basis Set:
  @DF-RHF Final Energy:  -423.12947655811502
    Total Energy =                       -423.1294765581158117
    Molecular point group: c1
  Basis Set: CC-PVTZ
  Basis Set:
  Basis Set: CC-PVTZ
  Basis Set:
  @DF-RHF Final Energy:  -423.11038972296649
    Total Energy =                       -423.1103897229661470
  Basis Set: CC-PVTZ
  Basis Set:
  Basis Set: CC-PVTZ
  Basis Set:
  @DF-RHF Final Energy:  -423.12939772877542
    Total Energy =                       -423.1293977287751886
  Basis Set: CC-PVTZ
  Basis Set:
  Basis Set: CC-PVTZ
  Basis Set:
  @DF-RHF Final Energy:  -423.12947849481981
    Total Energy =                       -423.1294784948195229
  Basis Set: CC-PVTZ
  Basis Set:
  Basis Set: CC-PVTZ
  Basis Set:
  @DF-RHF Final Energy:  -423.12995125464704
    Total Energy =                       -423.1299512546472670
  Basis Set: CC-PVTZ
  Basis Set:
  Basis Set: CC-PVTZ
  Basis Set:
  @DF-RHF Final Energy:  -423.12998110668451
    Total Energy =                       -423.1299811066837719
  Basis Set: CC-PVTZ
  Basis Set:
  Basis Set: CC-PVTZ
  Basis Set:
  @DF-RHF Final Energy:  -423.12998223313696
    Total Energy =                       -423.1299822331359337
  Basis Set: CC-PVTZ
  Basis Set:
  Charge       = 0
  Multiplicity = 1
  Basis Set: CC-PVTZ
  Basis Set:

    Orbital Energies (a.u.)
    -----------------------

    Doubly Occupied:

       1A    -20.598446     2A    -20.531648     3A    -11.364285
       4A    -11.278552     5A    -11.232681     6A    -11.221152
       7A    -11.217076     8A    -11.215639     9A    -11.208496
      10A     -1.472589    11A     -1.364784    12A     -1.095433
      13A     -1.044735    14A     -0.987851    15A     -0.933871
      16A     -0.844865    17A     -0.796553    18A     -0.772268
      19A     -0.698031    20A     -0.684886    21A     -0.675276
      22A     -0.653978    23A     -0.608671    24A     -0.599938
      25A     -0.575351    26A     -0.569093    27A     -0.548777
      28A     -0.528470    29A     -0.525230    30A     -0.507032
      31A     -0.485824    32A     -0.472910    33A     -0.467711
      34A     -0.464678    35A     -0.458449    36A     -0.435211

  @DF-RHF Final Energy:  -423.12998249750746

   => Energetics <=

    Nuclear Repulsion Energy =            453.1720367464009200
    One-Electron Energy =               -1474.3231576261596274
    Two-Electron Energy =                 598.0211383822517064
    DFT Exchange-Correlation Energy =       0.0000000000000000
    Empirical Dispersion Energy =           0.0000000000000000
    PCM Polarization Energy =               0.0000000000000000
    EFP Energy =                            0.0000000000000000
    Total Energy =                       -423.1299824975070578
    Molecular point group: c1
  Basis Set: CC-PVTZ
  Basis Set:

  -Total Gradient:
     Atom            X                  Y                   Z
    ------   -----------------  -----------------  -----------------
       1        0.000269551931    -0.000754541318     0.000422904432
       2       -0.000372099527     0.000942800055    -0.000489684286
       3       -0.000260173881     0.000610385940    -0.000157747156
       4        0.000036691355    -0.000031140844    -0.000040820369
       5        0.000019649987    -0.000015398722    -0.000003828301
       6        0.000312739885    -0.000761577073     0.000263672370
       7       -0.000001592802    -0.000002426312     0.000005525568
       8       -0.000002277326     0.000007350632     0.000008667169
       9        0.000003217665     0.000010272153    -0.000004869118
      10        0.000000434118     0.000001636003     0.000011345855
      11       -0.000002695396    -0.000013021935    -0.000001790281
      12        0.000000351675    -0.000003363548    -0.000005982182
      13       -0.000003783228    -0.000005182298     0.000009294911
      14       -0.000007551019     0.000010923835     0.000001005516
      15        0.000003527863     0.000008998918    -0.000007657166
      16        0.000000266602     0.000000107359     0.000008747162
      17       -0.000001266440    -0.000002562752    -0.000008734877
      18       -0.000004976120     0.000001735477    -0.000001765630
      19        0.000001094977    -0.000008559857     0.000006549359
      20       -0.000003433260    -0.000002619802    -0.000023080157
      21        0.000006331925     0.000011739180     0.000002010344
      22        0.000009757242     0.000001045838    -0.000000639949
      23       -0.000003766225    -0.000006600928     0.000006876789

  **** Optimization is complete! (in 8 steps) ****
    Final optimized geometry and variables:
    Molecular point group: c1

    Geometry (in Angstrom), charge = 0, multiplicity = 1:

    O            2.018295172547     0.606219643615     1.012331243834
    C            1.723220046261    -0.049826036783     0.071200609815
    C            0.371343055728    -0.687078854524    -0.133341885335
    O            2.566150320723    -0.329261546025    -0.907557164172
    C           -0.781514169318     0.264677789468     0.177690976154
    H            0.307355285592    -1.076511387364    -1.139692562978
    H            0.335904398308    -1.538205936307     0.540661684934
    C           -2.143929773617    -0.409113430426     0.048212311344
    H           -0.733378140566     1.116460704244    -0.494932317328
    H           -0.653802519048     0.655486376090     1.179375808790
    C           -3.308285312937     0.531189376183     0.345907714274
    H           -2.256762101049    -0.811726460403    -0.955751905488
    H           -2.189248273375    -1.259977033301     0.724077398143
    C           -4.669817653394    -0.144148735244     0.220926229582
    H           -3.264385353134     1.380979303786    -0.329669872005
    H           -3.195766559769     0.933626110282     1.348595676052
    H           -4.826227217641    -0.527774632290    -0.781878360717
    H           -5.473364120573     0.550059727820     0.437945908730
    H           -4.758101320116    -0.977642713037     0.909857156617
    C            3.880277784067     0.179873031551    -0.794921037883
    H            3.868232987068     1.258750420377    -0.752477620132
    H            4.404599028612    -0.152876586202    -1.675953587211
    H            4.361725328026    -0.202347133100     0.092909647722

  Mulliken Charges: (a.u.)
   Center  Symbol    Alpha    Beta     Spin     Total
       1     O     4.20272  4.20272  0.00000 -0.40545
       2     C     2.81535  2.81535  0.00000  0.36931
       3     C     3.08472  3.08472  0.00000 -0.16944
       4     O     4.14335  4.14335  0.00000 -0.28670
       5     C     3.09238  3.09238  0.00000 -0.18475
       6     H     0.43834  0.43834  0.00000  0.12332
       7     H     0.44563  0.44563  0.00000  0.10874
       8     C     3.09028  3.09028  0.00000 -0.18055
       9     H     0.45180  0.45180  0.00000  0.09640
      10     H     0.43871  0.43871  0.00000  0.12259
      11     C     3.08418  3.08418  0.00000 -0.16836
      12     H     0.45519  0.45519  0.00000  0.08962
      13     H     0.45428  0.45428  0.00000  0.09144
      14     C     3.15033  3.15033  0.00000 -0.30067
      15     H     0.45392  0.45392  0.00000  0.09216
      16     H     0.45256  0.45256  0.00000  0.09489
      17     H     0.45535  0.45535  0.00000  0.08930
      18     H     0.44768  0.44768  0.00000  0.10464
      19     H     0.45490  0.45490  0.00000  0.09020
      20     C     3.03492  3.03492  0.00000 -0.06983
      21     H     0.45412  0.45412  0.00000  0.09177
      22     H     0.44503  0.44503  0.00000  0.10993
      23     H     0.45427  0.45427  0.00000  0.09146

   Total alpha = 36.00000, Total beta = 36.00000, Total charge = -0.00000

*** Psi4 exiting successfully. Buy a developer a beer!
