                              Psi4 1.0.54 Driver

  ==> Input File <==

--------------------------------------------------------------------------
set {
	reference rhf
	basis cc-pvtz
}

set_num_threads( 4 )
memory 2 gb

molecule MOL {
0 1

H	 -0.996459	 -0.743733	 1.271440
C	 -0.247079	 0.037112	 1.209233
N	 0.526334	 -0.128137	 -0.000000
H	 0.398009	 -0.057351	 2.073512
H	 -0.763760	 0.997171	 1.271673
C	 -0.247079	 0.037112	 -1.209233
H	 1.296738	 0.504427	 -0.000000
H	 -0.996459	 -0.743733	 -1.271440
H	 0.398009	 -0.057351	 -2.073512
H	 -0.763760	 0.997171	 -1.271673

	symmetry c1
}
ee,wfn = energy('scf', return_wfn=True)
oeprop( wfn, 'DIPOLE', 'QUADRUPOLE', 'MULLIKEN_CHARGES')
oeprop( wfn, 'GRID_ESP')
f=open( 'psi4out.xyz', 'w' )
f.write( "10  " )
f.write( str(ee) + "\n" )
f.write( MOL.save_string_xyz() )
f.close()
--------------------------------------------------------------------------

    Molecular point group: c1

    Geometry (in Angstrom), charge = 0, multiplicity = 1:

       Center              X                  Y                   Z               Mass
    ------------   -----------------  -----------------  -----------------  -----------------
           H         -0.996493273624    -0.743732845484     1.271440000000     1.007825032070
           C         -0.247113273624     0.037112154516     1.209233000000    12.000000000000
           N          0.526299726376    -0.128136845484     0.000000000000    14.003074004780
           H          0.397974726376    -0.057350845484     2.073512000000     1.007825032070
           H         -0.763794273624     0.997171154516     1.271673000000     1.007825032070
           C         -0.247113273624     0.037112154516    -1.209233000000    12.000000000000
           H          1.296703726376     0.504427154516     0.000000000000     1.007825032070
           H         -0.996493273624    -0.743732845484    -1.271440000000     1.007825032070
           H          0.397974726376    -0.057350845484    -2.073512000000     1.007825032070
           H         -0.763794273624     0.997171154516    -1.271673000000     1.007825032070

  Charge       = 0
  Multiplicity = 1
  Basis Set: CC-PVTZ
  Basis Set:

    Orbital Energies (a.u.)
    -----------------------

    Doubly Occupied:

       1A    -15.532565     2A    -11.234313     3A    -11.234296
       4A     -1.201043     5A     -0.948295     6A     -0.854768
       7A     -0.662836     8A     -0.613352     9A     -0.592510
      10A     -0.539179    11A     -0.510911    12A     -0.507304
      13A     -0.364258

  @DF-RHF Final Energy:  -134.29308525783347

   => Energetics <=

    Nuclear Repulsion Energy =             84.7522307912325914
    One-Electron Energy =                -348.4991339052889998
    Two-Electron Energy =                 129.4538178562228268
    DFT Exchange-Correlation Energy =       0.0000000000000000
    Empirical Dispersion Energy =           0.0000000000000000
    PCM Polarization Energy =               0.0000000000000000
    EFP Energy =                            0.0000000000000000
    Total Energy =                       -134.2930852578335816

  Mulliken Charges: (a.u.)
   Center  Symbol    Alpha    Beta     Spin     Total
       1     H     0.45700  0.45700  0.00000  0.08599
       2     C     3.08095  3.08095  0.00000 -0.16190
       3     N     3.62866  3.62866  0.00000 -0.25732
       4     H     0.45241  0.45241  0.00000  0.09518
       5     H     0.47502  0.47502  0.00000  0.04995
       6     C     3.08095  3.08095  0.00000 -0.16190
       7     H     0.44057  0.44057  0.00000  0.11887
       8     H     0.45700  0.45700  0.00000  0.08600
       9     H     0.45241  0.45241  0.00000  0.09518
      10     H     0.47502  0.47502  0.00000  0.04996

   Total alpha = 13.00000, Total beta = 13.00000, Total charge = -0.00000

*** Psi4 exiting successfully. Buy a developer a beer!
