  ==> Input File <==

--------------------------------------------------------------------------
set {
	reference rhf
	basis 6-31G*
}

set_num_threads( 4 )
memory 2 gb

molecule MOL {
0 1

O	 0.625848	 1.349995	 -0.000749
C	 0.486307	 0.169203	 0.000779
C	 1.608116	 -0.841643	 0.000302
O	 -0.698257	 -0.426125	 0.001050
C	 2.990107	 -0.200498	 -0.000684
H	 1.468623	 -1.481519	 -0.865924
H	 1.469683	 -1.481289	 0.866878
H	 3.129736	 0.423364	 -0.875135
H	 3.757882	 -0.966877	 -0.001197
H	 3.130964	 0.423383	 0.873533
C	 -0.753059	 -1.781857	 0.432776
C	 -2.197085	 -2.228266	 0.344357
H	 -0.376358	 -1.845115	 1.444547
H	 -0.110391	 -2.379441	 -0.199255
H	 -2.828423	 -1.616562	 0.978699
H	 -2.284845	 -3.261004	 0.665912
H	 -2.561089	 -2.153908	 -0.674087

	symmetry c1
}
set optking {
	frozen_dihedral = ("
		11 4 2 3
	")
}

ee = optimize('scf')
oeprop('DIPOLE', 'QUADRUPOLE', 'MULLIKEN_CHARGES')
f=open( 'psi4out.xyz', 'w' )
f.write( "17  " )
f.write( str(ee) + "\n" )
f.write( MOL.save_string_xyz() )
f.close()
--------------------------------------------------------------------------

    Molecular point group: c1
  Charge       = 0
  Multiplicity = 1
  Basis Set: 6-31G*
  Basis Set:
  @DF-RHF Final Energy:  -344.88605025041198
    Total Energy =                       -344.8860502504118131
    Molecular point group: c1
  Basis Set: 6-31G*
  Basis Set:
  Basis Set: 6-31G*
  Basis Set:
  @DF-RHF Final Energy:  -344.88534676426877
    Total Energy =                       -344.8853467642687747
  Basis Set: 6-31G*
  Basis Set:
  Basis Set: 6-31G*
  Basis Set:
  @DF-RHF Final Energy:  -344.89403434355228
    Total Energy =                       -344.8940343435522209
  Basis Set: 6-31G*
  Basis Set:
  Basis Set: 6-31G*
  Basis Set:
  @DF-RHF Final Energy:  -344.89565129352439
    Total Energy =                       -344.8956512935248497
  Basis Set: 6-31G*
  Basis Set:
  @DF-RHF Final Energy:  -344.89575466830996
    Total Energy =                       -344.8957546683097917
  @DF-RHF Final Energy:  -344.89661137681605
    Total Energy =                       -344.8966113768158834
  Basis Set: 6-31G*
  Basis Set:
  @DF-RHF Final Energy:  -344.89667933131506
    Total Energy =                       -344.8966793313148855
  Basis Set: 6-31G*
  Basis Set:
  Basis Set: 6-31G*
  Basis Set:
  @DF-RHF Final Energy:  -344.89668143943504
    Total Energy =                       -344.8966814394350422
  Basis Set: 6-31G*
  Basis Set:
  Basis Set: 6-31G*
  Basis Set:
  @DF-RHF Final Energy:  -344.89668342532246
    Total Energy =                       -344.8966834253225784
  Basis Set: 6-31G*
  Basis Set:
  Charge       = 0
  Multiplicity = 1
  Basis Set: 6-31G*
  Basis Set:

    Orbital Energies (a.u.)
    -----------------------

    Doubly Occupied:

       1A    -20.598041     2A    -20.539510     3A    -11.372750
       4A    -11.300052     5A    -11.247146     6A    -11.227585
       7A    -11.219765     8A     -1.461073     9A     -1.364038
      10A     -1.063655    11A     -1.046951    12A     -0.901168
      13A     -0.881103    14A     -0.771113    15A     -0.705130
      16A     -0.695328    17A     -0.654406    18A     -0.635068
      19A     -0.591081    20A     -0.573122    21A     -0.560644
      22A     -0.538352    23A     -0.525188    24A     -0.520765
      25A     -0.508168    26A     -0.496333    27A     -0.444302
      28A     -0.430437

  @DF-RHF Final Energy:  -344.89668413637673

   => Energetics <=

    Nuclear Repulsion Energy =            315.2553299803612390
    One-Electron Energy =               -1094.5594813955249265
    Two-Electron Energy =                 434.4074672787868963
    DFT Exchange-Correlation Energy =       0.0000000000000000
    Empirical Dispersion Energy =           0.0000000000000000
    PCM Polarization Energy =               0.0000000000000000
    EFP Energy =                            0.0000000000000000
    Total Energy =                       -344.8966841363767912
    Molecular point group: c1
  Basis Set: 6-31G*
  Basis Set:

  -Total Gradient:
     Atom            X                  Y                   Z
    ------   -----------------  -----------------  -----------------
       1       -0.000028256871     0.000013236854     0.000003964789
       2       -0.000121841548     0.000254715093     0.002729131484
       3        0.000024165277    -0.000002509042    -0.001280115880
       4        0.000348941348    -0.000724417387    -0.002799641253
       5       -0.000001683280    -0.000006536364     0.000002473023
       6        0.000015816273    -0.000002954288     0.000005200204
       7        0.000009571483     0.000002976109    -0.000003256481
       8        0.000000575525     0.000000720947    -0.000001634203
       9       -0.000000919529    -0.000000922551    -0.000000340539
      10       -0.000003585097    -0.000003611327    -0.000002148953
      11       -0.000232314024     0.000431024246     0.001351470925
      12       -0.000007174867     0.000019284234     0.000001084464
      13       -0.000003207172     0.000009464514    -0.000004727273
      14        0.000004146885     0.000005708604    -0.000000956276
      15       -0.000010051719    -0.000000116076     0.000000768498
      16        0.000008609492     0.000004594698    -0.000000796463
      17       -0.000002792182    -0.000000658264    -0.000000476064

  **** Optimization is complete! (in 10 steps) ****
    Final optimized geometry and variables:
    Molecular point group: c1

    Geometry (in Angstrom), charge = 0, multiplicity = 1:

    O            0.307699197387     1.831944189721    -0.146097821884
    C            0.248778483840     0.650634930571    -0.089939252480
    C            1.476742760086    -0.239913185675    -0.085097105000
    O           -0.948234041569     0.057664306035    -0.091102127756
    C            2.773391458702     0.559238603041    -0.145141736675
    H            1.402776705587    -0.914855353705    -0.933644873231
    H            1.460670211660    -0.867974517106     0.800818084572
    H            2.813674174369     1.166800107004    -1.040057812642
    H            3.624376778072    -0.113595779151    -0.145862922408
    H            2.860008482886     1.222358508271     0.706279152188
    C           -1.151423533780    -1.282842143906     0.316559452414
    C           -2.639363889647    -1.554587220404     0.233298215296
    H           -0.796195977522    -1.415865635115     1.332277957226
    H           -0.604522888977    -1.961351187649    -0.327390454446
    H           -3.184644045321    -0.876809252797     0.878808375544
    H           -2.849518568456    -2.573981681705     0.540575410966
    H           -2.992398456490    -1.418549640721    -0.782022919682

  Mulliken Charges: (a.u.)
   Center  Symbol    Alpha    Beta     Spin     Total
       1     O     4.26696  4.26696  0.00000 -0.53392
       2     C     2.60074  2.60074  0.00000  0.79853
       3     C     3.22996  3.22996  0.00000 -0.45993
       4     O     4.30847  4.30847  0.00000 -0.61694
       5     C     3.23447  3.23447  0.00000 -0.46893
       6     H     0.40213  0.40213  0.00000  0.19575
       7     H     0.40515  0.40515  0.00000  0.18970
       8     H     0.40674  0.40674  0.00000  0.18652
       9     H     0.41932  0.41932  0.00000  0.16136
      10     H     0.40793  0.40793  0.00000  0.18414
      11     C     3.00414  3.00414  0.00000 -0.00828
      12     C     3.24489  3.24489  0.00000 -0.48979
      13     H     0.41785  0.41785  0.00000  0.16431
      14     H     0.41918  0.41918  0.00000  0.16163
      15     H     0.40626  0.40626  0.00000  0.18749
      16     H     0.41790  0.41790  0.00000  0.16419
      17     H     0.40791  0.40791  0.00000  0.18418

   Total alpha = 28.00000, Total beta = 28.00000, Total charge =  0.00000
