                              Psi4 1.0.54 Driver

  ==> Input File <==

--------------------------------------------------------------------------
set {
	reference rhf
	basis cc-pvtz
}

set_num_threads( 4 )
memory 2 gb

molecule MOL {
0 1

H	 2.653452	 0.254265	 0.543770
O	 2.063695	 -0.083403	 -0.105237
C	 0.742924	 0.005675	 0.350750
H	 0.731380	 0.039219	 1.440080
C	 -0.064076	 -1.193495	 -0.124425
C	 -0.047832	 1.190568	 -0.194462
H	 0.194729	 -1.376165	 -1.161308
H	 0.163013	 -2.094508	 0.429933
C	 -1.533112	 -0.752002	 0.006102
H	 0.148003	 1.266545	 -1.259275
H	 0.226235	 2.136493	 0.259722
C	 -1.506634	 0.799189	 0.067162
H	 -2.124360	 -1.110499	 -0.826089
H	 -1.983103	 -1.158030	 0.903403
H	 -2.183808	 1.252169	 -0.644677
H	 -1.813926	 1.138698	 1.049457

	symmetry c1
}
set optking {
	frozen_dihedral = ("
		1 2 3 6
	")
}

ee,wfn = optimize('scf', return_wfn=True)
oeprop( wfn, 'DIPOLE', 'QUADRUPOLE', 'MULLIKEN_CHARGES')
f=open( 'psi4out.xyz', 'w' )
f.write( "16  " )
f.write( str(ee) + "\n" )
f.write( MOL.save_string_xyz() )
f.close()
--------------------------------------------------------------------------

    Molecular point group: c1
  Charge       = 0
  Multiplicity = 1
  Basis Set: CC-PVTZ
  Basis Set:
  @DF-RHF Final Energy:  -270.11587431934470
    Total Energy =                       -270.1158743193449254
    Molecular point group: c1
  Basis Set: CC-PVTZ
  Basis Set:
  Basis Set: CC-PVTZ
  Basis Set:
  @DF-RHF Final Energy:  -270.11596298361894
    Total Energy =                       -270.1159629836187719
  Basis Set: CC-PVTZ
  Basis Set:
  Basis Set: CC-PVTZ
  Basis Set:
  @DF-RHF Final Energy:  -270.11597161881042
    Total Energy =                       -270.1159716188105335
  Basis Set: CC-PVTZ
  Basis Set:
  Charge       = 0
  Multiplicity = 1
  Basis Set: CC-PVTZ
  Basis Set:

    Orbital Energies (a.u.)
    -----------------------

    Doubly Occupied:

       1A    -20.545375     2A    -11.268092     3A    -11.213033
       4A    -11.212133     5A    -11.206674     6A    -11.206109
       7A     -1.365029     8A     -1.113734     9A     -0.964472
      10A     -0.949200    11A     -0.783959    12A     -0.777129
      13A     -0.716487    14A     -0.654027    15A     -0.621161
      16A     -0.580928    17A     -0.556667    18A     -0.527351
      19A     -0.520144    20A     -0.479511    21A     -0.469373
      22A     -0.456558    23A     -0.452310    24A     -0.414648

  @DF-RHF Final Energy:  -270.11597208416373

   => Energetics <=

    Nuclear Repulsion Energy =            255.3919658762532094
    One-Electron Energy =                -872.9076671753887240
    Two-Electron Energy =                 347.3997292149720124
    DFT Exchange-Correlation Energy =       0.0000000000000000
    Empirical Dispersion Energy =           0.0000000000000000
    PCM Polarization Energy =               0.0000000000000000
    EFP Energy =                            0.0000000000000000
    Total Energy =                       -270.1159720841635590
    Molecular point group: c1
  Basis Set: CC-PVTZ
  Basis Set:

  -Total Gradient:
     Atom            X                  Y                   Z
    ------   -----------------  -----------------  -----------------
       1        0.000132199813    -0.001262539517     0.000517792037
       2       -0.000296618280     0.001352896413    -0.000909713233
       3        0.000486205361     0.000402030432     0.001063473824
       4       -0.000003049339    -0.000006477204    -0.000006997240
       5       -0.000033553135     0.000030151782     0.000005830314
       6       -0.000250158104    -0.000506904802    -0.000709069667
       7        0.000006469279    -0.000001704551    -0.000012289278
       8        0.000003927665     0.000001285200    -0.000002053232
       9        0.000021008731     0.000022721807    -0.000023868949
      10        0.000019922071    -0.000009562983     0.000017230092
      11        0.000005898426    -0.000014174251     0.000005074846
      12       -0.000060917098     0.000002639951     0.000038311696
      13       -0.000007238400    -0.000004354166     0.000010336294
      14        0.000001806083     0.000011512449     0.000010815040
      15       -0.000003366218    -0.000008365928    -0.000005228920
      16       -0.000022536851    -0.000009154632     0.000000356377

  **** Optimization is complete! (in 4 steps) ****
    Final optimized geometry and variables:
    Molecular point group: c1

    Geometry (in Angstrom), charge = 0, multiplicity = 1:

    H            2.660060924649     0.297023863111     0.510222365701
    O            2.063466570262    -0.046233819008    -0.127085320848
    C            0.745164991664     0.010251382844     0.349181036515
    H            0.745836107734     0.039625431244     1.437233419743
    C           -0.059659212360    -1.194025353858    -0.124332689952
    C           -0.057438227729     1.189922652119    -0.189197591511
    H            0.202395851826    -1.375917362927    -1.160632360503
    H            0.172462273515    -2.094328179506     0.429811949103
    C           -1.531139992546    -0.762053230441     0.002732584701
    H            0.139744871863     1.268674135669    -1.253190173501
    H            0.213935846071     2.135624468808     0.265272021321
    C           -1.512948395625     0.789066914924     0.071373276249
    H           -2.117430244300    -1.119244099767    -0.833559347566
    H           -1.982729914054    -1.175092927529     0.896168473580
    H           -2.194267879556     1.241058756770    -0.637177386761
    H           -1.821573531021     1.121481567038     1.055934080646

  Mulliken Charges: (a.u.)
   Center  Symbol    Alpha    Beta     Spin     Total
       1     H     0.39291  0.39291  0.00000  0.21418
       2     O     4.20308  4.20308  0.00000 -0.40616
       3     C     2.92182  2.92182  0.00000  0.15636
       4     H     0.46915  0.46915  0.00000  0.06170
       5     C     3.10141  3.10141  0.00000 -0.20283
       6     C     3.09539  3.09539  0.00000 -0.19078
       7     H     0.45148  0.45148  0.00000  0.09703
       8     H     0.44584  0.44584  0.00000  0.10832
       9     C     3.11020  3.11020  0.00000 -0.22039
      10     H     0.45371  0.45371  0.00000  0.09259
      11     H     0.45061  0.45061  0.00000  0.09878
      12     C     3.11493  3.11493  0.00000 -0.22987
      13     H     0.44558  0.44558  0.00000  0.10884
      14     H     0.44913  0.44913  0.00000  0.10174
      15     H     0.44360  0.44360  0.00000  0.11279
      16     H     0.45115  0.45115  0.00000  0.09770

   Total alpha = 24.00000, Total beta = 24.00000, Total charge =  0.00000

*** Psi4 exiting successfully. Buy a developer a beer!
