                              Psi4 1.0.54 Driver

  ==> Input File <==

--------------------------------------------------------------------------
set {
	reference rhf
	basis cc-pvtz
}

set_num_threads( 4 )
memory 2 gb

molecule MOL {
0 1

H	 -4.284449	 -0.042678	 -1.232085
O	 -3.458596	 0.315260	 -0.960865
C	 -3.176635	 -0.080824	 0.355601
C	 -1.763371	 0.265266	 0.799691
H	 -3.321825	 -1.153438	 0.379502
H	 -3.895468	 0.357385	 1.043382
C	 -0.673390	 -0.426948	 -0.013392
H	 -1.631049	 1.344913	 0.747560
H	 -1.664587	 -0.001624	 1.849167
C	 0.737842	 -0.043159	 0.423759
H	 -0.806103	 -0.190518	 -1.063345
H	 -0.797221	 -1.503753	 0.074146
C	 1.824000	 -0.743224	 -0.390623
H	 0.850588	 1.033777	 0.343840
H	 0.868587	 -0.286314	 1.476203
C	 3.255957	 -0.453067	 0.062319
H	 1.718250	 -0.470599	 -1.438164
H	 1.658105	 -1.815850	 -0.339904
C	 3.707029	 0.992337	 -0.133857
H	 3.928201	 -1.104096	 -0.488158
H	 3.362667	 -0.724561	 1.109374
H	 3.605811	 1.294044	 -1.171549
H	 4.748333	 1.111029	 0.143343
H	 3.129882	 1.683078	 0.468956

	symmetry c1
}
set optking {
	frozen_dihedral = ("
		1 2 3 5
	")
}

ee,wfn = optimize('scf', return_wfn=True)
oeprop( wfn, 'DIPOLE', 'QUADRUPOLE', 'MULLIKEN_CHARGES')
f=open( 'psi4out.xyz', 'w' )
f.write( "24  " )
f.write( str(ee) + "\n" )
f.write( MOL.save_string_xyz() )
f.close()
--------------------------------------------------------------------------

    Molecular point group: c1
  Charge       = 0
  Multiplicity = 1
  Basis Set: CC-PVTZ
  Basis Set:
  @DF-RHF Final Energy:  -349.37903316743120
    Total Energy =                       -349.3790331674312029
    Molecular point group: c1
  Basis Set: CC-PVTZ
  Basis Set:
  Basis Set: CC-PVTZ
  Basis Set:
  @DF-RHF Final Energy:  -349.38042427566171
    Total Energy =                       -349.3804242756614826
  Basis Set: CC-PVTZ
  Basis Set:
  Basis Set: CC-PVTZ
  Basis Set:
  @DF-RHF Final Energy:  -349.38072437959789
    Total Energy =                       -349.3807243795979502
  Basis Set: CC-PVTZ
  Basis Set:
  Basis Set: CC-PVTZ
  Basis Set:
  @DF-RHF Final Energy:  -349.38073006436599
    Total Energy =                       -349.3807300643662757
  Basis Set: CC-PVTZ
  Basis Set:
  Basis Set: CC-PVTZ
  Basis Set:
  @DF-RHF Final Energy:  -349.38073218722741
    Total Energy =                       -349.3807321872270677
  Basis Set: CC-PVTZ
  Basis Set:
  Charge       = 0
  Multiplicity = 1
  Basis Set: CC-PVTZ
  Basis Set:

    Orbital Energies (a.u.)
    -----------------------

    Doubly Occupied:

       1A    -20.546046     2A    -11.265748     3A    -11.210205
       4A    -11.209758     5A    -11.206981     6A    -11.206182
       7A    -11.204806     8A    -11.202739     9A     -1.363892
      10A     -1.086755    11A     -1.047378    12A     -0.985337
      13A     -0.913243    14A     -0.844235    15A     -0.789040
      16A     -0.773695    17A     -0.708595    18A     -0.643038
      19A     -0.635445    20A     -0.610357    21A     -0.589955
      22A     -0.578417    23A     -0.557308    24A     -0.534150
      25A     -0.518877    26A     -0.504454    27A     -0.493482
      28A     -0.477316    29A     -0.466795    30A     -0.456579
      31A     -0.449727    32A     -0.444533    33A     -0.424806

  @DF-RHF Final Energy:  -349.38073231198314

   => Energetics <=

    Nuclear Repulsion Energy =            385.1235897778615254
    One-Electron Energy =               -1237.1089000598594794
    Two-Electron Energy =                 502.6045779700148728
    DFT Exchange-Correlation Energy =       0.0000000000000000
    Empirical Dispersion Energy =           0.0000000000000000
    PCM Polarization Energy =               0.0000000000000000
    EFP Energy =                            0.0000000000000000
    Total Energy =                       -349.3807323119830812
    Molecular point group: c1
  Basis Set: CC-PVTZ
  Basis Set:

  -Total Gradient:
     Atom            X                  Y                   Z
    ------   -----------------  -----------------  -----------------
       1        0.000233254675    -0.000421710426    -0.000190806631
       2       -0.000391195114     0.000521660712     0.000278885287
       3        0.000598412087    -0.000173960646    -0.000208406632
       4       -0.000013314937    -0.000012450646     0.000045968598
       5       -0.000432869520     0.000089386760     0.000103900298
       6        0.000014606971    -0.000007169760     0.000003492221
       7       -0.000013482850    -0.000012347340    -0.000010657470
       8       -0.000017588724     0.000001864574    -0.000003918643
       9        0.000004293868     0.000006664702    -0.000003461249
      10       -0.000003525074    -0.000000033670    -0.000002320838
      11        0.000004894901    -0.000002198601    -0.000005545941
      12        0.000001481546     0.000002996837    -0.000003485771
      13        0.000007100949     0.000016211057    -0.000011090123
      14       -0.000013173881    -0.000017234152    -0.000004830457
      15        0.000000390636     0.000005895421     0.000006708253
      16       -0.000008287314     0.000003127891     0.000022614233
      17       -0.000001584096     0.000008851204    -0.000000491359
      18        0.000003831571    -0.000003139816    -0.000009622960
      19        0.000010864385    -0.000000417152    -0.000005444342
      20       -0.000000283409    -0.000005762643     0.000005044140
      21       -0.000001380400     0.000006122094     0.000006750827
      22       -0.000003587846     0.000005026651    -0.000004769064
      23        0.000001657977    -0.000003105594    -0.000006281523
      24        0.000019483601    -0.000008277456    -0.000002230854

  **** Optimization is complete! (in 6 steps) ****
    Final optimized geometry and variables:
    Molecular point group: c1

    Geometry (in Angstrom), charge = 0, multiplicity = 1:

    H           -4.262276997887     0.147343949555    -1.059516150360
    O           -3.424211364133     0.457637955789    -0.771308958460
    C           -3.154080584089    -0.009742459437     0.525160024383
    C           -1.716617935585     0.315769315065     0.881416295436
    H           -3.318888421703    -1.083645016976     0.584360665641
    H           -3.822054694248     0.463303001604     1.240685247549
    C           -0.687181000564    -0.412249985324     0.021771281133
    H           -1.578326314383     1.389101135364     0.792392827103
    H           -1.564361800351     0.064873395186     1.928036039187
    C            0.752185401533    -0.055655560699     0.383756570166
    H           -0.867826474207    -0.180101847678    -1.021463673868
    H           -0.828887944594    -1.485674863206     0.128419951260
    C            1.781061300564    -0.787879954153    -0.475533900172
    H            0.882963270850     1.017408408800     0.285298396422
    H            0.930493935693    -0.290495673257     1.431245404841
    C            3.239934859983    -0.525295219879    -0.097586271301
    H            1.629131001089    -0.523326171139    -1.519449011139
    H            1.594923709917    -1.856203688049    -0.404752924240
    C            3.712747869204     0.907085401830    -0.334129806113
    H            3.869602766227    -1.197817089300    -0.672241762909
    H            3.392469927329    -0.787027130426     0.946336389819
    H            3.564656132122     1.199792199222    -1.368733951859
    H            4.769458375392     1.004716826711    -0.112299687521
    H            3.183025414667     1.617409287424     0.288971269843

  Mulliken Charges: (a.u.)
   Center  Symbol    Alpha    Beta     Spin     Total
       1     H     0.39547  0.39547  0.00000  0.20905
       2     O     4.19941  4.19941  0.00000 -0.39881
       3     C     2.97485  2.97485  0.00000  0.05030
       4     C     3.09153  3.09153  0.00000 -0.18305
       5     H     0.47339  0.47339  0.00000  0.05321
       6     H     0.46477  0.46477  0.00000  0.07046
       7     C     3.08916  3.08916  0.00000 -0.17833
       8     H     0.45176  0.45176  0.00000  0.09649
       9     H     0.45404  0.45404  0.00000  0.09193
      10     C     3.09193  3.09193  0.00000 -0.18386
      11     H     0.44416  0.44416  0.00000  0.11169
      12     H     0.45891  0.45891  0.00000  0.08218
      13     C     3.09423  3.09423  0.00000 -0.18846
      14     H     0.45200  0.45200  0.00000  0.09600
      15     H     0.45698  0.45698  0.00000  0.08604
      16     C     3.09016  3.09016  0.00000 -0.18032
      17     H     0.45368  0.45368  0.00000  0.09263
      18     H     0.45085  0.45085  0.00000  0.09830
      19     C     3.15227  3.15227  0.00000 -0.30453
      20     H     0.44918  0.44918  0.00000  0.10164
      21     H     0.45560  0.45560  0.00000  0.08879
      22     H     0.45476  0.45476  0.00000  0.09049
      23     H     0.44719  0.44719  0.00000  0.10561
      24     H     0.45372  0.45372  0.00000  0.09255

   Total alpha = 33.00000, Total beta = 33.00000, Total charge =  0.00000

*** Psi4 exiting successfully. Buy a developer a beer!
