  ==> Input File <==

--------------------------------------------------------------------------
set {
	reference rhf
	basis 6-31G*
}

set_num_threads( 4 )
memory 2 gb

molecule MOL {
0 1

H	 -3.892951	 0.981613	 -0.358725
C	 -3.196921	 0.361773	 0.172313
C	 -2.076860	 -0.007332	 -0.404944
H	 -3.439953	 0.057760	 1.173024
O	 -1.180634	 -0.819263	 0.215062
H	 -1.811520	 0.292194	 -1.403480
C	 0.051604	 -1.018856	 -0.387932
C	 1.043764	 0.054862	 -0.001873
H	 -0.017620	 -1.041351	 -1.469781
H	 0.437898	 -1.966374	 -0.042284
F	 0.408310	 1.207341	 0.152387
F	 1.650416	 -0.225101	 1.139803
F	 1.972960	 0.223310	 -0.919811

	symmetry c1
}
set optking {
	frozen_dihedral = ("
		11 8 7 9
	")
}

ee = optimize('scf')
oeprop('DIPOLE', 'QUADRUPOLE', 'MULLIKEN_CHARGES')
f=open( 'psi4out.xyz', 'w' )
f.write( "13  " )
f.write( str(ee) + "\n" )
f.write( MOL.save_string_xyz() )
f.close()
--------------------------------------------------------------------------

    Molecular point group: c1
  Charge       = 0
  Multiplicity = 1
  Basis Set: 6-31G*
  Basis Set:
  @DF-RHF Final Energy:  -527.53205498122929
    Total Energy =                       -527.5320549812295212
    Molecular point group: c1
  Basis Set: 6-31G*
  Basis Set:
  Basis Set: 6-31G*
  Basis Set:
  @DF-RHF Final Energy:  -527.53277704734319
    Total Energy =                       -527.5327770473436431
  Basis Set: 6-31G*
  Basis Set:
  Basis Set: 6-31G*
  Basis Set:
  @DF-RHF Final Energy:  -527.53293259152997
    Total Energy =                       -527.5329325915304253
  Basis Set: 6-31G*
  Basis Set:
  Basis Set: 6-31G*
  Basis Set:
  @DF-RHF Final Energy:  -527.53296540801421
    Total Energy =                       -527.5329654080139790
  Basis Set: 6-31G*
  Basis Set:
  @DF-RHF Final Energy:  -527.53297760870100
    Total Energy =                       -527.5329776087010032
  Basis Set: 6-31G*
  Basis Set:
  @DF-RHF Final Energy:  -527.53298229738130
    Total Energy =                       -527.5329822973810678
  Basis Set: 6-31G*
  Basis Set:
  Basis Set: 6-31G*
  Basis Set:
  @DF-RHF Final Energy:  -527.53298432570693
    Total Energy =                       -527.5329843257071616
  Basis Set: 6-31G*
  Basis Set:
  Basis Set: 6-31G*
  Basis Set:
  @DF-RHF Final Energy:  -527.53298605494570
    Total Energy =                       -527.5329860549453542
  Basis Set: 6-31G*
  Basis Set:
  Charge       = 0
  Multiplicity = 1
  Basis Set: 6-31G*
  Basis Set:

    Orbital Energies (a.u.)
    -----------------------

    Doubly Occupied:

       1A    -26.345702     2A    -26.344054     3A    -26.338812
       4A    -20.608777     5A    -11.504071     6A    -11.318731
       7A    -11.299690     8A    -11.215726     9A     -1.742085
      10A     -1.641638    11A     -1.636227    12A     -1.438866
      13A     -1.083054    14A     -1.015865    15A     -0.925684
      16A     -0.837180    17A     -0.830756    18A     -0.821614
      19A     -0.789826    20A     -0.725984    21A     -0.712764
      22A     -0.696913    23A     -0.674313    24A     -0.661481
      25A     -0.653934    26A     -0.642620    27A     -0.630031
      28A     -0.584455    29A     -0.562226    30A     -0.525584
      31A     -0.512825    32A     -0.351392

  @DF-RHF Final Energy:  -527.53298658983476

   => Energetics <=

    Nuclear Repulsion Energy =            412.6014165180405939
    One-Electron Energy =               -1548.9230473736497515
    Two-Electron Energy =                 608.7886442657741100
    DFT Exchange-Correlation Energy =       0.0000000000000000
    Empirical Dispersion Energy =           0.0000000000000000
    PCM Polarization Energy =               0.0000000000000000
    EFP Energy =                            0.0000000000000000
    Total Energy =                       -527.5329865898349908
    Molecular point group: c1
  Basis Set: 6-31G*
  Basis Set:

  -Total Gradient:
     Atom            X                  Y                   Z
    ------   -----------------  -----------------  -----------------
       1        0.000003739940     0.000005006874     0.000002847788
       2       -0.000022342785     0.000020835159    -0.000007974939
       3        0.000009378038    -0.000092599839     0.000044345410
       4        0.000002338246     0.000001367022     0.000002159484
       5       -0.000054387502     0.000067072151    -0.000049424174
       6       -0.000004363488     0.000013078836    -0.000006922925
       7       -0.004638805614     0.004056231845     0.001388060329
       8        0.001901626966     0.000075284424    -0.005642381452
       9        0.003641868531    -0.003531960321     0.000003409793
      10       -0.000005927475    -0.000013181799    -0.000008865158
      11       -0.000703234223    -0.000592483451     0.004199135380
      12       -0.000017554694     0.000013941130    -0.000028920185
      13       -0.000112335933    -0.000022592029     0.000104530653

  **** Optimization is complete! (in 9 steps) ****
    Final optimized geometry and variables:
    Molecular point group: c1

    Geometry (in Angstrom), charge = 0, multiplicity = 1:

    H           -3.945728474215     0.943023431963    -0.360305669868
    C           -3.259261383632     0.306019638139     0.162775885159
    C           -2.089804237520     0.029860626071    -0.366342205713
    H           -3.550503127868    -0.087683633247     1.118446842151
    O           -1.194367725095    -0.783939002918     0.251950901070
    H           -1.777180108756     0.419492983105    -1.318913685234
    C            0.022788977301    -1.005549382396    -0.367335808963
    C            1.057264216883     0.054261998600    -0.019350385466
    H           -0.048754798742    -1.076925342077    -1.446685721256
    H            0.402167374508    -1.950281012392    -0.005379434990
    F            0.523010113836     1.254850460097     0.096474335004
    F            1.660111263742    -0.214814480257     1.126300204077
    F            1.992058840991     0.101639378346    -0.955294943167

  Mulliken Charges: (a.u.)
   Center  Symbol    Alpha    Beta     Spin     Total
       1     H     0.40710  0.40710  0.00000  0.18580
       2     C     3.23691  3.23691  0.00000 -0.47382
       3     C     2.89277  2.89277  0.00000  0.21446
       4     H     0.40206  0.40206  0.00000  0.19589
       5     O     4.29979  4.29979  0.00000 -0.59958
       6     H     0.40722  0.40722  0.00000  0.18556
       7     C     3.07479  3.07479  0.00000 -0.14957
       8     C     2.45024  2.45024  0.00000  1.09951
       9     H     0.40363  0.40363  0.00000  0.19274
      10     H     0.38761  0.38761  0.00000  0.22479
      11     F     4.67633  4.67633  0.00000 -0.35267
      12     F     4.67884  4.67884  0.00000 -0.35767
      13     F     4.68272  4.68272  0.00000 -0.36544

   Total alpha = 32.00000, Total beta = 32.00000, Total charge = -0.00000
