  ==> Input File <==

--------------------------------------------------------------------------
set {
	reference rhf
	basis 6-31G*
}

set_num_threads( 1 )
memory 2 gb

molecule MOL {
0 1

O	 3.225979	 0.970355	 -0.599647
C	 2.701189	 0.057885	 -0.047330
C	 1.245376	 -0.013843	 0.345420
O	 3.347903	 -1.046386	 0.304773
C	 0.455112	 1.231400	 -0.050772
H	 0.838542	 -0.913825	 -0.103701
H	 1.208210	 -0.175333	 1.419774
C	 -0.998893	 1.219485	 0.433193
H	 0.482531	 1.345121	 -1.130325
H	 0.957290	 2.103070	 0.354729
C	 -1.883438	 0.145884	 -0.207175
H	 -1.431207	 2.195402	 0.224832
H	 -1.019646	 1.105716	 1.516076
C	 -3.347647	 0.245583	 0.225435
H	 -1.822183	 0.231698	 -1.291012
H	 -1.510341	 -0.844814	 0.042401
C	 -4.008590	 1.566594	 -0.172327
H	 -3.412894	 0.122917	 1.305217
H	 -3.908447	 -0.580724	 -0.208640
C	 -5.469503	 1.659698	 0.266722
H	 -3.448866	 2.393420	 0.259774
H	 -3.948230	 1.688938	 -1.251757
H	 -5.910094	 2.606677	 -0.029447
H	 -5.560581	 1.575822	 1.346011
H	 -6.063568	 0.865520	 -0.176722
C	 4.728119	 -1.109107	 -0.004993
H	 4.882018	 -1.033965	 -1.071845
H	 5.068212	 -2.067527	 0.355250
H	 5.265056	 -0.311663	 0.488280

	symmetry c1
}
set optking {
	frozen_dihedral = ("
		21 17 14 11,
		15 11 8 5,
		6 3 5 9,
		11 8 5 9,
		2 4 26 27,
		1 2 4 26,
		6 3 2 1
	")
}

ee = energy('scf')
oeprop('DIPOLE', 'QUADRUPOLE', 'MULLIKEN_CHARGES')
f=open( 'psi4out.xyz', 'w' )
f.write( "29  " )
f.write( str(ee) + "\n" )
f.write( MOL.save_string_xyz() )
f.close()
--------------------------------------------------------------------------

    Molecular point group: c1

    Geometry (in Angstrom), charge = 0, multiplicity = 1:

       Center              X                  Y                   Z               Mass
    ------------   -----------------  -----------------  -----------------  -----------------
           O          3.183457886466     0.532654124821    -0.642690634692    15.994914619560
           C          2.658667886466    -0.379815875179    -0.090373634692    12.000000000000
           C          1.202854886466    -0.451543875179     0.302376365308    12.000000000000
           O          3.305381886466    -1.484086875179     0.261729365308    15.994914619560
           C          0.412590886466     0.793699124821    -0.093815634692    12.000000000000
           H          0.796020886466    -1.351525875179    -0.146744634692     1.007825032070
           H          1.165688886466    -0.613033875179     1.376730365308     1.007825032070
           C         -1.041414113534     0.781784124821     0.390149365308    12.000000000000
           H          0.440009886466     0.907420124821    -1.173368634692     1.007825032070
           H          0.914768886466     1.665369124821     0.311685365308     1.007825032070
           C         -1.925959113534    -0.291816875179    -0.250218634692    12.000000000000
           H         -1.473728113534     1.757701124821     0.181788365308     1.007825032070
           H         -1.062167113534     0.668015124821     1.473032365308     1.007825032070
           C         -3.390168113534    -0.192117875179     0.182391365308    12.000000000000
           H         -1.864704113534    -0.206002875179    -1.334055634692     1.007825032070
           H         -1.552862113534    -1.282514875179    -0.000642634692     1.007825032070
           C         -4.051111113534     1.128893124821    -0.215370634692    12.000000000000
           H         -3.455415113534    -0.314783875179     1.262173365308     1.007825032070
           H         -3.950968113534    -1.018424875179    -0.251683634692     1.007825032070
           C         -5.512024113534     1.221997124821     0.223678365308    12.000000000000
           H         -3.491387113534     1.955719124821     0.216730365308     1.007825032070
           H         -3.990751113534     1.251237124821    -1.294800634692     1.007825032070
           H         -5.952615113534     2.168976124821    -0.072490634692     1.007825032070
           H         -5.603102113534     1.138121124821     1.302967365308     1.007825032070
           H         -6.106089113534     0.427819124821    -0.219765634692     1.007825032070
           C          4.685597886466    -1.546807875179    -0.048036634692    12.000000000000
           H          4.839496886466    -1.471665875179    -1.114888634692     1.007825032070
           H          5.025690886466    -2.505227875179     0.312206365308     1.007825032070
           H          5.222534886466    -0.749363875179     0.445236365308     1.007825032070

  Charge       = 0
  Multiplicity = 1
  Basis Set: 6-31G*
  Basis Set:

    Orbital Energies (a.u.)
    -----------------------

    Doubly Occupied:

       1A    -20.603267     2A    -20.545070     3A    -11.371874
       4A    -11.280592     5A    -11.234525     6A    -11.218873
       7A    -11.216701     8A    -11.215890     9A    -11.214859
      10A    -11.214267    11A    -11.208662    12A     -1.468961
      13A     -1.362399    14A     -1.099358    15A     -1.066285
      16A     -1.017129    17A     -0.977085    18A     -0.928686
      19A     -0.861800    20A     -0.815134    21A     -0.777051
      22A     -0.762299    23A     -0.700878    24A     -0.682051
      25A     -0.671887    26A     -0.635069    27A     -0.631278
      28A     -0.617321    29A     -0.594069    30A     -0.580974
      31A     -0.564679    32A     -0.555744    33A     -0.539958
      34A     -0.525943    35A     -0.522814    36A     -0.498207
      37A     -0.492509    38A     -0.488623    39A     -0.471445
      40A     -0.460438    41A     -0.455908    42A     -0.448509
      43A     -0.441021    44A     -0.436948

  @DF-RHF Final Energy:  -501.04112604807267

   => Energetics <=

    Nuclear Repulsion Energy =            614.9286907796205242
    One-Electron Energy =               -1900.9855691440225200
    Two-Electron Energy =                 785.0157523163297810
    DFT Exchange-Correlation Energy =       0.0000000000000000
    Empirical Dispersion Energy =           0.0000000000000000
    PCM Polarization Energy =               0.0000000000000000
    EFP Energy =                            0.0000000000000000
    Total Energy =                       -501.0411260480723286

  Mulliken Charges: (a.u.)
   Center  Symbol    Alpha    Beta     Spin     Total
       1     O     4.28603  4.28603  0.00000 -0.57206
       2     C     2.60476  2.60476  0.00000  0.79049
       3     C     3.20988  3.20988  0.00000 -0.41976
       4     O     4.30748  4.30748  0.00000 -0.61497
       5     C     3.15257  3.15257  0.00000 -0.30515
       6     H     0.39893  0.39893  0.00000  0.20214
       7     H     0.40129  0.40129  0.00000  0.19741
       8     C     3.16059  3.16059  0.00000 -0.32118
       9     H     0.41315  0.41315  0.00000  0.17369
      10     H     0.40899  0.40899  0.00000  0.18201
      11     C     3.15640  3.15640  0.00000 -0.31280
      12     H     0.41509  0.41509  0.00000  0.16982
      13     H     0.42427  0.42427  0.00000  0.15146
      14     C     3.15137  3.15137  0.00000 -0.30274
      15     H     0.42289  0.42289  0.00000  0.15422
      16     H     0.42136  0.42136  0.00000  0.15728
      17     C     3.15545  3.15545  0.00000 -0.31090
      18     H     0.42421  0.42421  0.00000  0.15159
      19     H     0.42129  0.42129  0.00000  0.15741
      20     C     3.23838  3.23838  0.00000 -0.47676
      21     H     0.42032  0.42032  0.00000  0.15936
      22     H     0.42294  0.42294  0.00000  0.15411
      23     H     0.41926  0.41926  0.00000  0.16148
      24     H     0.42192  0.42192  0.00000  0.15615
      25     H     0.42199  0.42199  0.00000  0.15602
      26     C     3.09240  3.09240  0.00000 -0.18479
      27     H     0.40910  0.40910  0.00000  0.18181
      28     H     0.40853  0.40853  0.00000  0.18294
      29     H     0.40914  0.40914  0.00000  0.18171

   Total alpha = 44.00000, Total beta = 44.00000, Total charge = -0.00000
