  ==> Input File <==

--------------------------------------------------------------------------
set {
	reference rhf
	basis cc-pvtz
}

set_num_threads( 4 )
memory 2 gb

molecule MOL {
0 1

H	 -3.144994	 -1.202467	 -0.018751
O	 -2.321472	 -0.864941	 -0.318626
C	 -2.021813	 0.336996	 0.342658
C	 -0.669613	 0.837286	 -0.127252
H	 -2.780861	 1.084746	 0.127159
H	 -2.006390	 0.184138	 1.420053
C	 0.490865	 -0.082543	 0.241244
H	 -0.708709	 0.967192	 -1.204587
H	 -0.507562	 1.822272	 0.303070
C	 1.839800	 0.429565	 -0.255472
H	 0.305636	 -1.070211	 -0.165276
H	 0.527397	 -0.195943	 1.322876
C	 3.010783	 -0.437972	 0.193932
H	 1.825773	 0.479793	 -1.340821
H	 1.991642	 1.447648	 0.094015
H	 2.905616	 -1.454492	 -0.170133
H	 3.953009	 -0.049764	 -0.175946
H	 3.073235	 -0.481138	 1.276374

	symmetry c1
}
set optking {
	frozen_dihedral = ("
		14 10 7 11
	")
}

ee = optimize('scf')
oeprop('DIPOLE', 'QUADRUPOLE', 'MULLIKEN_CHARGES')
f=open( 'psi4out.xyz', 'w' )
f.write( "18  " )
f.write( str(ee) + "\n" )
f.write( MOL.save_string_xyz() )
f.close()
--------------------------------------------------------------------------

    Molecular point group: c1
  Charge       = 0
  Multiplicity = 1
  Basis Set: CC-PVTZ
  Basis Set:
  @DF-RHF Final Energy:  -271.28687419109610
    Total Energy =                       -271.2868741910959898
    Molecular point group: c1
  Basis Set: CC-PVTZ
  Basis Set:
  Basis Set: CC-PVTZ
  Basis Set:
  @DF-RHF Final Energy:  -271.28688131957097
    Total Energy =                       -271.2868813195709663
  Basis Set: CC-PVTZ
  Basis Set:
  Basis Set: CC-PVTZ
  Basis Set:
  @DF-RHF Final Energy:  -271.28688416876037
    Total Energy =                       -271.2868841687608210
  Basis Set: CC-PVTZ
  Basis Set:
  Charge       = 0
  Multiplicity = 1
  Basis Set: CC-PVTZ
  Basis Set:

    Orbital Energies (a.u.)
    -----------------------

    Doubly Occupied:

       1A    -20.546284     2A    -11.265945     3A    -11.210392
       4A    -11.209107     5A    -11.204962     6A    -11.202771
       7A     -1.364168     8A     -1.076564     9A     -1.010219
      10A     -0.914436    11A     -0.818341    12A     -0.784696
      13A     -0.708444    14A     -0.643024    15A     -0.627636
      16A     -0.582735    17A     -0.572126    18A     -0.558861
      19A     -0.524638    20A     -0.501792    21A     -0.489022
      22A     -0.468429    23A     -0.459572    24A     -0.449682
      25A     -0.431195

  @DF-RHF Final Energy:  -271.28688420248739

   => Energetics <=

    Nuclear Repulsion Energy =            249.2971857684813131
    One-Electron Energy =                -861.9180635143833342
    Two-Electron Energy =                 341.3339935434143513
    DFT Exchange-Correlation Energy =       0.0000000000000000
    Empirical Dispersion Energy =           0.0000000000000000
    PCM Polarization Energy =               0.0000000000000000
    EFP Energy =                            0.0000000000000000
    Total Energy =                       -271.2868842024876699
    Molecular point group: c1
  Basis Set: CC-PVTZ
  Basis Set:

  -Total Gradient:
     Atom            X                  Y                   Z
    ------   -----------------  -----------------  -----------------
       1        0.000000627055    -0.000001015765    -0.000000128797
       2        0.000010729986    -0.000008390615     0.000007527528
       3       -0.000013497439     0.000011693975    -0.000024368712
       4        0.000002980063     0.000002418914     0.000025342979
       5       -0.000000170748     0.000005090883     0.000003586276
       6        0.000004765418    -0.000002075401    -0.000003400974
       7        0.000460212130    -0.000519413543     0.000698984871
       8       -0.000004082703    -0.000003216353     0.000005109104
       9       -0.000003979385     0.000007781223     0.000000475648
      10       -0.000378072960     0.000901097767    -0.000102314203
      11       -0.000322737494     0.000285426179    -0.000576256076
      12       -0.000001682827     0.000003471643    -0.000006093160
      13        0.000000284894     0.000004998271     0.000003092514
      14        0.000240969989    -0.000676724405    -0.000035315193
      15       -0.000002855191    -0.000005593919     0.000000940493
      16        0.000000694958    -0.000000792389    -0.000000115319
      17        0.000001848932    -0.000001462347     0.000001134835
      18        0.000003965325    -0.000003294116     0.000001798184

  **** Optimization is complete! (in 4 steps) ****
    Final optimized geometry and variables:
    Molecular point group: c1

    Geometry (in Angstrom), charge = 0, multiplicity = 1:

    H           -3.141568093049    -1.216208059439    -0.043289926649
    O           -2.317668285194    -0.875618848680    -0.338385453975
    C           -2.025344801420     0.326380301258     0.326064388275
    C           -0.672035580340     0.831303064493    -0.135564762168
    H           -2.785471290991     1.072117727036     0.107452289088
    H           -2.015328655426     0.172028332959     1.403304281276
    C            0.489393891621    -0.085119026118     0.239526239531
    H           -0.705307997440     0.961227953667    -1.213117713859
    H           -0.515763479589     1.816684477621     0.295835110226
    C            1.836709128033     0.423860966800    -0.264945581618
    H            0.302449994692    -1.073926970049    -0.163236306498
    H            0.526502431376    -0.190438523026     1.321755940598
    C            3.007150052949    -0.449283836721     0.175869324683
    H            1.816673190381     0.469798226985    -1.350289840816
    H            1.995587679176     1.441098879784     0.083305172037
    H            2.890508022326    -1.467221083756    -0.180792415523
    H            3.947538725027    -0.070116180024    -0.207805603166
    H            3.082372488086    -0.486472319730     1.257673147535

  Mulliken Charges: (a.u.)
   Center  Symbol    Alpha    Beta     Spin     Total
       1     H     0.39567  0.39567  0.00000  0.20865
       2     O     4.19886  4.19886  0.00000 -0.39771
       3     C     2.97375  2.97375  0.00000  0.05250
       4     C     3.09101  3.09101  0.00000 -0.18201
       5     H     0.46527  0.46527  0.00000  0.06946
       6     H     0.47369  0.47369  0.00000  0.05261
       7     C     3.08688  3.08688  0.00000 -0.17376
       8     H     0.45227  0.45227  0.00000  0.09546
       9     H     0.45435  0.45435  0.00000  0.09130
      10     C     3.08364  3.08364  0.00000 -0.16728
      11     H     0.44423  0.44423  0.00000  0.11154
      12     H     0.45970  0.45970  0.00000  0.08060
      13     C     3.14983  3.14983  0.00000 -0.29965
      14     H     0.45393  0.45393  0.00000  0.09215
      15     H     0.45698  0.45698  0.00000  0.08605
      16     H     0.45448  0.45448  0.00000  0.09104
      17     H     0.44937  0.44937  0.00000  0.10126
      18     H     0.45610  0.45610  0.00000  0.08779

   Total alpha = 25.00000, Total beta = 25.00000, Total charge = -0.00000
