  ==> Input File <==

--------------------------------------------------------------------------
set {
	reference rhf
	basis cc-pvtz
}

set_num_threads( 4 )
memory 2 gb

molecule MOL {
0 1

H	 -2.123894	 -0.667238	 -0.609809
O	 -2.041679	 -0.058866	 0.103463
C	 -0.959304	 0.780994	 -0.094939
C	 0.354905	 0.037902	 -0.006215
H	 -0.985899	 1.279578	 -1.057596
H	 -0.969809	 1.529522	 0.682889
F	 1.071974	 0.465396	 1.017920
F	 0.141456	 -1.249706	 0.167288
F	 1.087097	 0.182276	 -1.084650

	symmetry c1
}
set optking {
	frozen_dihedral = ("
		7 4 3 5
	")
}

ee = optimize('scf')
oeprop('DIPOLE', 'QUADRUPOLE', 'MULLIKEN_CHARGES')
f=open( 'psi4out.xyz', 'w' )
f.write( "9  " )
f.write( str(ee) + "\n" )
f.write( MOL.save_string_xyz() )
f.close()
--------------------------------------------------------------------------

    Molecular point group: c1
  Charge       = 0
  Multiplicity = 1
  Basis Set: CC-PVTZ
  Basis Set:
  @DF-RHF Final Energy:  -450.83878110692808
    Total Energy =                       -450.8387811069279678
    Molecular point group: c1
  Basis Set: CC-PVTZ
  Basis Set:
  Basis Set: CC-PVTZ
  Basis Set:
  @DF-RHF Final Energy:  -450.83946645935896
    Total Energy =                       -450.8394664593591870
  Basis Set: CC-PVTZ
  Basis Set:
  Basis Set: CC-PVTZ
  Basis Set:
  @DF-RHF Final Energy:  -450.84009148672163
    Total Energy =                       -450.8400914867216898
  Basis Set: CC-PVTZ
  Basis Set:
  Basis Set: CC-PVTZ
  Basis Set:
  @DF-RHF Final Energy:  -450.84013492893854
    Total Energy =                       -450.8401349289384825
  Basis Set: CC-PVTZ
  Basis Set:
  Basis Set: CC-PVTZ
  Basis Set:
  @DF-RHF Final Energy:  -450.84013925623464
    Total Energy =                       -450.8401392562347496
  Basis Set: CC-PVTZ
  Basis Set:
  Charge       = 0
  Multiplicity = 1
  Basis Set: CC-PVTZ
  Basis Set:

    Orbital Energies (a.u.)
    -----------------------

    Doubly Occupied:

       1A    -26.340125     2A    -26.336252     3A    -26.335933
       4A    -20.582919     5A    -11.495673     6A    -11.309907
       7A     -1.747933     8A     -1.645251     9A     -1.640773
      10A     -1.406147    11A     -1.044801    12A     -0.930213
      13A     -0.836119    14A     -0.835316    15A     -0.813891
      16A     -0.729456    17A     -0.719454    18A     -0.704564
      19A     -0.671182    20A     -0.665196    21A     -0.647940
      22A     -0.631089    23A     -0.616504    24A     -0.528994
      25A     -0.484051

  @DF-RHF Final Energy:  -450.84013978244280

   => Energetics <=

    Nuclear Repulsion Energy =            276.5007186605768652
    One-Electron Energy =               -1175.2823535020718282
    Two-Electron Energy =                 447.9414950590521585
    DFT Exchange-Correlation Energy =       0.0000000000000000
    Empirical Dispersion Energy =           0.0000000000000000
    PCM Polarization Energy =               0.0000000000000000
    EFP Energy =                            0.0000000000000000
    Total Energy =                       -450.8401397824427477
    Molecular point group: c1
  Basis Set: CC-PVTZ
  Basis Set:

  -Total Gradient:
     Atom            X                  Y                   Z
    ------   -----------------  -----------------  -----------------
       1       -0.000026333670     0.000004702900    -0.000001025775
       2        0.000038326215    -0.000025193661    -0.000006734303
       3       -0.000853714119    -0.001709356329    -0.001339043126
       4       -0.000860576277    -0.001373431463     0.001583833997
       5        0.000913767899     0.001706178440     0.000856428796
       6        0.000013046916     0.000013980223    -0.000001515199
       7        0.000752694829     0.001222254567    -0.001000002799
       8       -0.000018754567     0.000137905318     0.000010796333
       9        0.000041542769     0.000022959998    -0.000102737924

  **** Optimization is complete! (in 6 steps) ****
    Final optimized geometry and variables:
    Molecular point group: c1

    Geometry (in Angstrom), charge = 0, multiplicity = 1:

    H           -2.149329017127    -0.682321774092    -0.573554440938
    O           -2.084077647306    -0.014583424997     0.085718447732
    C           -0.973221212483     0.782411607888    -0.120399765275
    C            0.359130005994     0.025766103140    -0.005635473748
    H           -0.983300018451     1.278717005327    -1.083091427601
    H           -0.980825698137     1.541314465962     0.645912690444
    F            1.069902993429     0.440528923771     1.021607265778
    F            0.188513947189    -1.269558491938     0.120700369607
    F            1.102275198990     0.217435577778    -1.081249566481

  Mulliken Charges: (a.u.)
   Center  Symbol    Alpha    Beta     Spin     Total
       1     H     0.38796  0.38796  0.00000  0.22409
       2     O     4.18460  4.18460  0.00000 -0.36920
       3     C     3.00844  3.00844  0.00000 -0.01688
       4     C     2.67753  2.67753  0.00000  0.64494
       5     H     0.46088  0.46088  0.00000  0.07824
       6     H     0.44812  0.44812  0.00000  0.10377
       7     F     4.61003  4.61003  0.00000 -0.22006
       8     F     4.60894  4.60894  0.00000 -0.21788
       9     F     4.61350  4.61350  0.00000 -0.22700

   Total alpha = 25.00000, Total beta = 25.00000, Total charge = -0.00000
