                              Psi4 1.0.54 Driver

  ==> Input File <==

--------------------------------------------------------------------------
set {
	reference rhf
	basis cc-pvtz
}

set_num_threads( 4 )
memory 2 gb

molecule MOL {
0 1

H	 1.769987	 -0.459927	 2.349268
O	 1.085754	 0.087555	 2.011416
C	 1.135873	 0.113391	 0.608264
C	 0.027642	 1.012027	 0.090274
H	 0.998088	 -0.887260	 0.206418
H	 2.105515	 0.468077	 0.269952
C	 -1.138737	 0.285728	 -0.581921
H	 0.464661	 1.708096	 -0.618252
H	 -0.340737	 1.603071	 0.925246
C	 -1.933983	 -0.631436	 0.343653
H	 -0.763151	 -0.285569	 -1.422081
H	 -1.808359	 1.035291	 -0.992333
H	 -2.789188	 -1.049673	 -0.174718
H	 -1.335629	 -1.461368	 0.700418
H	 -2.305435	 -0.092167	 1.209725

	symmetry c1
}
set optking {
	frozen_dihedral = ("
		2 3 4 8
	")
}

ee,wfn = optimize('scf', return_wfn=True)
oeprop( wfn, 'DIPOLE', 'QUADRUPOLE', 'MULLIKEN_CHARGES')
f=open( 'psi4out.xyz', 'w' )
f.write( "15  " )
f.write( str(ee) + "\n" )
f.write( MOL.save_string_xyz() )
f.close()
--------------------------------------------------------------------------

    Molecular point group: c1
  Charge       = 0
  Multiplicity = 1
  Basis Set: CC-PVTZ
  Basis Set:
  @DF-RHF Final Energy:  -232.23252631460261
    Total Energy =                       -232.2325263146025236
    Molecular point group: c1
  Basis Set: CC-PVTZ
  Basis Set:
  Basis Set: CC-PVTZ
  Basis Set:
  @DF-RHF Final Energy:  -232.23297097281900
    Total Energy =                       -232.2329709728189187
  Basis Set: CC-PVTZ
  Basis Set:
  Basis Set: CC-PVTZ
  Basis Set:
  @DF-RHF Final Energy:  -232.23309629185286
    Total Energy =                       -232.2330962918529167
  Basis Set: CC-PVTZ
  Basis Set:
  Basis Set: CC-PVTZ
  Basis Set:
  @DF-RHF Final Energy:  -232.23310463763272
    Total Energy =                       -232.2331046376328345
  Basis Set: CC-PVTZ
  Basis Set:
  Basis Set: CC-PVTZ
  Basis Set:
  @DF-RHF Final Energy:  -232.23310742216040
    Total Energy =                       -232.2331074221602307
  Basis Set: CC-PVTZ
  Basis Set:
  Charge       = 0
  Multiplicity = 1
  Basis Set: CC-PVTZ
  Basis Set:

    Orbital Energies (a.u.)
    -----------------------

    Doubly Occupied:

       1A    -20.545910     2A    -11.266004     3A    -11.213069
       4A    -11.209740     5A    -11.201802     6A     -1.362965
       7A     -1.066761     8A     -0.969025     9A     -0.867310
      10A     -0.783616    11A     -0.702766    12A     -0.649358
      13A     -0.612841    14A     -0.574723    15A     -0.556237
      16A     -0.541990    17A     -0.503346    18A     -0.478868
      19A     -0.469422    20A     -0.456861    21A     -0.429995

  @DF-RHF Final Energy:  -232.23310761059957

   => Energetics <=

    Nuclear Repulsion Energy =            191.0537400189702453
    One-Electron Energy =                -693.6484784037412510
    Two-Electron Energy =                 270.3616307741713172
    DFT Exchange-Correlation Energy =       0.0000000000000000
    Empirical Dispersion Energy =           0.0000000000000000
    PCM Polarization Energy =               0.0000000000000000
    EFP Energy =                            0.0000000000000000
    Total Energy =                       -232.2331076105996885
    Molecular point group: c1
  Basis Set: CC-PVTZ
  Basis Set:

  -Total Gradient:
     Atom            X                  Y                   Z
    ------   -----------------  -----------------  -----------------
       1       -0.000000905029     0.000006388374    -0.000018961851
       2        0.001428843033     0.001909746050     0.000186219746
       3       -0.001742600604    -0.002034234893     0.000325646988
       4       -0.000168495782    -0.001812156017    -0.002869033626
       5       -0.000003437167     0.000007457391    -0.000005435511
       6       -0.000011850954     0.000002512659    -0.000009934995
       7        0.000017840071    -0.000030228899    -0.000005448520
       8        0.000488784419     0.001948781130     0.002388128517
       9        0.000005859567    -0.000007635504     0.000004617188
      10       -0.000008054349     0.000003952847     0.000002956057
      11        0.000002266890    -0.000003794522    -0.000004009271
      12        0.000002917220    -0.000001148600     0.000001200603
      13        0.000003531624     0.000004420222     0.000004851095
      14       -0.000009509899     0.000005095896    -0.000007409963
      15       -0.000005189041     0.000000843865     0.000006613544

  **** Optimization is complete! (in 6 steps) ****
    Final optimized geometry and variables:
    Molecular point group: c1

    Geometry (in Angstrom), charge = 0, multiplicity = 1:

    H            1.872957395397    -0.683217726466     1.784411630393
    O            1.205173151458    -0.107985070098     1.458891715989
    C            1.274960288544    -0.036482555144     0.056263846310
    C            0.153423882703     0.870492532476    -0.456756901942
    H            1.191855000677    -1.028957544553    -0.379084543714
    H            2.239881821691     0.365102467287    -0.239483253071
    C           -1.011442534097     0.140839151186    -1.124263421405
    H            0.569127058114     1.603247489120    -1.139693480818
    H           -0.211826089767     1.435513499745     0.393802299465
    C           -1.799211955591    -0.760112159820    -0.177040245560
    H           -0.637623819585    -0.446892971987    -1.958929031038
    H           -1.683582822657     0.878103675165    -1.552241567367
    H           -2.606991627182    -1.258961523823    -0.700539507507
    H           -1.170864651600    -1.522812296642     0.267350677807
    H           -2.231448875083    -0.184159940896     0.633738581905

  Mulliken Charges: (a.u.)
   Center  Symbol    Alpha    Beta     Spin     Total
       1     H     0.39531  0.39531  0.00000  0.20938
       2     O     4.20039  4.20039  0.00000 -0.40079
       3     C     2.97683  2.97683  0.00000  0.04633
       4     C     3.09643  3.09643  0.00000 -0.19286
       5     H     0.47136  0.47136  0.00000  0.05729
       6     H     0.46306  0.46306  0.00000  0.07388
       7     C     3.09456  3.09456  0.00000 -0.18913
       8     H     0.44651  0.44651  0.00000  0.10699
       9     H     0.44793  0.44793  0.00000  0.10414
      10     C     3.14036  3.14036  0.00000 -0.28072
      11     H     0.45728  0.45728  0.00000  0.08543
      12     H     0.45017  0.45017  0.00000  0.09966
      13     H     0.45102  0.45102  0.00000  0.09795
      14     H     0.45492  0.45492  0.00000  0.09016
      15     H     0.45385  0.45385  0.00000  0.09229

   Total alpha = 21.00000, Total beta = 21.00000, Total charge = -0.00000

*** Psi4 exiting successfully. Buy a developer a beer!
