  ==> Input File <==

--------------------------------------------------------------------------
set {
	reference rhf
	basis 6-31G*
}

set_num_threads( 1 )
memory 2 gb

molecule MOL {
0 1

H	 1.169963	 -0.640524	 1.331760
O	 1.344235	 -0.524901	 0.407577
C	 0.709265	 0.639550	 -0.033818
C	 -0.793441	 0.596080	 0.058728
H	 1.006708	 0.772832	 -1.067726
H	 1.075505	 1.509857	 0.509743
C	 -1.530462	 -0.493172	 -0.025500
H	 -1.268471	 1.554324	 0.202247
H	 -1.092586	 -1.461565	 -0.186463
H	 -2.602122	 -0.450675	 0.050101

	symmetry c1
}
set optking {
	frozen_dihedral = ("
		5 3 2 1,
		3 4 7 9
	")
}

ee = energy('scf')
oeprop('DIPOLE', 'QUADRUPOLE', 'MULLIKEN_CHARGES')
f=open( 'psi4out.xyz', 'w' )
f.write( "10  " )
f.write( str(ee) + "\n" )
f.write( MOL.save_string_xyz() )
f.close()
--------------------------------------------------------------------------

    Molecular point group: c1

    Geometry (in Angstrom), charge = 0, multiplicity = 1:

       Center              X                  Y                   Z               Mass
    ------------   -----------------  -----------------  -----------------  -----------------
           H          1.163056323215    -0.671674749838     1.204984064702     1.007825032070
           O          1.337328323215    -0.556051749838     0.280801064702    15.994914619560
           C          0.702358323215     0.608399250162    -0.160593935298    12.000000000000
           C         -0.800347676785     0.564929250162    -0.068047935298    12.000000000000
           H          0.999801323215     0.741681250162    -1.194501935298     1.007825032070
           H          1.068598323215     1.478706250162     0.382967064702     1.007825032070
           C         -1.537368676785    -0.524322749838    -0.152275935298    12.000000000000
           H         -1.275377676785     1.523173250162     0.075471064702     1.007825032070
           H         -1.099492676785    -1.492715749838    -0.313238935298     1.007825032070
           H         -2.609028676785    -0.481825749838    -0.076674935298     1.007825032070

  Charge       = 0
  Multiplicity = 1
  Basis Set: 6-31G*
  Basis Set:

    Orbital Energies (a.u.)
    -----------------------

    Doubly Occupied:

       1A    -20.558772     2A    -11.276549     3A    -11.229023
       4A    -11.220003     5A     -1.367333     6A     -1.057441
       7A     -0.925958     8A     -0.770877     9A     -0.684542
      10A     -0.658101    11A     -0.610665    12A     -0.576195
      13A     -0.541977    14A     -0.483953    15A     -0.446469
      16A     -0.364689

  @DF-RHF Final Energy:  -191.91568814537084

   => Energetics <=

    Nuclear Repulsion Energy =            119.0875720433251104
    One-Electron Energy =                -496.4614254594426370
    Two-Electron Energy =                 185.4581652707466048
    DFT Exchange-Correlation Energy =       0.0000000000000000
    Empirical Dispersion Energy =           0.0000000000000000
    PCM Polarization Energy =               0.0000000000000000
    EFP Energy =                            0.0000000000000000
    Total Energy =                       -191.9156881453709218

  Mulliken Charges: (a.u.)
   Center  Symbol    Alpha    Beta     Spin     Total
       1     H     0.28151  0.28151  0.00000  0.43698
       2     O     4.36628  4.36628  0.00000 -0.73256
       3     C     2.99962  2.99962  0.00000  0.00076
       4     C     3.10279  3.10279  0.00000 -0.20559
       5     H     0.40761  0.40761  0.00000  0.18479
       6     H     0.42721  0.42721  0.00000  0.14558
       7     C     3.19089  3.19089  0.00000 -0.38178
       8     H     0.41016  0.41016  0.00000  0.17969
       9     H     0.40268  0.40268  0.00000  0.19464
      10     H     0.41125  0.41125  0.00000  0.17749

   Total alpha = 16.00000, Total beta = 16.00000, Total charge = -0.00000
