  ==> Input File <==

--------------------------------------------------------------------------
set {
	reference rhf
	basis 6-31G*
}

set_num_threads( 1 )
memory 2 gb

molecule MOL {
0 1

O	 -2.332238	 -0.072306	 -1.152330
C	 -1.921153	 0.064240	 -0.045697
C	 -2.778219	 0.163372	 1.187168
O	 -0.632575	 0.154573	 0.251549
H	 -2.594877	 1.108279	 1.685651
H	 -3.819459	 0.086197	 0.912034
H	 -2.517139	 -0.628882	 1.879214
C	 0.160891	 -1.019931	 0.106212
C	 1.589627	 -0.672828	 0.480843
H	 0.089836	 -1.367806	 -0.916050
H	 -0.238459	 -1.792301	 0.749618
C	 2.246377	 0.346236	 -0.452210
H	 2.163194	 -1.597435	 0.473358
H	 1.604769	 -0.303424	 1.502885
C	 3.691736	 0.652107	 -0.061850
H	 2.219579	 -0.032311	 -1.472055
H	 1.666466	 1.263317	 -0.447249
H	 4.134505	 1.377213	 -0.737283
H	 4.305508	 -0.243868	 -0.089969
H	 3.748266	 1.059562	 0.943567

	symmetry c1
}
set optking {
	frozen_dihedral = ("
		16 12 9 8,
		2 4 8 10,
		12 9 8 10
	")
}

ee = energy('scf')
oeprop('DIPOLE', 'QUADRUPOLE', 'MULLIKEN_CHARGES')
f=open( 'psi4out.xyz', 'w' )
f.write( "20  " )
f.write( str(ee) + "\n" )
f.write( MOL.save_string_xyz() )
f.close()
--------------------------------------------------------------------------

    Molecular point group: c1

    Geometry (in Angstrom), charge = 0, multiplicity = 1:

       Center              X                  Y                   Z               Mass
    ------------   -----------------  -----------------  -----------------  -----------------
           O         -2.326169799692    -0.026083867257    -1.192684346728    15.994914619560
           C         -1.915084799692     0.110462132743    -0.086051346728    12.000000000000
           C         -2.772150799692     0.209594132743     1.146813653272    12.000000000000
           O         -0.626506799692     0.200795132743     0.211194653272    15.994914619560
           H         -2.588808799692     1.154501132743     1.645296653272     1.007825032070
           H         -3.813390799692     0.132419132743     0.871679653272     1.007825032070
           H         -2.511070799692    -0.582659867257     1.838859653272     1.007825032070
           C          0.166959200308    -0.973708867257     0.065857653272    12.000000000000
           C          1.595695200308    -0.626605867257     0.440488653272    12.000000000000
           H          0.095904200308    -1.321583867257    -0.956404346728     1.007825032070
           H         -0.232390799692    -1.746078867257     0.709263653272     1.007825032070
           C          2.252445200308     0.392458132743    -0.492564346728    12.000000000000
           H          2.169262200308    -1.551212867257     0.433003653272     1.007825032070
           H          1.610837200308    -0.257201867257     1.462530653272     1.007825032070
           C          3.697804200308     0.698329132743    -0.102204346728    12.000000000000
           H          2.225647200308     0.013911132743    -1.512409346728     1.007825032070
           H          1.672534200308     1.309539132743    -0.487603346728     1.007825032070
           H          4.140573200308     1.423435132743    -0.777637346728     1.007825032070
           H          4.311576200308    -0.197645867257    -0.130323346728     1.007825032070
           H          3.754334200308     1.105784132743     0.903212653272     1.007825032070

  Charge       = 0
  Multiplicity = 1
  Basis Set: 6-31G*
  Basis Set:

    Orbital Energies (a.u.)
    -----------------------

    Doubly Occupied:

       1A    -20.586044     2A    -20.551854     3A    -11.375246
       4A    -11.293132     5A    -11.233517     6A    -11.228746
       7A    -11.219660     8A    -11.212889     9A     -1.463137
      10A     -1.364862    11A     -1.086154    12A     -1.023556
      13A     -0.986990    14A     -0.883754    15A     -0.810766
      16A     -0.778557    17A     -0.695510    18A     -0.682854
      19A     -0.657132    20A     -0.632689    21A     -0.610163
      22A     -0.591738    23A     -0.576958    24A     -0.560548
      25A     -0.543600    26A     -0.531831    27A     -0.493259
      28A     -0.485990    29A     -0.479766    30A     -0.474312
      31A     -0.448255    32A     -0.435901

  @DF-RHF Final Energy:  -383.92842387041350

   => Energetics <=

    Nuclear Repulsion Energy =            384.8106371068557223
    One-Electron Energy =               -1285.4793818707264563
    Two-Electron Energy =                 516.7403208934576924
    DFT Exchange-Correlation Energy =       0.0000000000000000
    Empirical Dispersion Energy =           0.0000000000000000
    PCM Polarization Energy =               0.0000000000000000
    EFP Energy =                            0.0000000000000000
    Total Energy =                       -383.9284238704130985

  Mulliken Charges: (a.u.)
   Center  Symbol    Alpha    Beta     Spin     Total
       1     O     4.26204  4.26204  0.00000 -0.52408
       2     C     2.62490  2.62490  0.00000  0.75021
       3     C     3.28405  3.28405  0.00000 -0.56810
       4     O     4.31298  4.31298  0.00000 -0.62596
       5     H     0.39916  0.39916  0.00000  0.20168
       6     H     0.39905  0.39905  0.00000  0.20191
       7     H     0.40660  0.40660  0.00000  0.18680
       8     C     3.00394  3.00394  0.00000 -0.00789
       9     C     3.16372  3.16372  0.00000 -0.32743
      10     H     0.40675  0.40675  0.00000  0.18651
      11     H     0.41985  0.41985  0.00000  0.16029
      12     C     3.15483  3.15483  0.00000 -0.30965
      13     H     0.41899  0.41899  0.00000  0.16202
      14     H     0.41395  0.41395  0.00000  0.17209
      15     C     3.24089  3.24089  0.00000 -0.48178
      16     H     0.42087  0.42087  0.00000  0.15826
      17     H     0.40764  0.40764  0.00000  0.18472
      18     H     0.41647  0.41647  0.00000  0.16705
      19     H     0.42240  0.42240  0.00000  0.15519
      20     H     0.42093  0.42093  0.00000  0.15815

   Total alpha = 32.00000, Total beta = 32.00000, Total charge = -0.00000
