                              Psi4 1.0.54 Driver

  ==> Input File <==

--------------------------------------------------------------------------
set {
	reference rhf
	basis cc-pvtz
}

set_num_threads( 4 )
memory 2 gb

molecule MOL {
0 1

O	 0.144991	 -0.078540	 0.636905
C	 1.121787	 0.124983	 0.000110
C	 1.347479	 1.311315	 -0.901633
O	 2.167739	 -0.685178	 -0.000678
C	 0.176053	 2.281863	 -0.943140
H	 2.253693	 1.803254	 -0.563620
H	 1.572690	 0.924570	 -1.890152
C	 0.438033	 3.470052	 -1.863946
H	 -0.032807	 2.634254	 0.060721
H	 -0.714270	 1.755018	 -1.267646
C	 -0.728849	 4.450376	 -1.911274
H	 1.333106	 3.991962	 -1.535776
H	 0.646827	 3.110726	 -2.868200
H	 -0.940050	 4.853966	 -0.926848
H	 -0.515125	 5.282717	 -2.571734
H	 -1.631265	 3.966408	 -2.269048
C	 3.449556	 -0.089977	 -0.000570
H	 3.585694	 0.522473	 -0.879546
H	 4.155805	 -0.904274	 -0.001389
H	 3.586173	 0.521118	 0.879272

	symmetry c1
}
set optking {
	frozen_dihedral = ("
		1 2 4 17
	")
}

ee,wfn = optimize('scf', return_wfn=True)
oeprop( wfn, 'DIPOLE', 'QUADRUPOLE', 'MULLIKEN_CHARGES')
f=open( 'psi4out.xyz', 'w' )
f.write( "20  " )
f.write( str(ee) + "\n" )
f.write( MOL.save_string_xyz() )
f.close()
--------------------------------------------------------------------------

    Molecular point group: c1
  Charge       = 0
  Multiplicity = 1
  Basis Set: CC-PVTZ
  Basis Set:
  @DF-RHF Final Energy:  -384.05876144324691
    Total Energy =                       -384.0587614432469081
    Molecular point group: c1
  Basis Set: CC-PVTZ
  Basis Set:
  Basis Set: CC-PVTZ
  Basis Set:
  @DF-RHF Final Energy:  -384.04462135560686
    Total Energy =                       -384.0446213556066368
  Basis Set: CC-PVTZ
  Basis Set:
  Basis Set: CC-PVTZ
  Basis Set:
  @DF-RHF Final Energy:  -384.06424441093435
    Total Energy =                       -384.0642444109344069
  Basis Set: CC-PVTZ
  Basis Set:
  Basis Set: CC-PVTZ
  Basis Set:
  @DF-RHF Final Energy:  -384.03269187934421
    Total Energy =                       -384.0326918793444975
  Basis Set: CC-PVTZ
  Basis Set:
  @DF-RHF Final Energy:  -384.06349093855408
    Total Energy =                       -384.0634909385539686
  @DF-RHF Final Energy:  -384.06571119153512
    Total Energy =                       -384.0657111915352289
  Basis Set: CC-PVTZ
  Basis Set:
  @DF-RHF Final Energy:  -384.06615420253752
    Total Energy =                       -384.0661542025379731
  Basis Set: CC-PVTZ
  Basis Set:
  Basis Set: CC-PVTZ
  Basis Set:
  @DF-RHF Final Energy:  -384.06620182972932
    Total Energy =                       -384.0662018297292661
  Basis Set: CC-PVTZ
  Basis Set:
  Basis Set: CC-PVTZ
  Basis Set:
  @DF-RHF Final Energy:  -384.06620537028630
    Total Energy =                       -384.0662053702862977
  Basis Set: CC-PVTZ
  Basis Set:
  Charge       = 0
  Multiplicity = 1
  Basis Set: CC-PVTZ
  Basis Set:

    Orbital Energies (a.u.)
    -----------------------

    Doubly Occupied:

       1A    -20.588036     2A    -20.535202     3A    -11.366753
       4A    -11.292653     5A    -11.242099     6A    -11.222315
       7A    -11.221424     8A    -11.211487     9A     -1.463696
      10A     -1.369387    11A     -1.092637    12A     -1.018054
      13A     -0.981029    14A     -0.901800    15A     -0.810648
      16A     -0.767567    17A     -0.700450    18A     -0.687484
      19A     -0.676593    20A     -0.650086    21A     -0.611177
      22A     -0.592710    23A     -0.590358    24A     -0.554547
      25A     -0.540855    26A     -0.520673    27A     -0.503986
      28A     -0.483686    29A     -0.480115    30A     -0.474507
      31A     -0.453659    32A     -0.435004

  @DF-RHF Final Energy:  -384.06620543639423

   => Energetics <=

    Nuclear Repulsion Energy =            383.4278677126977186
    One-Electron Energy =               -1282.9067942736392069
    Two-Electron Energy =                 515.4127211245472608
    DFT Exchange-Correlation Energy =       0.0000000000000000
    Empirical Dispersion Energy =           0.0000000000000000
    PCM Polarization Energy =               0.0000000000000000
    EFP Energy =                            0.0000000000000000
    Total Energy =                       -384.0662054363942843
    Molecular point group: c1
  Basis Set: CC-PVTZ
  Basis Set:

  -Total Gradient:
     Atom            X                  Y                   Z
    ------   -----------------  -----------------  -----------------
       1        0.001970845917     0.001273462089     0.003210439053
       2       -0.002869062778    -0.002063774487    -0.002910383228
       3        0.000059628222     0.000033882968     0.000041479309
       4        0.000791020096     0.001249676653    -0.003631139587
       5       -0.000013065959    -0.000001118461    -0.000002363645
       6       -0.000005600609    -0.000008264323    -0.000002382435
       7        0.000000019040     0.000002073716     0.000014130013
       8        0.000009476433    -0.000014169751     0.000000592511
       9       -0.000002012421     0.000003167630    -0.000014104048
      10        0.000000929740     0.000013525963     0.000002223696
      11       -0.000016129215     0.000000086846     0.000009981384
      12       -0.000002259868    -0.000013933360    -0.000004901639
      13       -0.000001805109    -0.000003972434     0.000013816031
      14       -0.000000737915    -0.000002060074    -0.000012608583
      15        0.000002896609    -0.000012099434     0.000007772915
      16        0.000004666663     0.000006632794     0.000004378420
      17        0.000019728674    -0.000441210785     0.003300867286
      18        0.000017982367     0.000028300741    -0.000040793937
      19        0.000028310910    -0.000070381014    -0.000002392200
      20        0.000005169201     0.000020174717     0.000015388686

  **** Optimization is complete! (in 10 steps) ****
    Final optimized geometry and variables:
    Molecular point group: c1

    Geometry (in Angstrom), charge = 0, multiplicity = 1:

    O           -0.899815830388    -1.395348441332     1.128652998129
    C            0.061302041225    -1.211403282731     0.474236875085
    C            0.351730725059     0.084934251079    -0.249051338216
    O            0.956257818932    -2.195441931177     0.321518108911
    C           -0.809285556334     1.069648211026    -0.210519925261
    H            1.235160584497     0.531762185197     0.197044027935
    H            0.621803149489    -0.157232014662    -1.272151266151
    C           -0.493085710782     2.369609675371    -0.944301483562
    H           -1.063487510739     1.280150156223     0.821276133351
    H           -1.685867163267     0.604668630063    -0.647135647323
    C           -1.650800152287     3.361472394494    -0.913546771170
    H            0.386661717965     2.830563598004    -0.502423562433
    H           -0.235250477554     2.150296993902    -1.977156455080
    H           -1.910347160918     3.627116933783     0.105468371394
    H           -1.398666016811     4.274415202208    -1.440292090843
    H           -2.535899344847     2.942934059730    -1.380189343073
    C            2.337477551079    -1.931444191248     0.335693065078
    H            2.654894887035    -1.374460693787    -0.536458191438
    H            2.826160175241    -2.892157785103     0.333813711356
    H            2.622112865635    -1.394689785378     1.232356628575

  Mulliken Charges: (a.u.)
   Center  Symbol    Alpha    Beta     Spin     Total
       1     O     4.17305  4.17305  0.00000 -0.34610
       2     C     2.80095  2.80095  0.00000  0.39809
       3     C     3.13300  3.13300  0.00000 -0.26600
       4     O     4.14072  4.14072  0.00000 -0.28143
       5     C     3.08193  3.08193  0.00000 -0.16387
       6     H     0.44309  0.44309  0.00000  0.11381
       7     H     0.43744  0.43744  0.00000  0.12512
       8     C     3.08529  3.08529  0.00000 -0.17059
       9     H     0.44328  0.44328  0.00000  0.11345
      10     H     0.44516  0.44516  0.00000  0.10968
      11     C     3.14985  3.14985  0.00000 -0.29970
      12     H     0.45600  0.45600  0.00000  0.08799
      13     H     0.45550  0.45550  0.00000  0.08900
      14     H     0.45325  0.45325  0.00000  0.09350
      15     H     0.44814  0.44814  0.00000  0.10372
      16     H     0.45314  0.45314  0.00000  0.09372
      17     C     3.04683  3.04683  0.00000 -0.09366
      18     H     0.46081  0.46081  0.00000  0.07839
      19     H     0.43461  0.43461  0.00000  0.13078
      20     H     0.45796  0.45796  0.00000  0.08408

   Total alpha = 32.00000, Total beta = 32.00000, Total charge =  0.00000

*** Psi4 exiting successfully. Buy a developer a beer!
