  ==> Input File <==

--------------------------------------------------------------------------
set {
	reference rhf
	basis cc-pvtz
}

set_num_threads( 4 )
memory 2 gb

molecule MOL {
0 1

H	 3.273419	 0.176595	 -0.102789
N	 2.433987	 -0.362316	 -0.080024
C	 1.263552	 0.494993	 0.021953
H	 2.497638	 -0.973615	 0.707122
C	 -0.016533	 -0.325589	 -0.026925
H	 1.280915	 1.180773	 -0.818522
H	 1.263064	 1.106893	 0.925038
C	 -1.280353	 0.525521	 0.047747
H	 -0.016686	 -0.912532	 -0.939714
H	 -0.014099	 -1.037598	 0.796369
C	 -2.557235	 -0.283193	 -0.156075
H	 -1.229392	 1.310162	 -0.702392
H	 -1.323492	 1.027630	 1.010503
H	 -2.560184	 -0.771133	 -1.124907
H	 -3.435932	 0.349137	 -0.101281
H	 -2.656924	 -1.054157	 0.600798

	symmetry c1
}
set optking {
	frozen_dihedral = ("
		12 8 5 9
	")
}

ee = optimize('scf')
oeprop('DIPOLE', 'QUADRUPOLE', 'MULLIKEN_CHARGES')
f=open( 'psi4out.xyz', 'w' )
f.write( "16  " )
f.write( str(ee) + "\n" )
f.write( MOL.save_string_xyz() )
f.close()
--------------------------------------------------------------------------

    Molecular point group: c1
  Charge       = 0
  Multiplicity = 1
  Basis Set: CC-PVTZ
  Basis Set:
  @DF-RHF Final Energy:  -212.40018342010302
    Total Energy =                       -212.4001834201031897
    Molecular point group: c1
  Basis Set: CC-PVTZ
  Basis Set:
  Basis Set: CC-PVTZ
  Basis Set:
  @DF-RHF Final Energy:  -212.40020357785201
    Total Energy =                       -212.4002035778520394
  Basis Set: CC-PVTZ
  Basis Set:
  Basis Set: CC-PVTZ
  Basis Set:
  @DF-RHF Final Energy:  -212.40020857713333
    Total Energy =                       -212.4002085771333554
  Basis Set: CC-PVTZ
  Basis Set:
  Charge       = 0
  Multiplicity = 1
  Basis Set: CC-PVTZ
  Basis Set:

    Orbital Energies (a.u.)
    -----------------------

    Doubly Occupied:

       1A    -15.526587     2A    -11.238178     3A    -11.212953
       4A    -11.207912     5A    -11.205926     6A     -1.178358
       7A     -1.060802     8A     -0.959853     9A     -0.844362
      10A     -0.792525    11A     -0.665494    12A     -0.637431
      13A     -0.608260    14A     -0.575619    15A     -0.565227
      16A     -0.526943    17A     -0.499673    18A     -0.470947
      19A     -0.465211    20A     -0.462411    21A     -0.384023

  @DF-RHF Final Energy:  -212.40020864694401

   => Energetics <=

    Nuclear Repulsion Energy =            186.5612715724773238
    One-Electron Energy =                -655.7455684294900493
    Two-Electron Energy =                 256.7840882100689441
    DFT Exchange-Correlation Energy =       0.0000000000000000
    Empirical Dispersion Energy =           0.0000000000000000
    PCM Polarization Energy =               0.0000000000000000
    EFP Energy =                            0.0000000000000000
    Total Energy =                       -212.4002086469437813
    Molecular point group: c1
  Basis Set: CC-PVTZ
  Basis Set:

  -Total Gradient:
     Atom            X                  Y                   Z
    ------   -----------------  -----------------  -----------------
       1        0.000006699812    -0.000000954256     0.000000670042
       2        0.000003160379    -0.000000619225    -0.000004055693
       3       -0.000002738069     0.000005903251    -0.000004645112
       4       -0.000000991557    -0.000001575380     0.000001983318
       5        0.000767447744     0.001196128069    -0.000473254080
       6       -0.000001835642     0.000001810646    -0.000000048322
       7       -0.000004312639    -0.000007687102    -0.000003227413
       8       -0.000742079555    -0.001032650647    -0.000797448675
       9       -0.000521382161    -0.000827954566     0.000537231818
      10        0.000001405610    -0.000005941172     0.000002847958
      11       -0.000006726287    -0.000003431002     0.000001970063
      12        0.000494892476     0.000672385060     0.000734236886
      13       -0.000001716497    -0.000002372091     0.000000197490
      14        0.000002298395     0.000006053361     0.000001782541
      15        0.000001678545     0.000001274824     0.000002688050
      16        0.000004199444    -0.000000369770    -0.000000928872

  **** Optimization is complete! (in 4 steps) ****
    Final optimized geometry and variables:
    Molecular point group: c1

    Geometry (in Angstrom), charge = 0, multiplicity = 1:

    H            3.274518350217     0.170348091435    -0.050557191112
    N            2.434185065073    -0.367448646464    -0.034245488031
    C            1.263650521290     0.491663904582     0.048583266245
    H            2.488031523508    -0.973713405911     0.757507991923
    C           -0.016452945740    -0.327274136678    -0.012014294587
    H            1.291964655606     1.173012089339    -0.795088809463
    H            1.252371938272     1.108434804843     0.948433545588
    C           -1.281455153384     0.521941790939     0.070299953649
    H           -0.017381766480    -0.912021928143    -0.926251134160
    H           -0.017053130614    -1.046237879502     0.805430412035
    C           -2.559423606319    -0.288041417338    -0.117286859180
    H           -1.236752562553     1.310097366602    -0.676719574698
    H           -1.314290780196     1.025269171263     1.032964690854
    H           -2.579446429035    -0.766437187874    -1.090566794993
    H           -3.438660265244     0.341076262478    -0.039063618601
    H           -2.642203925725    -1.066739666230     0.633773842296

  Mulliken Charges: (a.u.)
   Center  Symbol    Alpha    Beta     Spin     Total
       1     H     0.43019  0.43019  0.00000  0.13962
       2     N     3.68922  3.68922  0.00000 -0.37844
       3     C     3.02625  3.02625  0.00000 -0.05250
       4     H     0.43090  0.43090  0.00000  0.13819
       5     C     3.07986  3.07986  0.00000 -0.15971
       6     H     0.45695  0.45695  0.00000  0.08610
       7     H     0.46890  0.46890  0.00000  0.06221
       8     C     3.08860  3.08860  0.00000 -0.17719
       9     H     0.44988  0.44988  0.00000  0.10025
      10     H     0.46050  0.46050  0.00000  0.07900
      11     C     3.14904  3.14904  0.00000 -0.29808
      12     H     0.45530  0.45530  0.00000  0.08939
      13     H     0.45613  0.45613  0.00000  0.08774
      14     H     0.45412  0.45412  0.00000  0.09176
      15     H     0.44882  0.44882  0.00000  0.10237
      16     H     0.45535  0.45535  0.00000  0.08930

   Total alpha = 21.00000, Total beta = 21.00000, Total charge = -0.00000
