  ==> Input File <==

--------------------------------------------------------------------------
set {
	reference rhf
	basis 6-31G*
}

set_num_threads( 1 )
memory 2 gb

molecule MOL {
0 1

H	 2.591676	 2.013956	 0.335017
O	 3.341076	 1.666752	 -0.126416
C	 3.569581	 0.339145	 0.272707
C	 4.986132	 -0.141791	 -0.021934
H	 3.390956	 0.317830	 1.340093
H	 2.843293	 -0.328193	 -0.189835
C	 5.327685	 -0.195332	 -1.513022
H	 5.686220	 0.513680	 0.489536
H	 5.104727	 -1.133225	 0.412070
C	 6.736746	 -0.733080	 -1.777958
H	 5.233795	 0.800625	 -1.936839
H	 4.602312	 -0.825184	 -2.028252
C	 7.098896	 -0.887783	 -3.259598
H	 7.464539	 -0.083080	 -1.295605
H	 6.832650	 -1.704230	 -1.296949
C	 7.200529	 0.426365	 -4.038804
H	 8.053988	 -1.404736	 -3.325740
H	 6.370153	 -1.537633	 -3.741745
C	 7.666372	 0.228648	 -5.482873
H	 7.892267	 1.094328	 -3.527498
H	 6.238084	 0.932272	 -4.046589
C	 7.762513	 1.538224	 -6.264814
H	 8.636368	 -0.263891	 -5.483882
H	 6.981788	 -0.446223	 -5.992558
H	 8.464997	 2.222920	 -5.797983
H	 8.096822	 1.365178	 -7.283110
H	 6.798954	 2.037742	 -6.313808

	symmetry c1
}
set optking {
	frozen_dihedral = ("
		14 10 7 4,
		14 10 13 16,
		10 7 4 8,
		8 4 3 2,
		10 13 16 20,
		20 16 19 22
	")
}

ee = energy('scf')
oeprop('DIPOLE', 'QUADRUPOLE', 'MULLIKEN_CHARGES')
f=open( 'psi4out.xyz', 'w' )
f.write( "27  " )
f.write( str(ee) + "\n" )
f.write( MOL.save_string_xyz() )
f.close()
--------------------------------------------------------------------------

    Molecular point group: c1

    Geometry (in Angstrom), charge = 0, multiplicity = 1:

       Center              X                  Y                   Z               Mass
    ------------   -----------------  -----------------  -----------------  -----------------
           H         -3.323500806668     1.728466488684     2.771933692446     1.007825032070
           O         -2.574100806668     1.381262488684     2.310500692446    15.994914619560
           C         -2.345595806668     0.053655488684     2.709623692446    12.000000000000
           C         -0.929044806668    -0.427280511316     2.414982692446    12.000000000000
           H         -2.524220806668     0.032340488684     3.777009692446     1.007825032070
           H         -3.071883806668    -0.613682511316     2.247081692446     1.007825032070
           C         -0.587491806668    -0.480821511316     0.923894692446    12.000000000000
           H         -0.228956806668     0.228190488684     2.926452692446     1.007825032070
           H         -0.810449806668    -1.418714511316     2.848986692446     1.007825032070
           C          0.821569193332    -1.018569511316     0.658958692446    12.000000000000
           H         -0.681381806668     0.515135488684     0.500077692446     1.007825032070
           H         -1.312864806668    -1.110673511316     0.408664692446     1.007825032070
           C          1.183719193332    -1.173272511316    -0.822681307554    12.000000000000
           H          1.549362193332    -0.368569511316     1.141311692446     1.007825032070
           H          0.917473193332    -1.989719511316     1.139967692446     1.007825032070
           C          1.285352193332     0.140875488684    -1.601887307554    12.000000000000
           H          2.138811193332    -1.690225511316    -0.888823307554     1.007825032070
           H          0.454976193332    -1.823122511316    -1.304828307554     1.007825032070
           C          1.751195193332    -0.056841511316    -3.045956307554    12.000000000000
           H          1.977090193332     0.808838488684    -1.090581307554     1.007825032070
           H          0.322907193332     0.646782488684    -1.609672307554     1.007825032070
           C          1.847336193332     1.252734488684    -3.827897307554    12.000000000000
           H          2.721191193332    -0.549380511316    -3.046965307554     1.007825032070
           H          1.066611193332    -0.731712511316    -3.555641307554     1.007825032070
           H          2.549820193332     1.937430488684    -3.361066307554     1.007825032070
           H          2.181645193332     1.079688488684    -4.846193307554     1.007825032070
           H          0.883777193332     1.752252488684    -3.876891307554     1.007825032070

  Charge       = 0
  Multiplicity = 1
  Basis Set: 6-31G*
  Basis Set:

    Orbital Energies (a.u.)
    -----------------------

    Doubly Occupied:

       1A    -20.550226     2A    -11.267634     3A    -11.214976
       4A    -11.210675     5A    -11.209754     6A    -11.209151
       7A    -11.207669     8A    -11.207485     9A    -11.204545
      10A     -1.358028    11A     -1.088287    12A     -1.056228
      13A     -1.007615    14A     -0.942731    15A     -0.879578
      16A     -0.812026    17A     -0.794889    18A     -0.770928
      19A     -0.699985    20A     -0.645793    21A     -0.640307
      22A     -0.613995    23A     -0.587662    24A     -0.580193
      25A     -0.570717    26A     -0.545068    27A     -0.539282
      28A     -0.516861    29A     -0.505260    30A     -0.495914
      31A     -0.475852    32A     -0.471268    33A     -0.459377
      34A     -0.453696    35A     -0.440384    36A     -0.432790
      37A     -0.426638

  @DF-RHF Final Energy:  -388.27994408116751

   => Energetics <=

    Nuclear Repulsion Energy =            458.3039572768265089
    One-Electron Energy =               -1434.9807874719797383
    Two-Electron Energy =                 588.3968861139849196
    DFT Exchange-Correlation Energy =       0.0000000000000000
    Empirical Dispersion Energy =           0.0000000000000000
    PCM Polarization Energy =               0.0000000000000000
    EFP Energy =                            0.0000000000000000
    Total Energy =                       -388.2799440811683098

  Mulliken Charges: (a.u.)
   Center  Symbol    Alpha    Beta     Spin     Total
       1     H     0.27973  0.27973  0.00000  0.44054
       2     O     4.37277  4.37277  0.00000 -0.74553
       3     C     2.99278  2.99278  0.00000  0.01443
       4     C     3.16046  3.16046  0.00000 -0.32091
       5     H     0.43211  0.43211  0.00000  0.13578
       6     H     0.43174  0.43174  0.00000  0.13652
       7     C     3.15697  3.15697  0.00000 -0.31394
       8     H     0.41637  0.41637  0.00000  0.16725
       9     H     0.42296  0.42296  0.00000  0.15407
      10     C     3.15345  3.15345  0.00000 -0.30691
      11     H     0.40700  0.40700  0.00000  0.18601
      12     H     0.42616  0.42616  0.00000  0.14768
      13     C     3.15272  3.15272  0.00000 -0.30545
      14     H     0.42361  0.42361  0.00000  0.15278
      15     H     0.42456  0.42456  0.00000  0.15088
      16     C     3.15301  3.15301  0.00000 -0.30602
      17     H     0.42290  0.42290  0.00000  0.15420
      18     H     0.42455  0.42455  0.00000  0.15091
      19     C     3.15102  3.15102  0.00000 -0.30203
      20     H     0.42456  0.42456  0.00000  0.15089
      21     H     0.42015  0.42015  0.00000  0.15970
      22     C     3.23906  3.23906  0.00000 -0.47811
      23     H     0.42396  0.42396  0.00000  0.15208
      24     H     0.42361  0.42361  0.00000  0.15277
      25     H     0.42200  0.42200  0.00000  0.15601
      26     H     0.42028  0.42028  0.00000  0.15944
      27     H     0.42151  0.42151  0.00000  0.15698

   Total alpha = 37.00000, Total beta = 37.00000, Total charge = -0.00000
