                              Psi4 1.0.54 Driver

  ==> Input File <==

--------------------------------------------------------------------------
set {
	reference rhf
	basis cc-pvtz
}

set_num_threads( 4 )
memory 2 gb

molecule MOL {
0 1

H	 -3.162190	 0.493205	 -0.000107
C	 -2.363908	 -0.234727	 0.000005
O	 -1.158738	 0.454634	 -0.000087
H	 -2.464314	 -0.863616	 -0.882153
H	 -2.464327	 -0.863359	 0.882345
C	 -0.028611	 -0.359694	 0.000037
C	 -0.340148	 -1.646049	 -0.737952
H	 0.274710	 -0.578113	 1.024208
H	 0.803935	 0.156117	 -0.478970
C	 0.851924	 -2.595457	 -0.782016
H	 -1.182871	 -2.126777	 -0.253552
H	 -0.657798	 -1.398382	 -1.744784
H	 1.171269	 -2.875733	 0.216258
H	 0.601855	 -3.505016	 -1.314170
H	 1.699740	 -2.142591	 -1.285196

	symmetry c1
}
set optking {
	frozen_dihedral = ("
		8 6 3 2
	")
}

ee,wfn = optimize('scf', return_wfn=True)
oeprop( wfn, 'DIPOLE', 'QUADRUPOLE', 'MULLIKEN_CHARGES')
f=open( 'psi4out.xyz', 'w' )
f.write( "15  " )
f.write( str(ee) + "\n" )
f.write( MOL.save_string_xyz() )
f.close()
--------------------------------------------------------------------------

    Molecular point group: c1
  Charge       = 0
  Multiplicity = 1
  Basis Set: CC-PVTZ
  Basis Set:
  @DF-RHF Final Energy:  -232.20958153433634
    Total Energy =                       -232.2095815343362801
    Molecular point group: c1
  Basis Set: CC-PVTZ
  Basis Set:
  Basis Set: CC-PVTZ
  Basis Set:
  @DF-RHF Final Energy:  -231.21339195099404
    Total Energy =                       -231.2133919509940938
  Basis Set: CC-PVTZ
  Basis Set:
  Basis Set: CC-PVTZ
  Basis Set:
  @DF-RHF Final Energy:  -231.40720035090564
    Total Energy =                       -231.4072003509057822
  Basis Set: CC-PVTZ
  Basis Set:
  Basis Set: CC-PVTZ
  Basis Set:
  @DF-RHF Final Energy:  -231.76615487190651
    Total Energy =                       -231.7661548719065081
  Basis Set: CC-PVTZ
  Basis Set:
  @DF-RHF Final Energy:  -232.04218742928907
    Total Energy =                       -232.0421874292892426
  @DF-RHF Final Energy:  -231.46554388134928
    Total Energy =                       -231.4655438813494186
  @DF-RHF Final Energy:  -231.78841477794680
    Total Energy =                       -231.7884147779469117
  @DF-RHF Final Energy:  -231.99105569072336
    Total Energy =                       -231.9910556907233570
  @DF-RHF Final Energy:  -231.42745832286778
    Total Energy =                       -231.4274583228676647
  @DF-RHF Final Energy:  -231.74543313742137
    Total Energy =                       -231.7454331374213439
  @DF-RHF Final Energy:  -231.96018832820488
    Total Energy =                       -231.9601883282046799
  @DF-RHF Final Energy:  -232.12035370871263
    Total Energy =                       -232.1203537087125426
  @DF-RHF Final Energy:  -231.62167126959707
    Total Energy =                       -231.6216712695969875
  @DF-RHF Final Energy:  -231.90617806623166
    Total Energy =                       -231.9061780662316892
  @DF-RHF Final Energy:  -232.08007874008416
    Total Energy =                       -232.0800787400842182
  @DF-RHF Final Energy:  -232.19985655938524
    Total Energy =                       -232.1998565593852959
  @DF-RHF Final Energy:  -232.21607798462659
    Total Energy =                       -232.2160779846266792
  @DF-RHF Final Energy:  -232.20797271448112
    Total Energy =                       -232.2079727144812296
  @DF-RHF Final Energy:  -232.21998455774491
    Total Energy =                       -232.2199845577450787
  Basis Set: CC-PVTZ
  Basis Set:
  @DF-RHF Final Energy:  -232.22094332602427
    Total Energy =                       -232.2209433260241553
  Basis Set: CC-PVTZ
  Basis Set:
  Basis Set: CC-PVTZ
  Basis Set:
  @DF-RHF Final Energy:  -232.22099245396623
    Total Energy =                       -232.2209924539663461
  Basis Set: CC-PVTZ
  Basis Set:
  Basis Set: CC-PVTZ
  Basis Set:
  @DF-RHF Final Energy:  -232.22102348406403
    Total Energy =                       -232.2210234840641760
  Basis Set: CC-PVTZ
  Basis Set:
  Charge       = 0
  Multiplicity = 1
  Basis Set: CC-PVTZ
  Basis Set:

    Orbital Energies (a.u.)
    -----------------------

    Doubly Occupied:

       1A    -20.543148     2A    -11.263941     3A    -11.260024
       4A    -11.219603     5A    -11.214808     6A     -1.373678
       7A     -1.059801     8A     -0.962394     9A     -0.886184
      10A     -0.799534    11A     -0.671638    12A     -0.661087
      13A     -0.630332    14A     -0.606927    15A     -0.561778
      16A     -0.535863    17A     -0.525502    18A     -0.500389
      19A     -0.490480    20A     -0.447193    21A     -0.407767

  @DF-RHF Final Energy:  -232.22102429979887

   => Energetics <=

    Nuclear Repulsion Energy =            192.3891355811314554
    One-Electron Energy =                -695.9761711944727267
    Two-Electron Energy =                 271.3660113135423444
    DFT Exchange-Correlation Energy =       0.0000000000000000
    Empirical Dispersion Energy =           0.0000000000000000
    PCM Polarization Energy =               0.0000000000000000
    EFP Energy =                            0.0000000000000000
    Total Energy =                       -232.2210242997989553
    Molecular point group: c1
  Basis Set: CC-PVTZ
  Basis Set:

  -Total Gradient:
     Atom            X                  Y                   Z
    ------   -----------------  -----------------  -----------------
       1        0.000000798470    -0.000020554401     0.000000771581
       2       -0.004233617264    -0.000542733849    -0.000650303307
       3        0.006080282710     0.001544053355     0.002076238251
       4        0.000023906296     0.000030589967     0.000013837130
       5       -0.000030753781    -0.000001172573     0.000005285383
       6       -0.000902980335    -0.003011563926    -0.006199701658
       7       -0.000017019418     0.000078109810     0.000044136622
       8       -0.000951095764     0.002029508383     0.004672901375
       9        0.000016134490    -0.000012505274     0.000019442280
      10        0.000010061930    -0.000102213028     0.000031044313
      11       -0.000015548950    -0.000016701229     0.000013219868
      12        0.000003831754    -0.000021679728    -0.000009363832
      13       -0.000013461060     0.000028010821    -0.000005730195
      14        0.000010360043     0.000013598096     0.000010726335
      15        0.000019100878     0.000005253573    -0.000022504144

  **** Optimization is complete! (in 23 steps) ****
    Final optimized geometry and variables:
    Molecular point group: c1

    Geometry (in Angstrom), charge = 0, multiplicity = 1:

    H            0.650635641889    -2.782058284026     1.021144704083
    C            0.533970161057    -1.934438557762     0.361001835594
    O            0.266558374258    -0.830600900908     1.162388509234
    H           -0.272912111473    -2.148315417252    -0.331345920718
    H            1.454746415485    -1.814943436872    -0.206710623758
    C            0.187552321070     0.431689168261     0.561484712604
    C           -0.443546502055     0.495625995996    -0.821213641647
    H            1.175740015260     0.891220669780     0.557676552270
    H           -0.410793490667     1.028740193748     1.240076475006
    C           -0.587630510066     1.940111918838    -1.290591968966
    H            0.152568175597    -0.054106134498    -1.540626688555
    H           -1.419782437612     0.022145904604    -0.790607286483
    H            0.376231636457     2.435303994319    -1.340129463697
    H           -1.031247711650     1.983890702561    -2.277692217544
    H           -1.218657529630     2.511426322272    -0.618716370271

  Mulliken Charges: (a.u.)
   Center  Symbol    Alpha    Beta     Spin     Total
       1     H     0.44332  0.44332  0.00000  0.11336
       2     C     3.03627  3.03627  0.00000 -0.07254
       3     O     4.17745  4.17745  0.00000 -0.35489
       4     H     0.46858  0.46858  0.00000  0.06285
       5     H     0.47293  0.47293  0.00000  0.05415
       6     C     2.96733  2.96733  0.00000  0.06534
       7     C     3.10016  3.10016  0.00000 -0.20031
       8     H     0.46908  0.46908  0.00000  0.06183
       9     H     0.45706  0.45706  0.00000  0.08588
      10     C     3.15254  3.15254  0.00000 -0.30508
      11     H     0.45202  0.45202  0.00000  0.09596
      12     H     0.44919  0.44919  0.00000  0.10162
      13     H     0.45443  0.45443  0.00000  0.09113
      14     H     0.44646  0.44646  0.00000  0.10709
      15     H     0.45319  0.45319  0.00000  0.09362

   Total alpha = 21.00000, Total beta = 21.00000, Total charge = -0.00000

*** Psi4 exiting successfully. Buy a developer a beer!
