  ==> Input File <==

--------------------------------------------------------------------------
set {
	reference rhf
	basis cc-pvtz
}

set_num_threads( 4 )
memory 2 gb

molecule MOL {
0 1

H	 -2.597417	 -0.468752	 0.134998
N	 -1.851927	 0.161443	 -0.071573
C	 -0.561396	 -0.500007	 0.035200
H	 -1.918744	 0.919183	 0.575500
C	 0.575129	 0.507849	 -0.048832
H	 -0.478089	 -1.200753	 -0.788956
H	 -0.456191	 -1.081816	 0.952176
C	 1.951750	 -0.141983	 0.035101
H	 0.478254	 1.061643	 -0.975981
H	 0.467676	 1.231891	 0.755499
H	 2.101550	 -0.848142	 -0.774949
H	 2.738260	 0.600794	 -0.026526
H	 2.078939	 -0.679792	 0.968824

	symmetry c1
}
set optking {
	frozen_dihedral = ("
		1 2 3 6
	")
}

ee = optimize('scf')
oeprop('DIPOLE', 'QUADRUPOLE', 'MULLIKEN_CHARGES')
f=open( 'psi4out.xyz', 'w' )
f.write( "13  " )
f.write( str(ee) + "\n" )
f.write( MOL.save_string_xyz() )
f.close()
--------------------------------------------------------------------------

    Molecular point group: c1
  Charge       = 0
  Multiplicity = 1
  Basis Set: CC-PVTZ
  Basis Set:
  @DF-RHF Final Energy:  -173.35220358718553
    Total Energy =                       -173.3522035871853859
    Molecular point group: c1
  Basis Set: CC-PVTZ
  Basis Set:
  Basis Set: CC-PVTZ
  Basis Set:
  @DF-RHF Final Energy:  -173.35224981116721
    Total Energy =                       -173.3522498111672121
  Basis Set: CC-PVTZ
  Basis Set:
  Basis Set: CC-PVTZ
  Basis Set:
  @DF-RHF Final Energy:  -173.35225478835761
    Total Energy =                       -173.3522547883575839
  Basis Set: CC-PVTZ
  Basis Set:
  Charge       = 0
  Multiplicity = 1
  Basis Set: CC-PVTZ
  Basis Set:

    Orbital Energies (a.u.)
    -----------------------

    Doubly Occupied:

       1A    -15.526912     2A    -11.238228     3A    -11.212388
       4A    -11.208042     5A     -1.178848     6A     -1.037237
       7A     -0.899659     8A     -0.801970     9A     -0.656580
      10A     -0.637544    11A     -0.604127    12A     -0.563767
      13A     -0.535635    14A     -0.493660    15A     -0.476658
      16A     -0.469427    17A     -0.385864

  @DF-RHF Final Energy:  -173.35225532839408

   => Energetics <=

    Nuclear Repulsion Energy =            132.0566259712401518
    One-Electron Energy =                -494.9646711677974622
    Two-Electron Energy =                 189.5557898681632309
    DFT Exchange-Correlation Energy =       0.0000000000000000
    Empirical Dispersion Energy =           0.0000000000000000
    PCM Polarization Energy =               0.0000000000000000
    EFP Energy =                            0.0000000000000000
    Total Energy =                       -173.3522553283940510
    Molecular point group: c1
  Basis Set: CC-PVTZ
  Basis Set:

  -Total Gradient:
     Atom            X                  Y                   Z
    ------   -----------------  -----------------  -----------------
       1        0.000046201929     0.000449227473     0.001682199854
       2        0.000132231440    -0.000357319792    -0.002324042340
       3       -0.000884132787    -0.001254589425     0.001498895904
       4        0.000005965580     0.000011587813     0.000016649468
       5        0.000011140054     0.000019254441     0.000018920716
       6        0.000653359360     0.001118141768    -0.000886907752
       7        0.000007188073     0.000000760396    -0.000002819331
       8        0.000011613245    -0.000003294379    -0.000008779747
       9        0.000001613700     0.000001175217    -0.000001613967
      10        0.000008530780     0.000020727797     0.000004222010
      11        0.000003243297    -0.000002923576     0.000001346937
      12       -0.000003834788    -0.000002457403    -0.000001197171
      13        0.000006880116    -0.000000290330     0.000003125419

  **** Optimization is complete! (in 4 steps) ****
    Final optimized geometry and variables:
    Molecular point group: c1

    Geometry (in Angstrom), charge = 0, multiplicity = 1:

    H           -2.600635859087    -0.469953487641     0.113131203693
    N           -1.852181702622     0.160363082913    -0.084754499661
    C           -0.563539955826    -0.503154251613     0.044311603728
    H           -1.927683093461     0.905432196241     0.576875696128
    C            0.573479070887     0.504490576968    -0.043185265681
    H           -0.465399945418    -1.208117617870    -0.774812186044
    H           -0.467190996101    -1.070800636594     0.970355299419
    C            1.950049916772    -0.146644148943     0.028824440031
    H            0.472533271508     1.060808483931    -0.968786575370
    H            0.473254708680     1.226057106482     0.764495084443
    H            2.093719136318    -0.849355506652    -0.785086326798
    H            2.736444674272     0.596067997928    -0.034810106181
    H            2.082565816163    -0.688124018052     0.959627832310

  Mulliken Charges: (a.u.)
   Center  Symbol    Alpha    Beta     Spin     Total
       1     H     0.43123  0.43123  0.00000  0.13753
       2     N     3.68773  3.68773  0.00000 -0.37546
       3     C     3.01885  3.01885  0.00000 -0.03770
       4     H     0.43183  0.43183  0.00000  0.13633
       5     C     3.08087  3.08087  0.00000 -0.16174
       6     H     0.45879  0.45879  0.00000  0.08242
       7     H     0.47017  0.47017  0.00000  0.05966
       8     C     3.15219  3.15219  0.00000 -0.30439
       9     H     0.44860  0.44860  0.00000  0.10280
      10     H     0.46078  0.46078  0.00000  0.07845
      11     H     0.45447  0.45447  0.00000  0.09106
      12     H     0.44777  0.44777  0.00000  0.10446
      13     H     0.45672  0.45672  0.00000  0.08656

   Total alpha = 17.00000, Total beta = 17.00000, Total charge = -0.00000
