  ==> Input File <==

--------------------------------------------------------------------------
set {
	reference rhf
	basis 6-31G*
}

set_num_threads( 1 )
memory 2 gb

molecule MOL {
0 1

H	 -1.836216	 1.387520	 -0.000064
C	 -1.301823	 0.443321	 -0.000031
O	 -0.003969	 0.658512	 0.000451
O	 -1.829879	 -0.616434	 -0.000857
C	 0.510165	 1.570279	 -0.969876
C	 2.008120	 1.649555	 -0.769462
H	 0.034789	 2.531582	 -0.831198
H	 0.255154	 1.209952	 -1.957007
H	 2.244815	 2.004530	 0.227033
H	 2.440046	 2.335848	 -1.490347
H	 2.466404	 0.676564	 -0.904191

	symmetry c1
}
set optking {
	frozen_dihedral = ("
		7 5 3 2
	")
}

ee = energy('scf')
oeprop('DIPOLE', 'QUADRUPOLE', 'MULLIKEN_CHARGES')
f=open( 'psi4out.xyz', 'w' )
f.write( "11  " )
f.write( str(ee) + "\n" )
f.write( MOL.save_string_xyz() )
f.close()
--------------------------------------------------------------------------

    Molecular point group: c1

    Geometry (in Angstrom), charge = 0, multiplicity = 1:

       Center              X                  Y                   Z               Mass
    ------------   -----------------  -----------------  -----------------  -----------------
           H         -1.713495279125     0.646587139567     0.349403862115     1.007825032070
           C         -1.179102279125    -0.297611860433     0.349436862115    12.000000000000
           O          0.118751720875    -0.082420860433     0.349918862115    15.994914619560
           O         -1.707158279125    -1.357366860433     0.348610862115    15.994914619560
           C          0.632885720875     0.829346139567    -0.620408137885    12.000000000000
           C          2.130840720875     0.908622139567    -0.419994137885    12.000000000000
           H          0.157509720875     1.790649139567    -0.481730137885     1.007825032070
           H          0.377874720875     0.469019139567    -1.607539137885     1.007825032070
           H          2.367535720875     1.263597139567     0.576500862115     1.007825032070
           H          2.562766720875     1.594915139567    -1.140879137885     1.007825032070
           H          2.589124720875    -0.064368860433    -0.554723137885     1.007825032070

  Charge       = 0
  Multiplicity = 1
  Basis Set: 6-31G*
  Basis Set:

    Orbital Energies (a.u.)
    -----------------------

    Doubly Occupied:

       1A    -20.603008     2A    -20.562974     3A    -11.379550
       4A    -11.308567     5A    -11.234333     6A     -1.471079
       7A     -1.379415     8A     -1.056510     9A     -0.890723
      10A     -0.843773    11A     -0.740452    12A     -0.691586
      13A     -0.662397    14A     -0.621373    15A     -0.567245
      16A     -0.554139    17A     -0.536420    18A     -0.510319
      19A     -0.463309    20A     -0.451186

  @DF-RHF Final Energy:  -266.81251962314866

   => Energetics <=

    Nuclear Repulsion Energy =            176.4774999636292989
    One-Electron Energy =                -713.5235092873684835
    Two-Electron Energy =                 270.2334897005912921
    DFT Exchange-Correlation Energy =       0.0000000000000000
    Empirical Dispersion Energy =           0.0000000000000000
    PCM Polarization Energy =               0.0000000000000000
    EFP Energy =                            0.0000000000000000
    Total Energy =                       -266.8125196231479208

  Mulliken Charges: (a.u.)
   Center  Symbol    Alpha    Beta     Spin     Total
       1     H     0.43468  0.43468  0.00000  0.13065
       2     C     2.72401  2.72401  0.00000  0.55198
       3     O     4.29044  4.29044  0.00000 -0.58088
       4     O     4.24011  4.24011  0.00000 -0.48021
       5     C     3.00836  3.00836  0.00000 -0.01672
       6     C     3.24733  3.24733  0.00000 -0.49466
       7     H     0.41791  0.41791  0.00000  0.16418
       8     H     0.41060  0.41060  0.00000  0.17880
       9     H     0.40730  0.40730  0.00000  0.18539
      10     H     0.41540  0.41540  0.00000  0.16921
      11     H     0.40386  0.40386  0.00000  0.19227

   Total alpha = 20.00000, Total beta = 20.00000, Total charge =  0.00000
