  ==> Input File <==

--------------------------------------------------------------------------
set {
	reference rhf
	basis 6-31G*
}

set_num_threads( 4 )
memory 2 gb

molecule MOL {
0 1

H	 -3.135461	 -1.215070	 0.001379
O	 -2.310168	 -0.871793	 -0.309793
C	 -2.026376	 0.340750	 0.341611
C	 -0.673256	 0.843270	 -0.132153
H	 -2.792215	 1.080697	 0.115987
H	 -2.013526	 0.200402	 1.421792
C	 0.486613	 -0.083066	 0.235839
H	 -0.715586	 0.970948	 -1.210718
H	 -0.508072	 1.829858	 0.297090
C	 1.111905	 -0.767346	 -0.980955
H	 0.133895	 -0.833897	 0.935378
H	 1.252080	 0.490752	 0.757024
C	 2.274775	 -1.688548	 -0.613813
H	 0.348621	 -1.341490	 -1.501986
H	 1.458449	 -0.012477	 -1.684178
H	 1.951899	 -2.475503	 0.061718
H	 2.696758	 -2.161446	 -1.495426
H	 3.071021	 -1.137528	 -0.120984

	symmetry c1
}
set optking {
	frozen_dihedral = ("
		10 7 4 8
	")
}

ee = optimize('scf')
oeprop('DIPOLE', 'QUADRUPOLE', 'MULLIKEN_CHARGES')
f=open( 'psi4out.xyz', 'w' )
f.write( "18  " )
f.write( str(ee) + "\n" )
f.write( MOL.save_string_xyz() )
f.close()
--------------------------------------------------------------------------

    Molecular point group: c1
  Charge       = 0
  Multiplicity = 1
  Basis Set: 6-31G*
  Basis Set:
  @DF-RHF Final Energy:  -271.17515483869340
    Total Energy =                       -271.1751548386936292
    Molecular point group: c1
  Basis Set: 6-31G*
  Basis Set:
  Basis Set: 6-31G*
  Basis Set:
  @DF-RHF Final Energy:  -271.17539978212380
    Total Energy =                       -271.1753997821238045
  Basis Set: 6-31G*
  Basis Set:
  Basis Set: 6-31G*
  Basis Set:
  @DF-RHF Final Energy:  -271.17550374012058
    Total Energy =                       -271.1755037401204618
  Basis Set: 6-31G*
  Basis Set:
  Basis Set: 6-31G*
  Basis Set:
  @DF-RHF Final Energy:  -271.17550032025588
    Total Energy =                       -271.1755003202557646
  Basis Set: 6-31G*
  Basis Set:
  Basis Set: 6-31G*
  Basis Set:
  @DF-RHF Final Energy:  -271.17550699549929
    Total Energy =                       -271.1755069954990631
  Basis Set: 6-31G*
  Basis Set:
  Charge       = 0
  Multiplicity = 1
  Basis Set: 6-31G*
  Basis Set:

    Orbital Energies (a.u.)
    -----------------------

    Doubly Occupied:

       1A    -20.554156     2A    -11.268234     3A    -11.211823
       4A    -11.206968     5A    -11.204587     6A    -11.200902
       7A     -1.360635     8A     -1.070666     9A     -1.006125
      10A     -0.911217    11A     -0.818222    12A     -0.780877
      13A     -0.705239    14A     -0.642888    15A     -0.617991
      16A     -0.578235    17A     -0.568684    18A     -0.557051
      19A     -0.521270    20A     -0.502026    21A     -0.485740
      22A     -0.464224    23A     -0.449943    24A     -0.446911
      25A     -0.429634

  @DF-RHF Final Energy:  -271.17550723270659

   => Energetics <=

    Nuclear Repulsion Energy =            252.8248739624696668
    One-Electron Energy =                -868.8722624800832364
    Two-Electron Energy =                 344.8718812849069195
    DFT Exchange-Correlation Energy =       0.0000000000000000
    Empirical Dispersion Energy =           0.0000000000000000
    PCM Polarization Energy =               0.0000000000000000
    EFP Energy =                            0.0000000000000000
    Total Energy =                       -271.1755072327067069
    Molecular point group: c1
  Basis Set: 6-31G*
  Basis Set:

  -Total Gradient:
     Atom            X                  Y                   Z
    ------   -----------------  -----------------  -----------------
       1        0.000002066433     0.000001090349     0.000000301213
       2       -0.000016470153     0.000016890290    -0.000006771921
       3        0.000012146876    -0.000028955475     0.000008094910
       4        0.001381089752     0.001749962143     0.000074096926
       5       -0.000002621317    -0.000000437890    -0.000004328315
       6        0.000007214862     0.000010437107     0.000000463989
       7       -0.001181533272    -0.001406188758     0.000143840616
       8       -0.000896281491    -0.001170121271    -0.000097964854
       9        0.000007695080    -0.000001283969     0.000005146971
      10        0.000684994360     0.000825403841    -0.000105917022
      11        0.000002725915     0.000002818671    -0.000013828775
      12       -0.000000861335     0.000008846771    -0.000006828172
      13        0.000002864801    -0.000000561337     0.000001449996
      14       -0.000007342594     0.000006747701    -0.000000483804
      15       -0.000001089514    -0.000005347111     0.000005942504
      16        0.000001728880    -0.000001146470    -0.000003983062
      17        0.000009554481    -0.000005914249    -0.000000195804
      18       -0.000005881763    -0.000002240343     0.000000964604

  **** Optimization is complete! (in 6 steps) ****
    Final optimized geometry and variables:
    Molecular point group: c1

    Geometry (in Angstrom), charge = 0, multiplicity = 1:

    H           -2.854581552363    -0.856672380332     0.260553235115
    O           -2.042970530903    -0.488709959188    -0.058449771856
    C           -1.795086700948     0.739940577708     0.577526432443
    C           -0.444543908879     1.257239317259     0.111901979132
    H           -2.573051661434     1.460282112036     0.330371308239
    H           -1.793084330226     0.615612908012     1.659592897586
    C            0.728896795270     0.320502271033     0.470014541283
    H           -0.500471108347     1.390277621200    -0.964684358829
    H           -0.296134640527     2.242757238929     0.544778988893
    C            1.352514599366    -0.368651086345    -0.745551756563
    H            0.389459001443    -0.438342822219     1.169429923362
    H            1.502644580985     0.884650014224     0.985691306753
    C            2.499022069689    -1.307367056660    -0.373492862515
    H            0.580187556200    -0.923322510218    -1.270281912260
    H            1.716259394371     0.388274423908    -1.437789544310
    H            2.157980403646    -2.097947091443     0.289153445569
    H            2.925446008947    -1.776871421884    -1.254857957886
    H            3.297232649115    -0.772699986095     0.134666923647

  Mulliken Charges: (a.u.)
   Center  Symbol    Alpha    Beta     Spin     Total
       1     H     0.28047  0.28047  0.00000  0.43906
       2     O     4.36950  4.36950  0.00000 -0.73900
       3     C     2.99969  2.99969  0.00000  0.00062
       4     C     3.16354  3.16354  0.00000 -0.32709
       5     H     0.42976  0.42976  0.00000  0.14048
       6     H     0.43237  0.43237  0.00000  0.13525
       7     C     3.15136  3.15136  0.00000 -0.30273
       8     H     0.41270  0.41270  0.00000  0.17461
       9     H     0.42089  0.42089  0.00000  0.15822
      10     C     3.15416  3.15416  0.00000 -0.30831
      11     H     0.41710  0.41710  0.00000  0.16579
      12     H     0.42479  0.42479  0.00000  0.15042
      13     C     3.24042  3.24042  0.00000 -0.48084
      14     H     0.41052  0.41052  0.00000  0.17896
      15     H     0.42619  0.42619  0.00000  0.14761
      16     H     0.42180  0.42180  0.00000  0.15641
      17     H     0.42052  0.42052  0.00000  0.15896
      18     H     0.42422  0.42422  0.00000  0.15157

   Total alpha = 25.00000, Total beta = 25.00000, Total charge =  0.00000
