                              Psi4 1.0.54 Driver

  ==> Input File <==

--------------------------------------------------------------------------
set {
	reference rhf
	basis cc-pvtz
}

set_num_threads( 4 )
memory 2 gb

molecule MOL {
0 1

O	 3.219313	 0.959291	 -0.614106
C	 2.698710	 0.058177	 -0.050237
C	 1.246364	 -0.005813	 0.348416
O	 3.344101	 -1.038700	 0.312317
C	 0.453207	 1.232821	 -0.049003
H	 0.839270	 -0.907818	 -0.092281
H	 1.216683	 -0.160521	 1.422434
C	 -0.998367	 1.217982	 0.432195
H	 0.481498	 1.345443	 -1.127236
H	 0.951413	 2.105557	 0.354893
C	 -1.882951	 0.151251	 -0.211235
H	 -1.429490	 2.193659	 0.228843
H	 -1.019755	 1.099323	 1.513279
C	 -3.342450	 0.243269	 0.226009
H	 -1.826223	 0.246578	 -1.293162
H	 -1.508033	 -0.839650	 0.027695
C	 -3.517741	 0.363969	 1.737127
H	 -3.878890	 -0.634103	 -0.127249
H	 -3.808906	 1.098649	 -0.257322
C	 -4.978437	 0.453581	 2.166211
H	 -3.052323	 -0.490157	 2.221458
H	 -2.984468	 1.242006	 2.091426
H	 -5.067323	 0.538418	 3.243191
H	 -5.531728	 -0.427064	 1.857273
H	 -5.463524	 1.318205	 1.725388
C	 4.720529	 -1.114346	 0.001449
H	 4.874321	 -1.055557	 -1.065852
H	 5.057824	 -2.067950	 0.373977
H	 5.264321	 -0.313596	 0.480350

	symmetry c1
}
set optking {
	frozen_dihedral = ("
		17 14 11 15
	")
}

ee,wfn = optimize('scf', return_wfn=True)
oeprop( wfn, 'DIPOLE', 'QUADRUPOLE', 'MULLIKEN_CHARGES')
f=open( 'psi4out.xyz', 'w' )
f.write( "29  " )
f.write( str(ee) + "\n" )
f.write( MOL.save_string_xyz() )
f.close()
--------------------------------------------------------------------------

    Molecular point group: c1
  Charge       = 0
  Multiplicity = 1
  Basis Set: CC-PVTZ
  Basis Set:
  @DF-RHF Final Energy:  -501.22052566553441
    Total Energy =                       -501.2205256655340690
    Molecular point group: c1
  Basis Set: CC-PVTZ
  Basis Set:
  Basis Set: CC-PVTZ
  Basis Set:
  @DF-RHF Final Energy:  -501.21843691175548
    Total Energy =                       -501.2184369117551341
  Basis Set: CC-PVTZ
  Basis Set:
  Basis Set: CC-PVTZ
  Basis Set:
  @DF-RHF Final Energy:  -501.22184573462039
    Total Energy =                       -501.2218457346211835
  Basis Set: CC-PVTZ
  Basis Set:
  Basis Set: CC-PVTZ
  Basis Set:
  @DF-RHF Final Energy:  -501.22206677637973
    Total Energy =                       -501.2220667763795063
  Basis Set: CC-PVTZ
  Basis Set:
  @DF-RHF Final Energy:  -501.22196340867663
    Total Energy =                       -501.2219634086776523
  Basis Set: CC-PVTZ
  Basis Set:
  @DF-RHF Final Energy:  -501.22201928479342
    Total Energy =                       -501.2220192847933049
  Basis Set: CC-PVTZ
  Basis Set:
  Basis Set: CC-PVTZ
  Basis Set:
  @DF-RHF Final Energy:  -501.22209068252289
    Total Energy =                       -501.2220906825227758
  Basis Set: CC-PVTZ
  Basis Set:
  Basis Set: CC-PVTZ
  Basis Set:
  @DF-RHF Final Energy:  -501.22209209126459
    Total Energy =                       -501.2220920912642441
  Basis Set: CC-PVTZ
  Basis Set:
  Charge       = 0
  Multiplicity = 1
  Basis Set: CC-PVTZ
  Basis Set:

    Orbital Energies (a.u.)
    -----------------------

    Doubly Occupied:

       1A    -20.595938     2A    -20.533789     3A    -11.364191
       4A    -11.278209     5A    -11.232865     6A    -11.216888
       7A    -11.215084     8A    -11.214308     9A    -11.213670
      10A    -11.212793    11A    -11.207116    12A     -1.471831
      13A     -1.365412    14A     -1.099450    15A     -1.066972
      16A     -1.018741    17A     -0.977850    18A     -0.929528
      19A     -0.862644    20A     -0.817920    21A     -0.776976
      22A     -0.760568    23A     -0.702982    24A     -0.685419
      25A     -0.675655    26A     -0.647586    27A     -0.627518
      28A     -0.606613    29A     -0.600186    30A     -0.582031
      31A     -0.565698    32A     -0.556070    33A     -0.545253
      34A     -0.525711    35A     -0.514629    36A     -0.509093
      37A     -0.495511    38A     -0.484698    39A     -0.475097
      40A     -0.460640    41A     -0.454356    42A     -0.450010
      43A     -0.444981    44A     -0.439587

  @DF-RHF Final Energy:  -501.22209230423016

   => Energetics <=

    Nuclear Repulsion Energy =            616.5960702843425452
    One-Electron Energy =               -1904.6721901292312396
    Two-Electron Energy =                 786.8540275406587625
    DFT Exchange-Correlation Energy =       0.0000000000000000
    Empirical Dispersion Energy =           0.0000000000000000
    PCM Polarization Energy =               0.0000000000000000
    EFP Energy =                            0.0000000000000000
    Total Energy =                       -501.2220923042298182
    Molecular point group: c1
  Basis Set: CC-PVTZ
  Basis Set:

  -Total Gradient:
     Atom            X                  Y                   Z
    ------   -----------------  -----------------  -----------------
       1        0.000003831115    -0.000007103862    -0.000007474474
       2       -0.000001439971     0.000019788229     0.000023715831
       3       -0.000009778224    -0.000015621106    -0.000010649893
       4       -0.000004601752    -0.000003076056    -0.000007937987
       5        0.000003468706     0.000005661607     0.000010817304
       6       -0.000001182157     0.000004936696     0.000003561874
       7        0.000001984656     0.000002535549     0.000001253940
       8        0.000000858673     0.000011627597    -0.000011794042
       9       -0.000005750216    -0.000000355044     0.000001907902
      10       -0.000001002594    -0.000002413113     0.000000825368
      11       -0.000233739197    -0.003415438407     0.000011909421
      12        0.000013898686    -0.000004031914     0.000000626208
      13       -0.000004106698    -0.000001228670    -0.000015085099
      14       -0.000029770696    -0.003141095937     0.000901770327
      15        0.000209668509     0.003779319376    -0.000235448751
      16        0.000000056685     0.000002004375    -0.000003130506
      17        0.000039884616     0.002780274253    -0.000666144448
      18        0.000000329587     0.000012481825     0.000003930709
      19        0.000006055942    -0.000006704925     0.000008709593
      20        0.000004582501    -0.000007708145     0.000003610149
      21       -0.000014145800     0.000010541453    -0.000009999109
      22       -0.000012530487    -0.000029038226    -0.000004526157
      23        0.000001373296    -0.000004556019    -0.000009811598
      24        0.000011791283     0.000022871016     0.000004379336
      25        0.000014681814    -0.000012497504     0.000006869345
      26       -0.000000280728    -0.000002674354     0.000003213884
      27        0.000002545447    -0.000001867382    -0.000004554345
      28        0.000001637431     0.000002092736    -0.000002269843
      29        0.000001679567     0.000001275953     0.000001725059

  **** Optimization is complete! (in 9 steps) ****
    Final optimized geometry and variables:
    Molecular point group: c1

    Geometry (in Angstrom), charge = 0, multiplicity = 1:

    O            3.057824348921     0.739112229509    -1.168693603426
    C            2.604225581514    -0.100286570257    -0.468215257001
    C            1.173247718178    -0.173631994908     0.000080006144
    O            3.316222369777    -1.110024439910     0.005741438525
    C            0.305989190531     0.966580040811    -0.518773252138
    H            0.793287971764    -1.142270165595    -0.301630720042
    H            1.192565420466    -0.187187917616     1.085348494284
    C           -1.122098441797     0.953339594476     0.029175551144
    H            0.284891415119     0.935343734452    -1.602561957845
    H            0.777449498055     1.905728593917    -0.256398939322
    C           -1.963242594362    -0.242931226328    -0.423762633946
    H           -1.613403199039     1.866711672900    -0.294769303710
    H           -1.086033712716     0.997296426349     1.113292072339
    C           -3.455710374794    -0.138616504359    -0.092170105168
    H           -1.864027652255    -0.316831905672    -1.503424684604
    H           -1.564786341617    -1.159870965638    -0.000981473920
    C           -3.789034815867     0.211676442879     1.356986416093
    H           -3.933644944991    -1.079249948414    -0.350517810106
    H           -3.905163054672     0.613356983414    -0.737070481534
    C           -5.288257712266     0.178247943355     1.636656814437
    H           -3.284369679486    -0.482147452162     2.025393255385
    H           -3.407253538988     1.197785218876     1.595297334474
    H           -5.502040318647     0.442877982722     2.665869704242
    H           -5.699090270666    -0.809490646532     1.456582934194
    H           -5.819943127581     0.876739303035     0.998838301738
    C            4.681450436379    -1.166809816651    -0.354606471222
    H            4.790210311221    -1.244152823103    -1.426265225710
    H            5.079403521762    -2.046767239803     0.124170946763
    H            5.203829705958    -0.286612472052    -0.010151319752

  Mulliken Charges: (a.u.)
   Center  Symbol    Alpha    Beta     Spin     Total
       1     O     4.19709  4.19709  0.00000 -0.39418
       2     C     2.80513  2.80513  0.00000  0.38975
       3     C     3.10161  3.10161  0.00000 -0.20323
       4     O     4.14717  4.14717  0.00000 -0.29434
       5     C     3.09170  3.09170  0.00000 -0.18339
       6     H     0.43878  0.43878  0.00000  0.12244
       7     H     0.44008  0.44008  0.00000  0.11983
       8     C     3.10743  3.10743  0.00000 -0.21485
       9     H     0.44640  0.44640  0.00000  0.10720
      10     H     0.43950  0.43950  0.00000  0.12099
      11     C     3.10192  3.10192  0.00000 -0.20384
      12     H     0.44470  0.44470  0.00000  0.11060
      13     H     0.45044  0.45044  0.00000  0.09911
      14     C     3.09240  3.09240  0.00000 -0.18480
      15     H     0.44826  0.44826  0.00000  0.10349
      16     H     0.45148  0.45148  0.00000  0.09703
      17     C     3.08795  3.08795  0.00000 -0.17591
      18     H     0.44899  0.44899  0.00000  0.10202
      19     H     0.45343  0.45343  0.00000  0.09315
      20     C     3.15059  3.15059  0.00000 -0.30117
      21     H     0.45453  0.45453  0.00000  0.09093
      22     H     0.45073  0.45073  0.00000  0.09854
      23     H     0.44833  0.44833  0.00000  0.10333
      24     H     0.45439  0.45439  0.00000  0.09121
      25     H     0.45499  0.45499  0.00000  0.09001
      26     C     3.03810  3.03810  0.00000 -0.07620
      27     H     0.45437  0.45437  0.00000  0.09127
      28     H     0.44526  0.44526  0.00000  0.10947
      29     H     0.45424  0.45424  0.00000  0.09151

   Total alpha = 44.00000, Total beta = 44.00000, Total charge = -0.00000

*** Psi4 exiting successfully. Buy a developer a beer!
