  ==> Input File <==

--------------------------------------------------------------------------
set {
	reference rhf
	basis 6-31G*
}

set_num_threads( 4 )
memory 2 gb

molecule MOL {
0 1

O	 3.044943	 -3.047031	 -0.592848
C	 2.604198	 -2.088638	 -0.044864
C	 1.160117	 -1.883325	 0.344063
O	 3.347903	 -1.046386	 0.304773
C	 0.265221	 -3.063770	 -0.027184
H	 1.143382	 -1.679458	 1.409591
H	 0.822430	 -0.969558	 -0.138321
C	 -1.220435	 -2.827975	 0.265600
H	 0.606960	 -3.951490	 0.496540
H	 0.390066	 -3.273267	 -1.084041
C	 -1.573509	 -2.701828	 1.750368
H	 -1.782635	 -3.658074	 -0.155812
H	 -1.557104	 -1.937072	 -0.262562
C	 -3.078690	 -2.578068	 1.995551
H	 -1.192726	 -3.571520	 2.283715
H	 -1.075264	 -1.836606	 2.181779
C	 -3.442909	 -2.446151	 3.475441
H	 -3.583855	 -3.447442	 1.578142
H	 -3.461998	 -1.714775	 1.453795
C	 -4.948084	 -2.326905	 3.711937
H	 -3.059750	 -3.307521	 4.018462
H	 -2.942362	 -1.575194	 3.893373
H	 -5.174410	 -2.234867	 4.769724
H	 -5.474345	 -3.199757	 3.335941
H	 -5.356051	 -1.454414	 3.209348
C	 4.728119	 -1.109107	 -0.004993
H	 4.882018	 -1.033965	 -1.071845
H	 5.068212	 -2.067527	 0.355250
H	 5.265056	 -0.311663	 0.488280

	symmetry c1
}
set optking {
	frozen_dihedral = ("
		2 4 26 27
	")
}

ee = optimize('scf')
oeprop('DIPOLE', 'QUADRUPOLE', 'MULLIKEN_CHARGES')
f=open( 'psi4out.xyz', 'w' )
f.write( "29  " )
f.write( str(ee) + "\n" )
f.write( MOL.save_string_xyz() )
f.close()
--------------------------------------------------------------------------

    Molecular point group: c1
  Charge       = 0
  Multiplicity = 1
  Basis Set: 6-31G*
  Basis Set:
  @DF-RHF Final Energy:  -501.04221826490993
    Total Energy =                       -501.0422182649108436
    Molecular point group: c1
  Basis Set: 6-31G*
  Basis Set:
  Basis Set: 6-31G*
  Basis Set:
  @DF-RHF Final Energy:  -501.04358390576988
    Total Energy =                       -501.0435839057697649
  Basis Set: 6-31G*
  Basis Set:
  Basis Set: 6-31G*
  Basis Set:
  @DF-RHF Final Energy:  -501.04395312940960
    Total Energy =                       -501.0439531294099424
  Basis Set: 6-31G*
  Basis Set:
  Basis Set: 6-31G*
  Basis Set:
  @DF-RHF Final Energy:  -501.04330037016939
    Total Energy =                       -501.0433003701690495
  Basis Set: 6-31G*
  Basis Set:
  Basis Set: 6-31G*
  Basis Set:
  @DF-RHF Final Energy:  -501.04396764842227
    Total Energy =                       -501.0439676484214715
  Basis Set: 6-31G*
  Basis Set:
  Basis Set: 6-31G*
  Basis Set:
  @DF-RHF Final Energy:  -501.04396889237580
    Total Energy =                       -501.0439688923759149
  Basis Set: 6-31G*
  Basis Set:
  Charge       = 0
  Multiplicity = 1
  Basis Set: 6-31G*
  Basis Set:

    Orbital Energies (a.u.)
    -----------------------

    Doubly Occupied:

       1A    -20.603313     2A    -20.545141     3A    -11.372081
       4A    -11.280596     5A    -11.234692     6A    -11.219043
       7A    -11.217602     8A    -11.215978     9A    -11.215842
      10A    -11.214440    11A    -11.209059    12A     -1.468863
      13A     -1.362559    14A     -1.098025    15A     -1.066797
      16A     -1.019525    17A     -0.977303    18A     -0.928563
      19A     -0.861540    20A     -0.799245    21A     -0.790461
      22A     -0.763731    23A     -0.700737    24A     -0.682276
      25A     -0.672140    26A     -0.650845    27A     -0.628824
      28A     -0.604649    29A     -0.595107    30A     -0.580823
      31A     -0.567047    32A     -0.549272    33A     -0.532327
      34A     -0.529749    35A     -0.516012    36A     -0.511778
      37A     -0.496406    38A     -0.477797    39A     -0.470168
      40A     -0.462410    41A     -0.458924    42A     -0.455427
      43A     -0.441261    44A     -0.435261

  @DF-RHF Final Energy:  -501.04396851036381

   => Energetics <=

    Nuclear Repulsion Energy =            610.0871673582121275
    One-Electron Energy =               -1891.2950005037828305
    Two-Electron Energy =                 780.1638646352068918
    DFT Exchange-Correlation Energy =       0.0000000000000000
    Empirical Dispersion Energy =           0.0000000000000000
    PCM Polarization Energy =               0.0000000000000000
    EFP Energy =                            0.0000000000000000
    Total Energy =                       -501.0439685103638112
    Molecular point group: c1
  Basis Set: 6-31G*
  Basis Set:

  -Total Gradient:
     Atom            X                  Y                   Z
    ------   -----------------  -----------------  -----------------
       1       -0.000025527724    -0.000028964990    -0.000022255655
       2        0.000127855726    -0.000326222802     0.000665376082
       3        0.000026533053     0.000009184940    -0.000007542695
       4       -0.000113369665     0.000716382710    -0.000977204811
       5        0.000006615748    -0.000023617946     0.000036895806
       6        0.000025066035    -0.000007184645    -0.000032455052
       7        0.000004703793     0.000009032821    -0.000003398866
       8        0.000011640625     0.000035582102     0.000007494490
       9        0.000003787222     0.000007703457     0.000019390690
      10       -0.000010087145    -0.000021250247    -0.000000266076
      11       -0.000019141805     0.000000474569    -0.000001201935
      12       -0.000000163001     0.000010801835    -0.000020566456
      13        0.000019102434     0.000019672903     0.000015361714
      14       -0.000000305012    -0.000021068410    -0.000002358549
      15        0.000013744731    -0.000001083548     0.000007626397
      16       -0.000047257059    -0.000012802256    -0.000006052431
      17       -0.000000197159    -0.000005873107     0.000000405130
      18       -0.000005217973    -0.000000097863    -0.000001154798
      19        0.000004676188    -0.000001673712     0.000001780244
      20        0.000000071684     0.000001481713    -0.000000064286
      21       -0.000001094780    -0.000000257971     0.000000655954
      22        0.000001011824    -0.000000078422    -0.000000371103
      23        0.000000158281     0.000000702105    -0.000000209728
      24        0.000000657780     0.000000063958     0.000000336417
      25       -0.000000472089    -0.000000078221    -0.000000275057
      26        0.000000904397    -0.001222127703     0.000256500508
      27        0.000011681733     0.000880646244     0.000063976546
      28       -0.000018186091    -0.000015276424     0.000008178966
      29       -0.000017191773    -0.000004071090    -0.000008601446

  **** Optimization is complete! (in 7 steps) ****
    Final optimized geometry and variables:
    Molecular point group: c1

    Geometry (in Angstrom), charge = 0, multiplicity = 1:

    O            2.916734606554    -0.782401371963    -1.608309456089
    C            2.480736898153     0.178771709816    -1.061441684897
    C            1.038144250003     0.389577071346    -0.669921107246
    O            3.227581796610     1.220455466698    -0.716390231835
    C            0.138397793065    -0.788102848368    -1.038211900472
    H            1.024050831927     0.594885752025     0.395347425866
    H            0.702908998843     1.303929235167    -1.152918840385
    C           -1.346061050240    -0.546316261687    -0.744242648411
    H            0.477390046497    -1.676301498679    -0.513519926835
    H            0.261270481391    -0.999691119725    -2.094881562409
    C           -1.698605652828    -0.425269182490     0.741088672599
    H           -1.912274703276    -1.371781339974    -1.169371396585
    H           -1.678424682109     0.348571545188    -1.268379463852
    C           -3.203528213701    -0.299905109084     0.987058475988
    H           -1.319216523256    -1.297671580339     1.270992794970
    H           -1.198820153829     0.437420514983     1.175742975259
    C           -3.567223963722    -0.172918855630     2.467502623138
    H           -3.710250712380    -1.166845005304     0.566493432065
    H           -3.585474902122     0.566057414765     0.448622588226
    C           -5.072092154935    -0.051193542598     2.704707191243
    H           -3.185922659854    -1.037244424805     3.007123686175
    H           -3.064656006776     0.695285041621     2.888723854377
    H           -5.298023412007     0.037460650884     3.762869971116
    H           -5.600355709283    -0.921482552221     2.325597446198
    H           -5.478203136263     0.824042437988     2.205399937303
    C            4.610731420527     1.149878388763    -1.011157253766
    H            4.772077820861     1.213675709334    -2.078362967566
    H            5.036205510342     0.230905669282    -0.637115998415
    H            5.060219265618     1.999604349248    -0.520963831293

  Mulliken Charges: (a.u.)
   Center  Symbol    Alpha    Beta     Spin     Total
       1     O     4.28591  4.28591  0.00000 -0.57183
       2     C     2.60482  2.60482  0.00000  0.79035
       3     C     3.20969  3.20969  0.00000 -0.41938
       4     O     4.30761  4.30761  0.00000 -0.61522
       5     C     3.15381  3.15381  0.00000 -0.30761
       6     H     0.39888  0.39888  0.00000  0.20223
       7     H     0.40119  0.40119  0.00000  0.19762
       8     C     3.15666  3.15666  0.00000 -0.31331
       9     H     0.41311  0.41311  0.00000  0.17379
      10     H     0.40872  0.40872  0.00000  0.18256
      11     C     3.15501  3.15501  0.00000 -0.31001
      12     H     0.41824  0.41824  0.00000  0.16353
      13     H     0.42386  0.42386  0.00000  0.15228
      14     C     3.15031  3.15031  0.00000 -0.30062
      15     H     0.42262  0.42262  0.00000  0.15476
      16     H     0.42363  0.42363  0.00000  0.15273
      17     C     3.15146  3.15146  0.00000 -0.30291
      18     H     0.42332  0.42332  0.00000  0.15337
      19     H     0.42397  0.42397  0.00000  0.15205
      20     C     3.23935  3.23935  0.00000 -0.47870
      21     H     0.42280  0.42280  0.00000  0.15439
      22     H     0.42344  0.42344  0.00000  0.15312
      23     H     0.41923  0.41923  0.00000  0.16153
      24     H     0.42154  0.42154  0.00000  0.15691
      25     H     0.42183  0.42183  0.00000  0.15634
      26     C     3.09263  3.09263  0.00000 -0.18525
      27     H     0.41107  0.41107  0.00000  0.17787
      28     H     0.40656  0.40656  0.00000  0.18688
      29     H     0.40874  0.40874  0.00000  0.18252

   Total alpha = 44.00000, Total beta = 44.00000, Total charge = -0.00000
