  ==> Input File <==

--------------------------------------------------------------------------
set {
	reference rhf
	basis cc-pvtz
}

set_num_threads( 4 )
memory 2 gb

molecule MOL {
0 1

H	 3.889604	 0.356866	 -0.089510
N	 3.091268	 -0.241216	 -0.065538
C	 1.860978	 0.530248	 0.016256
H	 3.192566	 -0.835836	 0.730398
C	 0.644130	 -0.381765	 -0.031064
H	 1.835721	 1.204666	 -0.833114
H	 1.808789	 1.151975	 0.911067
C	 -0.678115	 0.376691	 0.025731
H	 0.693998	 -0.977147	 -0.936845
H	 0.693309	 -1.082142	 0.800523
C	 -0.806349	 1.276908	 1.251442
H	 -1.501057	 -0.334412	 0.018493
H	 -0.790319	 0.979623	 -0.872465
C	 -2.132131	 2.028436	 1.307846
H	 -0.694055	 0.676520	 2.149894
H	 0.012712	 1.990948	 1.259036
H	 -2.970907	 1.340782	 1.336615
H	 -2.190451	 2.657173	 2.188921
H	 -2.258676	 2.665235	 0.438474

	symmetry c1
}
set optking {
	frozen_dihedral = ("
		12 8 5 9
	")
}

ee = optimize('scf')
oeprop('DIPOLE', 'QUADRUPOLE', 'MULLIKEN_CHARGES')
f=open( 'psi4out.xyz', 'w' )
f.write( "19  " )
f.write( str(ee) + "\n" )
f.write( MOL.save_string_xyz() )
f.close()
--------------------------------------------------------------------------

    Molecular point group: c1
  Charge       = 0
  Multiplicity = 1
  Basis Set: CC-PVTZ
  Basis Set:
  @DF-RHF Final Energy:  -251.44434635931088
    Total Energy =                       -251.4443463593108845
    Molecular point group: c1
  Basis Set: CC-PVTZ
  Basis Set:
  Basis Set: CC-PVTZ
  Basis Set:
  @DF-RHF Final Energy:  -251.44510983372848
    Total Energy =                       -251.4451098337282247
  Basis Set: CC-PVTZ
  Basis Set:
  Basis Set: CC-PVTZ
  Basis Set:
  @DF-RHF Final Energy:  -251.44579687954689
    Total Energy =                       -251.4457968795466059
  Basis Set: CC-PVTZ
  Basis Set:
  Basis Set: CC-PVTZ
  Basis Set:
  @DF-RHF Final Energy:  -251.44584461061660
    Total Energy =                       -251.4458446106167457
  Basis Set: CC-PVTZ
  Basis Set:
  Basis Set: CC-PVTZ
  Basis Set:
  @DF-RHF Final Energy:  -251.44584887169208
    Total Energy =                       -251.4458488716922488
  Basis Set: CC-PVTZ
  Basis Set:
  Charge       = 0
  Multiplicity = 1
  Basis Set: CC-PVTZ
  Basis Set:

    Orbital Energies (a.u.)
    -----------------------

    Doubly Occupied:

       1A    -15.526149     2A    -11.237194     3A    -11.212502
       4A    -11.211039     5A    -11.208193     6A    -11.206099
       7A     -1.177828     8A     -1.073782     9A     -0.997849
      10A     -0.900060    11A     -0.830664    12A     -0.775369
      13A     -0.656342    14A     -0.640086    15A     -0.631385
      16A     -0.587251    17A     -0.570378    18A     -0.546585
      19A     -0.529512    20A     -0.506104    21A     -0.482829
      22A     -0.462067    23A     -0.457757    24A     -0.451278
      25A     -0.383084

  @DF-RHF Final Energy:  -251.44584949326287

   => Energetics <=

    Nuclear Repulsion Energy =            249.4347331209044114
    One-Electron Energy =                -833.2383997643805742
    Two-Electron Energy =                 332.3578171502133500
    DFT Exchange-Correlation Energy =       0.0000000000000000
    Empirical Dispersion Energy =           0.0000000000000000
    PCM Polarization Energy =               0.0000000000000000
    EFP Energy =                            0.0000000000000000
    Total Energy =                       -251.4458494932628128
    Molecular point group: c1
  Basis Set: CC-PVTZ
  Basis Set:

  -Total Gradient:
     Atom            X                  Y                   Z
    ------   -----------------  -----------------  -----------------
       1       -0.000014496080     0.000008683734    -0.000010223012
       2       -0.000023561786    -0.000034199361     0.000003110306
       3        0.000004923458     0.000032625043     0.000026290469
       4        0.000009541822     0.000000305698     0.000000832777
       5       -0.000969167133    -0.001668043250     0.001427589553
       6       -0.000002328488    -0.000001739795     0.000000070032
       7       -0.000006044197     0.000012838607     0.000006966825
       8        0.000187895507     0.000385616098    -0.002375166877
       9        0.000769820743     0.001341586091    -0.000856091546
      10        0.000000885679     0.000003572227    -0.000002260670
      11        0.000004389224    -0.000022471814     0.000039266459
      12        0.000029186721    -0.000058189568     0.001765081005
      13       -0.000003215320    -0.000005778137    -0.000014614526
      14        0.000007585247     0.000006190285    -0.000020914832
      15        0.000001781536    -0.000001960417     0.000011425050
      16       -0.000000975399     0.000001314592     0.000005118919
      17        0.000002999807    -0.000001078170     0.000005893374
      18        0.000010919997    -0.000002612197    -0.000006893610
      19       -0.000010141339     0.000003340336    -0.000005479696

  **** Optimization is complete! (in 6 steps) ****
    Final optimized geometry and variables:
    Molecular point group: c1

    Geometry (in Angstrom), charge = 0, multiplicity = 1:

    H            3.571170329129    -0.370519984487    -0.600191432012
    N            2.741334526044    -0.924647239748    -0.584511400508
    C            1.563160653616    -0.094376858869    -0.379211707394
    H            2.844057248715    -1.584267086953     0.158550691347
    C            0.301727326747    -0.948848715555    -0.404364301673
    H            1.520901597726     0.627104711784    -1.189207620371
    H            1.611337824327     0.474419695027     0.547193078167
    C           -1.010763124134    -0.164228438397    -0.376898926123
    H            0.337509973517    -1.544871200547    -1.309499244702
    H            0.326036924830    -1.644073001231     0.432437659759
    C           -1.205290708537     0.746689216470     0.835438538504
    H           -1.829393666779    -0.878345733201    -0.393368437541
    H           -1.097789310806     0.426140451372    -1.285714817024
    C           -2.590621213771     1.384183274109     0.873681428959
    H           -1.048606330768     0.172006346887     1.745016100779
    H           -0.456710229580     1.531601247970     0.837622839616
    H           -3.368188106822     0.629224862678     0.923212116715
    H           -2.702261125437     2.031235625554     1.736232227378
    H           -2.769772615886     1.982731070830    -0.013499435051

  Mulliken Charges: (a.u.)
   Center  Symbol    Alpha    Beta     Spin     Total
       1     H     0.43008  0.43008  0.00000  0.13983
       2     N     3.69068  3.69068  0.00000 -0.38135
       3     C     3.02717  3.02717  0.00000 -0.05434
       4     H     0.43079  0.43079  0.00000  0.13842
       5     C     3.09261  3.09261  0.00000 -0.18522
       6     H     0.45691  0.45691  0.00000  0.08617
       7     H     0.46409  0.46409  0.00000  0.07182
       8     C     3.09965  3.09965  0.00000 -0.19930
       9     H     0.44310  0.44310  0.00000  0.11380
      10     H     0.45838  0.45838  0.00000  0.08325
      11     C     3.08837  3.08837  0.00000 -0.17674
      12     H     0.44950  0.44950  0.00000  0.10101
      13     H     0.45243  0.45243  0.00000  0.09514
      14     C     3.14938  3.14938  0.00000 -0.29876
      15     H     0.45466  0.45466  0.00000  0.09068
      16     H     0.45371  0.45371  0.00000  0.09258
      17     H     0.45470  0.45470  0.00000  0.09059
      18     H     0.44875  0.44875  0.00000  0.10251
      19     H     0.45505  0.45505  0.00000  0.08990

   Total alpha = 25.00000, Total beta = 25.00000, Total charge =  0.00000
