  ==> Input File <==

--------------------------------------------------------------------------
set {
	reference rhf
	basis cc-pvtz
}

set_num_threads( 4 )
memory 2 gb

molecule MOL {
0 1

O	 -0.294654	 1.318730	 -0.019675
C	 -0.448714	 0.145677	 -0.010200
C	 -1.780734	 -0.548137	 -0.008551
O	 0.550743	 -0.719877	 0.000412
H	 -1.856616	 -1.190181	 -0.876553
H	 -2.570204	 0.185466	 -0.018393
H	 -1.862998	 -1.173435	 0.871034
C	 1.863204	 -0.194033	 0.000410
H	 2.031502	 0.409177	 -0.879273
H	 2.524488	 -1.045142	 0.000793
H	 2.031291	 0.409823	 0.879686

	symmetry c1
}
set optking {
	frozen_dihedral = ("
		2 4 8 9
	")
}

ee = optimize('scf')
oeprop('DIPOLE', 'QUADRUPOLE', 'MULLIKEN_CHARGES')
f=open( 'psi4out.xyz', 'w' )
f.write( "11  " )
f.write( str(ee) + "\n" )
f.write( MOL.save_string_xyz() )
f.close()
--------------------------------------------------------------------------

    Molecular point group: c1
  Charge       = 0
  Multiplicity = 1
  Basis Set: CC-PVTZ
  Basis Set:
  @DF-RHF Final Energy:  -266.93923917477377
    Total Energy =                       -266.9392391747741158
    Molecular point group: c1
  Basis Set: CC-PVTZ
  Basis Set:
  Charge       = 0
  Multiplicity = 1
  Basis Set: CC-PVTZ
  Basis Set:

    Orbital Energies (a.u.)
    -----------------------

    Doubly Occupied:

       1A    -20.598821     2A    -20.535315     3A    -11.368834
       4A    -11.279982     5A    -11.233260     6A     -1.474368
       7A     -1.367678     8A     -1.037031     9A     -0.953705
      10A     -0.780227    11A     -0.698197    12A     -0.684658
      13A     -0.681209    14A     -0.595631    15A     -0.593717
      16A     -0.561875    17A     -0.526554    18A     -0.525798
      19A     -0.462407    20A     -0.446005

  @DF-RHF Final Energy:  -266.93923920553681

   => Energetics <=

    Nuclear Repulsion Energy =            183.7184308245780358
    One-Electron Energy =                -728.5047939825361709
    Two-Electron Energy =                 277.8471239524209295
    DFT Exchange-Correlation Energy =       0.0000000000000000
    Empirical Dispersion Energy =           0.0000000000000000
    PCM Polarization Energy =               0.0000000000000000
    EFP Energy =                            0.0000000000000000
    Total Energy =                       -266.9392392055372056
    Molecular point group: c1
  Basis Set: CC-PVTZ
  Basis Set:

  -Total Gradient:
     Atom            X                  Y                   Z
    ------   -----------------  -----------------  -----------------
       1       -0.000011865194    -0.000000779520     0.000041587905
       2        0.000015065333     0.000001222315    -0.000138594108
       3        0.000002889213     0.000002258099     0.000025504860
       4       -0.000023855107     0.000005862967     0.000123092664
       5        0.000005323742     0.000001733896    -0.000000658004
       6       -0.000000507903     0.000001885181    -0.000000074452
       7       -0.000002577629    -0.000001202547     0.000001025320
       8        0.000037949923    -0.000040369909    -0.000080336273
       9       -0.000006102620     0.000039561082     0.000027365574
      10        0.000004050567    -0.000002605854     0.000001965114
      11       -0.000020370324    -0.000007565708    -0.000000878600

  **** Optimization is complete! (in 2 steps) ****
    Final optimized geometry and variables:
    Molecular point group: c1

    Geometry (in Angstrom), charge = 0, multiplicity = 1:

    O           -0.294709298218     1.318794819285    -0.011505231061
    C           -0.448723390437     0.145715948282    -0.002746335601
    C           -1.780681246581    -0.548069152712    -0.001547769916
    O            0.550728384405    -0.719868129349     0.008115257196
    H           -1.856373560972    -1.189740413513    -0.869840569065
    H           -2.570141998123     0.185560311851    -0.011202130457
    H           -1.862970638220    -1.173675279960     0.877813363014
    C            1.863157172702    -0.194077210911     0.007246334602
    H            2.031459842860     0.408541504796    -0.872798655463
    H            2.524511498737    -1.045140105360     0.008672461698
    H            2.031151982918     0.410647559722     0.886005189615

  Mulliken Charges: (a.u.)
   Center  Symbol    Alpha    Beta     Spin     Total
       1     O     4.19664  4.19664  0.00000 -0.39328
       2     C     2.80186  2.80186  0.00000  0.39629
       3     C     3.13788  3.13788  0.00000 -0.27576
       4     O     4.14771  4.14771  0.00000 -0.29543
       5     H     0.44544  0.44544  0.00000  0.10911
       6     H     0.43787  0.43787  0.00000  0.12427
       7     H     0.44542  0.44542  0.00000  0.10915
       8     C     3.03351  3.03351  0.00000 -0.06703
       9     H     0.45400  0.45400  0.00000  0.09199
      10     H     0.44550  0.44550  0.00000  0.10901
      11     H     0.45417  0.45417  0.00000  0.09167

   Total alpha = 20.00000, Total beta = 20.00000, Total charge =  0.00000
