  ==> Input File <==

--------------------------------------------------------------------------
set {
	reference rhf
	basis cc-pvtz
}

set_num_threads( 4 )
memory 2 gb

molecule MOL {
0 1

H	 2.564408	 -0.858436	 -1.106955
N	 1.587193	 -0.664418	 -1.124707
C	 1.288516	 0.530792	 -0.361746
C	 0.830130	 -1.804112	 -0.647429
H	 1.853297	 1.360892	 -0.768326
H	 1.555283	 0.427236	 0.691691
C	 -0.195954	 0.832478	 -0.458742
H	 1.062753	 -2.665937	 -1.261022
H	 1.067936	 -2.055188	 0.387959
C	 -0.653740	 -1.499367	 -0.744050
H	 -0.439213	 1.091439	 -1.493321
H	 -0.431411	 1.691320	 0.158566
N	 -0.976577	 -0.298712	 -0.000000
H	 -1.220205	 -2.326594	 -0.333038
H	 -0.928537	 -1.401050	 -1.798285
C	 -2.391156	 -0.021003	 -0.000000
H	 -2.853954	 -0.458728	 -0.875714
H	 -2.853954	 -0.458728	 0.875714
H	 -2.614037	 1.049773	 -0.000000

	symmetry c1
}
set optking {
	frozen_dihedral = ("
		7 13 16 19
	")
}

ee = optimize('scf')
oeprop('DIPOLE', 'QUADRUPOLE', 'MULLIKEN_CHARGES')
f=open( 'psi4out.xyz', 'w' )
f.write( "19  " )
f.write( str(ee) + "\n" )
f.write( MOL.save_string_xyz() )
f.close()
--------------------------------------------------------------------------

    Molecular point group: c1
  Charge       = 0
  Multiplicity = 1
  Basis Set: CC-PVTZ
  Basis Set:
  @DF-RHF Final Energy:  -305.30414521476519
    Total Energy =                       -305.3041452147651285
    Molecular point group: c1
  Basis Set: CC-PVTZ
  Basis Set:
  Basis Set: CC-PVTZ
  Basis Set:
  @DF-RHF Final Energy:  -305.30510202334438
    Total Energy =                       -305.3051020233443751
  Basis Set: CC-PVTZ
  Basis Set:
  Basis Set: CC-PVTZ
  Basis Set:
  @DF-RHF Final Energy:  -305.30523662430562
    Total Energy =                       -305.3052366243052234
  Basis Set: CC-PVTZ
  Basis Set:
  Basis Set: CC-PVTZ
  Basis Set:
  @DF-RHF Final Energy:  -305.30524701140467
    Total Energy =                       -305.3052470114044468
  Basis Set: CC-PVTZ
  Basis Set:
  Charge       = 0
  Multiplicity = 1
  Basis Set: CC-PVTZ
  Basis Set:

    Orbital Energies (a.u.)
    -----------------------

    Doubly Occupied:

       1A    -15.533013     2A    -15.530945     3A    -11.236806
       4A    -11.236788     5A    -11.235980     6A    -11.235731
       7A    -11.233168     8A     -1.247249     9A     -1.185985
      10A     -1.024129    11A     -0.965440    12A     -0.862052
      13A     -0.858611    14A     -0.756161    15A     -0.692211
      16A     -0.633724    17A     -0.625941    18A     -0.606644
      19A     -0.605841    20A     -0.582469    21A     -0.544538
      22A     -0.532958    23A     -0.511904    24A     -0.488949
      25A     -0.468776    26A     -0.458279    27A     -0.365824
      28A     -0.340500

  @DF-RHF Final Energy:  -305.30524791446499

   => Energetics <=

    Nuclear Repulsion Energy =            339.8930653747482893
    One-Electron Energy =               -1087.1953870769507375
    Two-Electron Energy =                 441.9970737877374631
    DFT Exchange-Correlation Energy =       0.0000000000000000
    Empirical Dispersion Energy =           0.0000000000000000
    PCM Polarization Energy =               0.0000000000000000
    EFP Energy =                            0.0000000000000000
    Total Energy =                       -305.3052479144649851
    Molecular point group: c1
  Basis Set: CC-PVTZ
  Basis Set:

  -Total Gradient:
     Atom            X                  Y                   Z
    ------   -----------------  -----------------  -----------------
       1        0.000001550725     0.000004047829     0.000000755108
       2       -0.000017463507     0.000009580454     0.000000010363
       3        0.000015967367    -0.000003209026     0.000025683145
       4       -0.000004299395    -0.000032448494    -0.000038249709
       5        0.000005363994    -0.000001636529    -0.000000730351
       6        0.000002778317     0.000004871852     0.000007512648
       7        0.000312770562     0.001029275319     0.003197109593
       8        0.000024383968    -0.000009246805    -0.000002658216
       9       -0.000015028557     0.000008077596    -0.000012231159
      10        0.000007916841    -0.000015697075     0.000034713958
      11       -0.000016293024    -0.000009252616     0.000007430983
      12        0.000003142478    -0.000006186046     0.000001049855
      13       -0.000440363475    -0.001380609849    -0.005704778378
      14       -0.000004766869    -0.000000716636    -0.000003762060
      15        0.000010600502     0.000003913883     0.000015844777
      16        0.000269154888     0.000216443179     0.006955801147
      17       -0.000020064663    -0.000000049148    -0.000008284378
      18        0.000029913965    -0.000006394553    -0.000043892751
      19       -0.000165264114     0.000189236663    -0.004431324576

  **** Optimization is complete! (in 5 steps) ****
    Final optimized geometry and variables:
    Molecular point group: c1

    Geometry (in Angstrom), charge = 0, multiplicity = 1:

    H            2.650262942604    -0.445516840490    -0.612150407442
    N            1.672975429222    -0.252086597915    -0.634966647218
    C            1.371413120298     0.947358269452     0.120080900785
    C            0.914797242641    -1.389174748500    -0.153576956680
    H            1.948415949457     1.772464413878    -0.279718550511
    H            1.621996085832     0.843390213602     1.177684788079
    C           -0.109651647814     1.261107364046     0.002567233257
    H            1.155915782130    -2.256997901629    -0.755525308032
    H            1.143562177713    -1.628083510456     0.886851995684
    C           -0.568588051190    -1.088221337721    -0.268450217068
    H           -0.329744907651     1.539793951377    -1.032716646015
    H           -0.345808814129     2.111820203480     0.629616098047
    N           -0.898985161864     0.129098722235     0.436801180535
    H           -1.137491140977    -1.905268432510     0.160719635362
    H           -0.837233234632    -1.020780603900    -1.326970953103
    C           -2.321751378378     0.380893924819     0.499664687661
    H           -2.841414379479     0.022326012581    -0.390746315509
    H           -2.768123175723    -0.101702035044     1.361391354672
    H           -2.515564479495     1.444261271477     0.550177815942

  Mulliken Charges: (a.u.)
   Center  Symbol    Alpha    Beta     Spin     Total
       1     H     0.43992  0.43992  0.00000  0.12017
       2     N     3.64278  3.64278  0.00000 -0.28556
       3     C     3.04187  3.04187  0.00000 -0.08373
       4     C     3.04144  3.04144  0.00000 -0.08289
       5     H     0.45267  0.45267  0.00000  0.09467
       6     H     0.46616  0.46616  0.00000  0.06769
       7     C     3.03236  3.03236  0.00000 -0.06472
       8     H     0.45264  0.45264  0.00000  0.09472
       9     H     0.46604  0.46604  0.00000  0.06793
      10     C     3.03361  3.03361  0.00000 -0.06721
      11     H     0.47012  0.47012  0.00000  0.05976
      12     H     0.45425  0.45425  0.00000  0.09150
      13     N     3.61531  3.61531  0.00000 -0.23062
      14     H     0.45430  0.45430  0.00000  0.09140
      15     H     0.46887  0.46887  0.00000  0.06226
      16     C     3.09389  3.09389  0.00000 -0.18777
      17     H     0.46735  0.46735  0.00000  0.06529
      18     H     0.45023  0.45023  0.00000  0.09955
      19     H     0.45622  0.45622  0.00000  0.08757

   Total alpha = 28.00000, Total beta = 28.00000, Total charge = -0.00000
