  ==> Input File <==

--------------------------------------------------------------------------
set {
	reference rhf
	basis 6-31G*
}

set_num_threads( 4 )
memory 2 gb

molecule MOL {
0 1

H	 -4.236494	 0.538104	 0.039757
O	 -3.517110	 -0.026191	 -0.205115
C	 -2.306886	 0.532354	 0.237577
C	 -1.177863	 -0.397191	 -0.171080
H	 -2.156308	 1.517575	 -0.201710
H	 -2.315015	 0.655684	 1.319734
C	 0.198102	 0.111031	 0.262842
H	 -1.208843	 -0.518759	 -1.250427
H	 -1.368741	 -1.376554	 0.258909
C	 1.331804	 -0.827780	 -0.158768
H	 0.361943	 1.100838	 -0.156218
H	 0.217265	 0.229072	 1.345532
C	 2.723619	 -0.410569	 0.329459
H	 1.342964	 -0.912588	 -1.244120
H	 1.116806	 -1.824343	 0.220779
C	 3.843734	 -1.388079	 -0.031305
H	 2.690296	 -0.302960	 1.410846
H	 2.962782	 0.574834	 -0.065444
H	 3.625570	 -2.385740	 0.340334
H	 3.991447	 -1.459569	 -1.103800
H	 4.786078	 -1.072499	 0.405903

	symmetry c1
}
set optking {
	frozen_dihedral = ("
		16 13 10 14
	")
}

ee = optimize('scf')
oeprop('DIPOLE', 'QUADRUPOLE', 'MULLIKEN_CHARGES')
f=open( 'psi4out.xyz', 'w' )
f.write( "21  " )
f.write( str(ee) + "\n" )
f.write( MOL.save_string_xyz() )
f.close()
--------------------------------------------------------------------------

    Molecular point group: c1
  Charge       = 0
  Multiplicity = 1
  Basis Set: 6-31G*
  Basis Set:
  @DF-RHF Final Energy:  -310.21401309547059
    Total Energy =                       -310.2140130954703636
    Molecular point group: c1
  Basis Set: 6-31G*
  Basis Set:
  Basis Set: 6-31G*
  Basis Set:
  @DF-RHF Final Energy:  -310.21437548065404
    Total Energy =                       -310.2143754806539846
  Basis Set: 6-31G*
  Basis Set:
  Basis Set: 6-31G*
  Basis Set:
  @DF-RHF Final Energy:  -310.21441917634337
    Total Energy =                       -310.2144191763433128
  Basis Set: 6-31G*
  Basis Set:
  Charge       = 0
  Multiplicity = 1
  Basis Set: 6-31G*
  Basis Set:

    Orbital Energies (a.u.)
    -----------------------

    Doubly Occupied:

       1A    -20.551861     2A    -11.267085     3A    -11.216091
       4A    -11.214833     5A    -11.213359     6A    -11.210683
       7A    -11.208028     8A     -1.358696     9A     -1.086375
      10A     -1.034683    11A     -0.956744    12A     -0.867218
      13A     -0.801926    14A     -0.790649    15A     -0.691825
      16A     -0.664056    17A     -0.632628    18A     -0.596318
      19A     -0.580234    20A     -0.562198    21A     -0.548094
      22A     -0.521028    23A     -0.507517    24A     -0.483491
      25A     -0.477407    26A     -0.462462    27A     -0.461883
      28A     -0.442869    29A     -0.434012

  @DF-RHF Final Energy:  -310.21441951897327

   => Energetics <=

    Nuclear Repulsion Energy =            308.8943957141683541
    One-Electron Energy =               -1032.5291332699923714
    Two-Electron Energy =                 413.4203180368509152
    DFT Exchange-Correlation Energy =       0.0000000000000000
    Empirical Dispersion Energy =           0.0000000000000000
    PCM Polarization Energy =               0.0000000000000000
    EFP Energy =                            0.0000000000000000
    Total Energy =                       -310.2144195189731022
    Molecular point group: c1
  Basis Set: 6-31G*
  Basis Set:

  -Total Gradient:
     Atom            X                  Y                   Z
    ------   -----------------  -----------------  -----------------
       1        0.000017805597     0.000007001350     0.000002545757
       2        0.000014792637    -0.000020248215    -0.000009874362
       3       -0.000011996975     0.000028858088    -0.000030222231
       4       -0.000096529711     0.000060117672    -0.000008934641
       5       -0.000000273881     0.000016962974     0.000005501855
       6        0.000003622035    -0.000018641679    -0.000006748249
       7       -0.000071487453    -0.000058265812     0.000056750456
       8        0.000013644792    -0.000019661261     0.000000083660
       9        0.000016392353     0.000014807577     0.000033830292
      10        0.000238807333    -0.000615901803     0.000183820962
      11        0.000029363770     0.000014271779     0.000013605272
      12       -0.000009373292    -0.000023377455    -0.000002784680
      13       -0.000096918880     0.000431461423    -0.000523369227
      14       -0.000099343187     0.000381986724     0.000006784168
      15       -0.000017900659    -0.000013500840    -0.000017280456
      16        0.000050854831    -0.000175713167     0.000383080670
      17        0.000017490291     0.000023159721    -0.000023145181
      18       -0.000011102733     0.000008741540     0.000002873451
      19       -0.000007820494    -0.000005637510    -0.000053718762
      20       -0.000022605273     0.000039960668    -0.000032027806
      21        0.000042578899    -0.000076381778     0.000019229053

  **** Optimization is complete! (in 4 steps) ****
    Final optimized geometry and variables:
    Molecular point group: c1

    Geometry (in Angstrom), charge = 0, multiplicity = 1:

    H           -4.308851016881     0.920124707194    -0.042296026295
    O           -3.594678308892     0.349659902387    -0.288130363538
    C           -2.384795960933     0.871438022655     0.198160355615
    C           -1.264122145603    -0.066575790804    -0.213955604922
    H           -2.206178762137     1.866501769508    -0.207153225313
    H           -2.415126740861     0.961904523595     1.283145229363
    C            0.110954275073     0.403498121021     0.262531881478
    H           -1.274689622184    -0.157023768979    -1.296662898741
    H           -1.480905030272    -1.054104794562     0.184020607157
    C            1.243131658514    -0.536276749234    -0.157006996279
    H            0.310508147647     1.399921844549    -0.128895143196
    H            0.107654256615     0.497164817924     1.347375466503
    C            2.622944782004    -0.062019610370     0.302294008722
    H            1.241067539986    -0.636455862039    -1.240888743942
    H            1.051787881101    -1.530515808285     0.242561369355
    C            3.744092443356    -1.027884512401    -0.080326994930
    H            2.616739631023     0.071041202765     1.382166935237
    H            2.827666548661     0.917694382182    -0.124137909501
    H            3.582126638947    -2.008774309778     0.357477579780
    H            3.802048877836    -1.153864741325    -1.157901408500
    H            4.709257082473    -0.668053013721     0.262707519419

  Mulliken Charges: (a.u.)
   Center  Symbol    Alpha    Beta     Spin     Total
       1     H     0.28118  0.28118  0.00000  0.43765
       2     O     4.37182  4.37182  0.00000 -0.74363
       3     C     2.98972  2.98972  0.00000  0.02055
       4     C     3.15917  3.15917  0.00000 -0.31834
       5     H     0.43284  0.43284  0.00000  0.13433
       6     H     0.43284  0.43284  0.00000  0.13431
       7     C     3.16025  3.16025  0.00000 -0.32050
       8     H     0.41478  0.41478  0.00000  0.17045
       9     H     0.41479  0.41479  0.00000  0.17042
      10     C     3.14990  3.14990  0.00000 -0.29981
      11     H     0.42371  0.42371  0.00000  0.15259
      12     H     0.42358  0.42358  0.00000  0.15284
      13     C     3.15155  3.15155  0.00000 -0.30309
      14     H     0.42266  0.42266  0.00000  0.15468
      15     H     0.42267  0.42267  0.00000  0.15466
      16     C     3.23934  3.23934  0.00000 -0.47868
      17     H     0.42345  0.42345  0.00000  0.15310
      18     H     0.42318  0.42318  0.00000  0.15364
      19     H     0.42153  0.42153  0.00000  0.15695
      20     H     0.42157  0.42157  0.00000  0.15687
      21     H     0.41949  0.41949  0.00000  0.16102

   Total alpha = 29.00000, Total beta = 29.00000, Total charge =  0.00000
