                              Psi4 1.0.54 Driver

  ==> Input File <==

--------------------------------------------------------------------------
set {
	reference rhf
	basis cc-pvtz
}

set_num_threads( 4 )
memory 2 gb

molecule MOL {
0 1

H	 2.614283	 2.028610	 0.296620
O	 3.358864	 1.662087	 -0.142800
C	 3.565468	 0.338079	 0.273842
C	 2.533667	 -0.637565	 -0.272227
H	 4.548038	 0.064914	 -0.086598
H	 3.593945	 0.282242	 1.360360
C	 1.114816	 -0.402372	 0.240993
H	 2.544552	 -0.580764	 -1.356576
H	 2.850574	 -1.642962	 -0.005497
C	 0.113298	 -1.420414	 -0.302504
H	 0.796373	 0.598427	 -0.031033
H	 1.113377	 -0.446476	 1.328807
C	 -0.715380	 -2.143080	 0.761123
H	 -0.555005	 -0.924912	 -1.002558
H	 0.656105	 -2.164557	 -0.878768
C	 -1.700328	 -1.259197	 1.524255
H	 -1.271360	 -2.940752	 0.276217
H	 -0.046337	 -2.629082	 1.467761
C	 -2.572019	 -2.042681	 2.502375
H	 -2.339244	 -0.739230	 0.813699
H	 -1.164908	 -0.489481	 2.071855
C	 -3.553983	 -1.162694	 3.268706
H	 -3.121609	 -2.807155	 1.960059
H	 -1.934934	 -2.569552	 3.207776
H	 -4.226977	 -0.646307	 2.592200
H	 -4.158001	 -1.749719	 3.951106
H	 -3.033154	 -0.410548	 3.852114

	symmetry c1
}
set optking {
	frozen_dihedral = ("
		14 10 7 4
	")
}

ee,wfn = optimize('scf', return_wfn=True)
oeprop( wfn, 'DIPOLE', 'QUADRUPOLE', 'MULLIKEN_CHARGES')
f=open( 'psi4out.xyz', 'w' )
f.write( "27  " )
f.write( str(ee) + "\n" )
f.write( MOL.save_string_xyz() )
f.close()
--------------------------------------------------------------------------

    Molecular point group: c1
  Charge       = 0
  Multiplicity = 1
  Basis Set: CC-PVTZ
  Basis Set:
  @DF-RHF Final Energy:  -388.42267974658932
    Total Energy =                       -388.4226797465897789
    Molecular point group: c1
  Basis Set: CC-PVTZ
  Basis Set:
  Basis Set: CC-PVTZ
  Basis Set:
  @DF-RHF Final Energy:  -388.42297295646983
    Total Energy =                       -388.4229729564699483
  Basis Set: CC-PVTZ
  Basis Set:
  Basis Set: CC-PVTZ
  Basis Set:
  @DF-RHF Final Energy:  -388.42309010637598
    Total Energy =                       -388.4230901063760939
  Basis Set: CC-PVTZ
  Basis Set:
  Basis Set: CC-PVTZ
  Basis Set:
  @DF-RHF Final Energy:  -388.42309920589861
    Total Energy =                       -388.4230992058987795
  Basis Set: CC-PVTZ
  Basis Set:
  Basis Set: CC-PVTZ
  Basis Set:
  @DF-RHF Final Energy:  -388.42310176782348
    Total Energy =                       -388.4231017678234821
  Basis Set: CC-PVTZ
  Basis Set:
  Charge       = 0
  Multiplicity = 1
  Basis Set: CC-PVTZ
  Basis Set:

    Orbital Energies (a.u.)
    -----------------------

    Doubly Occupied:

       1A    -20.545263     2A    -11.264876     3A    -11.217224
       4A    -11.214483     5A    -11.214247     6A    -11.213856
       7A    -11.213526     8A    -11.212185     9A    -11.207709
      10A     -1.363183    11A     -1.095621    12A     -1.061858
      13A     -1.012588    14A     -0.948416    15A     -0.888863
      16A     -0.822197    17A     -0.803001    18A     -0.777115
      19A     -0.695628    20A     -0.657085    21A     -0.634221
      22A     -0.616698    23A     -0.596723    24A     -0.589061
      25A     -0.580934    26A     -0.550623    27A     -0.546844
      28A     -0.530139    29A     -0.504465    30A     -0.500516
      31A     -0.484495    32A     -0.474784    33A     -0.466208
      34A     -0.458533    35A     -0.453615    36A     -0.442799
      37A     -0.425554

  @DF-RHF Final Energy:  -388.42310261640910

   => Energetics <=

    Nuclear Repulsion Energy =            459.5926165923617646
    One-Electron Energy =               -1437.4611756347280789
    Two-Electron Energy =                 589.4454564259572180
    DFT Exchange-Correlation Energy =       0.0000000000000000
    Empirical Dispersion Energy =           0.0000000000000000
    PCM Polarization Energy =               0.0000000000000000
    EFP Energy =                            0.0000000000000000
    Total Energy =                       -388.4231026164090963
    Molecular point group: c1
  Basis Set: CC-PVTZ
  Basis Set:

  -Total Gradient:
     Atom            X                  Y                   Z
    ------   -----------------  -----------------  -----------------
       1       -0.000015246437     0.000026241712     0.000000152307
       2       -0.000051943584     0.000005807969     0.000029130880
       3        0.000065209967    -0.000009840520    -0.000082045454
       4        0.000274667323    -0.001030434613     0.001289407525
       5        0.000029897873    -0.000021145510     0.000015457216
       6       -0.000016136519     0.000003741273    -0.000008127658
       7       -0.000765847822     0.001509337820    -0.001362297633
       8        0.000022210369     0.000016876248     0.000014916235
       9       -0.000017316755    -0.000019403151     0.000001967469
      10        0.001873447087    -0.000882041958    -0.001625931661
      11        0.000006807384     0.000029398356    -0.000024029839
      12       -0.000000301175    -0.000024415321     0.000012186638
      13        0.000002418913    -0.000033862574     0.000034180238
      14       -0.001408561478     0.000430195298     0.001724456751
      15        0.000020948942     0.000008545227     0.000024110527
      16       -0.000041738228     0.000047973066    -0.000019266980
      17       -0.000023033111    -0.000009695099     0.000023570349
      18        0.000016379178    -0.000011184375    -0.000030017548
      19       -0.000018361674    -0.000033493930     0.000002455670
      20        0.000000104599     0.000036476887    -0.000069611540
      21        0.000022088952     0.000016059943     0.000007853588
      22        0.000059084692    -0.000006235728    -0.000011126402
      23       -0.000036512242    -0.000036097540    -0.000009982108
      24       -0.000005048546    -0.000025874763     0.000054505528
      25       -0.000016747117     0.000000325460    -0.000035002279
      26        0.000001658303    -0.000032303839     0.000015664613
      27        0.000021871108     0.000045049665     0.000027423567

  **** Optimization is complete! (in 6 steps) ****
    Final optimized geometry and variables:
    Molecular point group: c1

    Geometry (in Angstrom), charge = 0, multiplicity = 1:

    H            2.318244549687     2.755885771660    -0.527066174737
    O            3.070267574633     2.406972320641    -0.967900427493
    C            3.286502714894     1.075586674557    -0.580971689694
    C            2.261385049345     0.105425603534    -1.147997956105
    H            4.270892224658     0.817553459751    -0.947671063792
    H            3.315997263106     0.995773665613     0.504112233598
    C            0.841866653097     0.311433927251    -0.621700482393
    H            2.268549069367     0.188773277845    -2.230779470015
    H            2.584792872936    -0.904455065107    -0.907154442735
    C           -0.170881034826    -0.701988515318    -1.195043295581
    H            0.512864342886     1.321300970939    -0.841673292590
    H            0.865938647635     0.228535836211     0.461737597034
    C           -1.006346581379    -1.428799984007    -0.138638089738
    H           -0.850641839069    -0.197187230890    -1.874424558716
    H            0.358190501125    -1.442709855808    -1.784527682812
    C           -1.995378933132    -0.532451287390     0.603351842641
    H           -1.558482089061    -2.230607546817    -0.621244668640
    H           -0.341641990657    -1.906724899851     0.577703547479
    C           -2.818113527880    -1.279207705982     1.649918886694
    H           -2.666944254026    -0.072831076255    -0.118627324454
    H           -1.466193789180     0.284165454674     1.086822128641
    C           -3.811872095801    -0.384112301157     2.382673106842
    H           -3.353579620209    -2.094360806051     1.170763240668
    H           -2.148280459409    -1.738873113334     2.371724305556
    H           -4.518819653322     0.063270040154     1.691763100769
    H           -4.378130993527    -0.944787727393     3.117578446903
    H           -3.304054748501     0.422186387853     2.901799487480

  Mulliken Charges: (a.u.)
   Center  Symbol    Alpha    Beta     Spin     Total
       1     H     0.39255  0.39255  0.00000  0.21489
       2     O     4.20547  4.20547  0.00000 -0.41093
       3     C     2.97999  2.97999  0.00000  0.04001
       4     C     3.08793  3.08793  0.00000 -0.17586
       5     H     0.44873  0.44873  0.00000  0.10253
       6     H     0.46998  0.46998  0.00000  0.06004
       7     C     3.10995  3.10995  0.00000 -0.21989
       8     H     0.44990  0.44990  0.00000  0.10021
       9     H     0.45567  0.45567  0.00000  0.08865
      10     C     3.10411  3.10411  0.00000 -0.20821
      11     H     0.45120  0.45120  0.00000  0.09760
      12     H     0.45290  0.45290  0.00000  0.09419
      13     C     3.09680  3.09680  0.00000 -0.19360
      14     H     0.44844  0.44844  0.00000  0.10311
      15     H     0.44665  0.44665  0.00000  0.10670
      16     C     3.08733  3.08733  0.00000 -0.17467
      17     H     0.44808  0.44808  0.00000  0.10383
      18     H     0.45458  0.45458  0.00000  0.09083
      19     C     3.08453  3.08453  0.00000 -0.16907
      20     H     0.45437  0.45437  0.00000  0.09125
      21     H     0.45382  0.45382  0.00000  0.09236
      22     C     3.14975  3.14975  0.00000 -0.29950
      23     H     0.45365  0.45365  0.00000  0.09269
      24     H     0.45469  0.45469  0.00000  0.09063
      25     H     0.45502  0.45502  0.00000  0.08995
      26     H     0.44825  0.44825  0.00000  0.10351
      27     H     0.45563  0.45563  0.00000  0.08874

   Total alpha = 37.00000, Total beta = 37.00000, Total charge =  0.00000

*** Psi4 exiting successfully. Buy a developer a beer!
