                              Psi4 1.0.54 Driver

  ==> Input File <==

--------------------------------------------------------------------------
set {
	reference rhf
	basis cc-pvtz
}

set_num_threads( 4 )
memory 2 gb

molecule MOL {
0 1

H	 -0.000105	 1.988529	 0.748933
O	 -0.000098	 1.879786	 -0.188206
C	 -0.000014	 0.545691	 -0.532416
C	 -1.286000	 -0.125171	 -0.046657
C	 1.286016	 -0.125031	 -0.046584
H	 0.000021	 0.481103	 -1.610604
F	 -1.400985	 -1.301668	 -0.611896
F	 -1.296865	 -0.299745	 1.250693
F	 -2.347256	 0.580400	 -0.374193
F	 2.317750	 0.468717	 -0.594166
F	 1.336617	 -1.393765	 -0.365123
F	 1.414467	 -0.024806	 1.259108

	symmetry c1
}
set optking {
	frozen_dihedral = ("
		7 4 3 6
	")
}

ee,wfn = optimize('scf', return_wfn=True)
oeprop( wfn, 'DIPOLE', 'QUADRUPOLE', 'MULLIKEN_CHARGES')
f=open( 'psi4out.xyz', 'w' )
f.write( "12  " )
f.write( str(ee) + "\n" )
f.write( MOL.save_string_xyz() )
f.close()
--------------------------------------------------------------------------

    Molecular point group: c1
  Charge       = 0
  Multiplicity = 1
  Basis Set: CC-PVTZ
  Basis Set:
  @DF-RHF Final Energy:  -786.58825106833456
    Total Energy =                       -786.5882510683343298
    Molecular point group: c1
  Basis Set: CC-PVTZ
  Basis Set:
  Basis Set: CC-PVTZ
  Basis Set:
  @DF-RHF Final Energy:  -786.58886000867426
    Total Energy =                       -786.5888600086734641
  Basis Set: CC-PVTZ
  Basis Set:
  Basis Set: CC-PVTZ
  Basis Set:
  @DF-RHF Final Energy:  -786.58910734948824
    Total Energy =                       -786.5891073494884722
  Basis Set: CC-PVTZ
  Basis Set:
  Basis Set: CC-PVTZ
  Basis Set:
  @DF-RHF Final Energy:  -786.58913998421713
    Total Energy =                       -786.5891399842165583
  Basis Set: CC-PVTZ
  Basis Set:
  Basis Set: CC-PVTZ
  Basis Set:
  @DF-RHF Final Energy:  -786.58914790834626
    Total Energy =                       -786.5891479083463764
  Basis Set: CC-PVTZ
  Basis Set:
  Basis Set: CC-PVTZ
  Basis Set:
  @DF-RHF Final Energy:  -786.58914911723650
    Total Energy =                       -786.5891491172367296
  Basis Set: CC-PVTZ
  Basis Set:
  Charge       = 0
  Multiplicity = 1
  Basis Set: CC-PVTZ
  Basis Set:

    Orbital Energies (a.u.)
    -----------------------

    Doubly Occupied:

       1A    -26.358819     2A    -26.358300     3A    -26.358056
       4A    -26.355913     5A    -26.354469     6A    -26.352666
       7A    -20.610400     8A    -11.520267     9A    -11.518781
      10A    -11.351579    11A     -1.771993    12A     -1.766145
      13A     -1.667616    14A     -1.663824    15A     -1.662761
      16A     -1.660357    17A     -1.440339    18A     -1.103533
      19A     -1.001468    20A     -0.945123    21A     -0.870914
      22A     -0.868851    23A     -0.859157    24A     -0.852424
      25A     -0.839551    26A     -0.821684    27A     -0.748747
      28A     -0.734294    29A     -0.731741    30A     -0.726142
      31A     -0.696294    32A     -0.692041    33A     -0.690240
      34A     -0.681523    35A     -0.677389    36A     -0.668543
      37A     -0.663946    38A     -0.658423    39A     -0.625068
      40A     -0.553674    41A     -0.510194

  @DF-RHF Final Energy:  -786.58914936721305

   => Energetics <=

    Nuclear Repulsion Energy =            671.1282439573300280
    One-Electron Energy =               -2429.4482896387698929
    Two-Electron Energy =                 971.7308963142263565
    DFT Exchange-Correlation Energy =       0.0000000000000000
    Empirical Dispersion Energy =           0.0000000000000000
    PCM Polarization Energy =               0.0000000000000000
    EFP Energy =                            0.0000000000000000
    Total Energy =                       -786.5891493672133947
    Molecular point group: c1
  Basis Set: CC-PVTZ
  Basis Set:

  -Total Gradient:
     Atom            X                  Y                   Z
    ------   -----------------  -----------------  -----------------
       1       -0.000000017895    -0.000016172178    -0.000009551208
       2       -0.000007742201     0.000025702861    -0.000024865819
       3       -0.001232710094     0.002053480371    -0.000373970722
       4        0.001166526992    -0.001147231461     0.001389310009
       5       -0.000013558048    -0.000009204348    -0.000004466278
       6        0.000845207676    -0.001531466060     0.000078077056
       7       -0.000735356817     0.000653926800    -0.001085953719
       8        0.000013162679    -0.000022066505     0.000047259310
       9       -0.000014702014    -0.000001786231    -0.000000085274
      10        0.000013068597     0.000006327361    -0.000003665018
      11       -0.000022421934    -0.000020411524    -0.000010406030
      12       -0.000011456925     0.000008900912    -0.000001682301

  **** Optimization is complete! (in 7 steps) ****
    Final optimized geometry and variables:
    Molecular point group: c1

    Geometry (in Angstrom), charge = 0, multiplicity = 1:

    H            0.087080089273     1.987679022501     0.788357883418
    O            0.033546440061     1.895935047826    -0.149012757087
    C            0.001164444972     0.570166233738    -0.517868198123
    C           -1.284829832674    -0.108255382030    -0.039548315499
    C            1.277642548148    -0.136092282783    -0.055198621934
    H           -0.004716867222     0.517813794138    -1.596638802273
    F           -1.442750584519    -1.283802409868    -0.595987758021
    F           -1.304214017115    -0.262046090498     1.266360469435
    F           -2.316357935493     0.629074506771    -0.368345718365
    F            2.308069919961     0.362334747274    -0.693353582296
    F            1.243957557731    -1.424673650515    -0.285286896146
    F            1.482487054870     0.044200789424     1.231893504039

  Mulliken Charges: (a.u.)
   Center  Symbol    Alpha    Beta     Spin     Total
       1     H     0.38186  0.38186  0.00000  0.23628
       2     O     4.18845  4.18845  0.00000 -0.37689
       3     C     3.00528  3.00528  0.00000 -0.01055
       4     C     2.68535  2.68535  0.00000  0.62930
       5     C     2.68417  2.68417  0.00000  0.63166
       6     H     0.42506  0.42506  0.00000  0.14988
       7     F     4.60413  4.60413  0.00000 -0.20826
       8     F     4.60886  4.60886  0.00000 -0.21772
       9     F     4.60142  4.60142  0.00000 -0.20284
      10     F     4.60243  4.60243  0.00000 -0.20487
      11     F     4.60241  4.60241  0.00000 -0.20481
      12     F     4.61059  4.61059  0.00000 -0.22117

   Total alpha = 41.00000, Total beta = 41.00000, Total charge =  0.00000

*** Psi4 exiting successfully. Buy a developer a beer!
