  ==> Input File <==

--------------------------------------------------------------------------
set {
	reference rhf
	basis 6-31G*
}

set_num_threads( 1 )
memory 2 gb

molecule MOL {
0 1

H	 0.945393	 2.337051	 -0.916070
O	 1.241151	 1.929803	 -0.113244
C	 0.709265	 0.639550	 -0.033818
C	 -0.793441	 0.596080	 0.058728
H	 1.141838	 0.188139	 0.851796
H	 1.032551	 0.034897	 -0.880521
C	 -1.530462	 -0.493172	 -0.025500
H	 -1.268471	 1.554324	 0.202247
H	 -1.092586	 -1.461565	 -0.186463
H	 -2.602122	 -0.450675	 0.050101

	symmetry c1
}
set optking {
	frozen_dihedral = ("
		5 3 2 1,
		3 4 7 9
	")
}

ee = energy('scf')
oeprop('DIPOLE', 'QUADRUPOLE', 'MULLIKEN_CHARGES')
f=open( 'psi4out.xyz', 'w' )
f.write( "10  " )
f.write( str(ee) + "\n" )
f.write( MOL.save_string_xyz() )
f.close()
--------------------------------------------------------------------------

    Molecular point group: c1

    Geometry (in Angstrom), charge = 0, multiplicity = 1:

       Center              X                  Y                   Z               Mass
    ------------   -----------------  -----------------  -----------------  -----------------
           H          0.969192603444     1.613505445213    -0.869479567062     1.007825032070
           O          1.264950603444     1.206257445213    -0.066653567062    15.994914619560
           C          0.733064603444    -0.083995554787     0.012772432938    12.000000000000
           C         -0.769641396556    -0.127465554787     0.105318432938    12.000000000000
           H          1.165637603444    -0.535406554787     0.898386432938     1.007825032070
           H          1.056350603444    -0.688648554787    -0.833930567062     1.007825032070
           C         -1.506662396556    -1.216717554787     0.021090432938    12.000000000000
           H         -1.244671396556     0.830778445213     0.248837432938     1.007825032070
           H         -1.068786396556    -2.185110554787    -0.139872567062     1.007825032070
           H         -2.578322396556    -1.174220554787     0.096691432938     1.007825032070

  Charge       = 0
  Multiplicity = 1
  Basis Set: 6-31G*
  Basis Set:

    Orbital Energies (a.u.)
    -----------------------

    Doubly Occupied:

       1A    -20.561724     2A    -11.276845     3A    -11.231368
       4A    -11.221797     5A     -1.370174     6A     -1.062675
       7A     -0.920500     8A     -0.777153     9A     -0.701169
      10A     -0.630925    11A     -0.623097    12A     -0.590437
      13A     -0.526558    14A     -0.500042    15A     -0.447156
      16A     -0.363854

  @DF-RHF Final Energy:  -191.91356045769140

   => Energetics <=

    Nuclear Repulsion Energy =            116.9705704061235991
    One-Electron Energy =                -492.1573148780333895
    Two-Electron Energy =                 183.2731840142183728
    DFT Exchange-Correlation Energy =       0.0000000000000000
    Empirical Dispersion Energy =           0.0000000000000000
    PCM Polarization Energy =               0.0000000000000000
    EFP Energy =                            0.0000000000000000
    Total Energy =                       -191.9135604576914034

  Mulliken Charges: (a.u.)
   Center  Symbol    Alpha    Beta     Spin     Total
       1     H     0.28153  0.28153  0.00000  0.43693
       2     O     4.36877  4.36877  0.00000 -0.73753
       3     C     3.00180  3.00180  0.00000 -0.00361
       4     C     3.09448  3.09448  0.00000 -0.18897
       5     H     0.40586  0.40586  0.00000  0.18829
       6     H     0.42265  0.42265  0.00000  0.15469
       7     C     3.19829  3.19829  0.00000 -0.39659
       8     H     0.40448  0.40448  0.00000  0.19103
       9     H     0.41359  0.41359  0.00000  0.17282
      10     H     0.40853  0.40853  0.00000  0.18293

   Total alpha = 16.00000, Total beta = 16.00000, Total charge = -0.00000
