  ==> Input File <==

--------------------------------------------------------------------------
set {
	reference rhf
	basis cc-pvtz
}

set_num_threads( 4 )
memory 2 gb

molecule MOL {
0 1

H	 2.251795	 0.625892	 -0.692231
O	 2.063695	 -0.083403	 -0.105237
C	 0.742924	 0.005675	 0.350750
H	 0.731380	 0.039219	 1.440080
C	 -0.064076	 -1.193495	 -0.124425
C	 -0.047832	 1.190568	 -0.194462
H	 0.194729	 -1.376165	 -1.161308
H	 0.163013	 -2.094508	 0.429933
C	 -1.533112	 -0.752002	 0.006102
H	 0.148003	 1.266545	 -1.259275
H	 0.226235	 2.136493	 0.259722
C	 -1.506634	 0.799189	 0.067162
H	 -2.124360	 -1.110499	 -0.826089
H	 -1.983103	 -1.158030	 0.903403
H	 -2.183808	 1.252169	 -0.644677
H	 -1.813926	 1.138698	 1.049457

	symmetry c1
}
set optking {
	frozen_dihedral = ("
		1 2 3 6
	")
}

ee = optimize('scf')
oeprop('DIPOLE', 'QUADRUPOLE', 'MULLIKEN_CHARGES')
f=open( 'psi4out.xyz', 'w' )
f.write( "16  " )
f.write( str(ee) + "\n" )
f.write( MOL.save_string_xyz() )
f.close()
--------------------------------------------------------------------------

    Molecular point group: c1
  Charge       = 0
  Multiplicity = 1
  Basis Set: CC-PVTZ
  Basis Set:
  @DF-RHF Final Energy:  -270.11400593312840
    Total Energy =                       -270.1140059331283965
    Molecular point group: c1
  Basis Set: CC-PVTZ
  Basis Set:
  Basis Set: CC-PVTZ
  Basis Set:
  @DF-RHF Final Energy:  -270.11452049081123
    Total Energy =                       -270.1145204908110600
  Basis Set: CC-PVTZ
  Basis Set:
  Basis Set: CC-PVTZ
  Basis Set:
  @DF-RHF Final Energy:  -270.11464667399400
    Total Energy =                       -270.1146466739936614
  Basis Set: CC-PVTZ
  Basis Set:
  Basis Set: CC-PVTZ
  Basis Set:
  @DF-RHF Final Energy:  -270.11465194360949
    Total Energy =                       -270.1146519436097151
  Basis Set: CC-PVTZ
  Basis Set:
  Basis Set: CC-PVTZ
  Basis Set:
  @DF-RHF Final Energy:  -270.11465546969021
    Total Energy =                       -270.1146554696904332
  Basis Set: CC-PVTZ
  Basis Set:
  Basis Set: CC-PVTZ
  Basis Set:
  @DF-RHF Final Energy:  -270.11465887279405
    Total Energy =                       -270.1146588727940525
  Basis Set: CC-PVTZ
  Basis Set:
  Charge       = 0
  Multiplicity = 1
  Basis Set: CC-PVTZ
  Basis Set:

    Orbital Energies (a.u.)
    -----------------------

    Doubly Occupied:

       1A    -20.543298     2A    -11.267292     3A    -11.218687
       4A    -11.218012     5A    -11.214998     6A    -11.206959
       7A     -1.363810     8A     -1.117176     9A     -0.969847
      10A     -0.950072    11A     -0.802136    12A     -0.780847
      13A     -0.684852    14A     -0.667165    15A     -0.609113
      16A     -0.602226    17A     -0.576609    18A     -0.535190
      19A     -0.503528    20A     -0.484867    21A     -0.473454
      22A     -0.459580    23A     -0.449138    24A     -0.420986

  @DF-RHF Final Energy:  -270.11465974613691

   => Energetics <=

    Nuclear Repulsion Energy =            255.5511044959886533
    One-Electron Energy =                -873.0918488850273889
    Two-Electron Energy =                 347.4260846429017420
    DFT Exchange-Correlation Energy =       0.0000000000000000
    Empirical Dispersion Energy =           0.0000000000000000
    PCM Polarization Energy =               0.0000000000000000
    EFP Energy =                            0.0000000000000000
    Total Energy =                       -270.1146597461370220
    Molecular point group: c1
  Basis Set: CC-PVTZ
  Basis Set:

  -Total Gradient:
     Atom            X                  Y                   Z
    ------   -----------------  -----------------  -----------------
       1        0.000024413722     0.000046204464     0.000064214287
       2       -0.000074204987    -0.000066818116    -0.000118674958
       3        0.000044413674     0.000065601641     0.000093577728
       4        0.000002636450    -0.000011287569     0.000021845029
       5        0.000029397687     0.000035975200    -0.000012088741
       6       -0.000016888518    -0.000042000495    -0.000071262242
       7        0.000002624061    -0.000048118860    -0.000000285390
       8       -0.000003179161     0.000024645622     0.000035248898
       9       -0.000003200404     0.000003155874     0.000013312494
      10        0.000005237952    -0.000017296074    -0.000004107514
      11       -0.000005646555     0.000007242547    -0.000019769613
      12       -0.000008100970     0.000007678130     0.000002336966
      13        0.000038019940     0.000026637323    -0.000036487733
      14       -0.000047601170    -0.000026848459    -0.000026322346
      15       -0.000025742877     0.000018890186     0.000038516904
      16        0.000037821154    -0.000023661411     0.000019946233

  **** Optimization is complete! (in 7 steps) ****
    Final optimized geometry and variables:
    Molecular point group: c1

    Geometry (in Angstrom), charge = 0, multiplicity = 1:

    H            2.298185281095     0.661493356830    -0.615180257915
    O            2.086988601350    -0.064035239978    -0.058739528340
    C            0.744554308671    -0.003443289896     0.341831445683
    H            0.729123369245     0.028108554268     1.428643266517
    C           -0.072583220825    -1.198784887333    -0.135785817339
    C           -0.044939882755     1.183963460702    -0.195721503887
    H            0.161978871126    -1.371093500045    -1.180830045705
    H            0.163342971803    -2.107495389670     0.402379298556
    C           -1.536290382070    -0.755000578042     0.032034751407
    H            0.136075586550     1.266255751178    -1.265491621302
    H            0.236864855011     2.125546536765     0.260522937511
    C           -1.504895895643     0.797392545611     0.069523124495
    H           -2.154778349436    -1.125086441781    -0.774895266921
    H           -1.958219166091    -1.144956519495     0.949775945872
    H           -2.179032867023     1.241862178190    -0.650403798827
    H           -1.810633280426     1.154372156669     1.045558672149

  Mulliken Charges: (a.u.)
   Center  Symbol    Alpha    Beta     Spin     Total
       1     H     0.39100  0.39100  0.00000  0.21801
       2     O     4.20923  4.20923  0.00000 -0.41847
       3     C     2.92557  2.92557  0.00000  0.14886
       4     H     0.45603  0.45603  0.00000  0.08794
       5     C     3.09375  3.09375  0.00000 -0.18751
       6     C     3.11446  3.11446  0.00000 -0.22893
       7     H     0.45742  0.45742  0.00000  0.08515
       8     H     0.44344  0.44344  0.00000  0.11313
       9     C     3.11372  3.11372  0.00000 -0.22745
      10     H     0.45834  0.45834  0.00000  0.08333
      11     H     0.44215  0.44215  0.00000  0.11570
      12     C     3.11054  3.11054  0.00000 -0.22108
      13     H     0.44490  0.44490  0.00000  0.11020
      14     H     0.44783  0.44783  0.00000  0.10435
      15     H     0.44341  0.44341  0.00000  0.11318
      16     H     0.44821  0.44821  0.00000  0.10358

   Total alpha = 24.00000, Total beta = 24.00000, Total charge = -0.00000
