  ==> Input File <==

--------------------------------------------------------------------------
set {
	reference rhf
	basis cc-pvtz
}

set_num_threads( 4 )
memory 2 gb

molecule MOL {
0 1

O	 0.925138	 0.959831	 -0.777580
C	 0.576499	 0.134701	 -0.003900
C	 -0.765656	 -0.550508	 -0.002152
O	 1.337061	 -0.295972	 0.989095
C	 -1.945526	 0.411052	 0.000603
H	 -0.794329	 -1.203792	 -0.868145
H	 -0.791555	 -1.205429	 0.862701
C	 -3.282915	 -0.321280	 0.002596
H	 -1.880300	 1.059126	 -0.864925
H	 -1.877207	 1.057892	 0.866807
H	 -3.388495	 -0.952755	 -0.873419
H	 -4.107811	 0.380864	 0.004116
H	 -3.385717	 -0.953283	 0.878571
C	 2.627411	 0.268282	 1.110032
H	 3.212148	 0.075727	 0.222868
H	 3.080332	 -0.206757	 1.964953
H	 2.563898	 1.334907	 1.265981

	symmetry c1
}
set optking {
	frozen_dihedral = ("
		1 2 3 6
	")
}

ee = optimize('scf')
oeprop('DIPOLE', 'QUADRUPOLE', 'MULLIKEN_CHARGES')
f=open( 'psi4out.xyz', 'w' )
f.write( "17  " )
f.write( str(ee) + "\n" )
f.write( MOL.save_string_xyz() )
f.close()
--------------------------------------------------------------------------

    Molecular point group: c1
  Charge       = 0
  Multiplicity = 1
  Basis Set: CC-PVTZ
  Basis Set:
  @DF-RHF Final Energy:  -345.03351596803071
    Total Energy =                       -345.0335159680305424
    Molecular point group: c1
  Basis Set: CC-PVTZ
  Basis Set:
  Basis Set: CC-PVTZ
  Basis Set:
  @DF-RHF Final Energy:  -345.03389757229712
    Total Energy =                       -345.0338975722975761
  Basis Set: CC-PVTZ
  Basis Set:
  Basis Set: CC-PVTZ
  Basis Set:
  @DF-RHF Final Energy:  -345.03408494896246
    Total Energy =                       -345.0340849489625725
  Basis Set: CC-PVTZ
  Basis Set:
  Basis Set: CC-PVTZ
  Basis Set:
  @DF-RHF Final Energy:  -345.03416826394562
    Total Energy =                       -345.0341682639456167
  Basis Set: CC-PVTZ
  Basis Set:
  Charge       = 0
  Multiplicity = 1
  Basis Set: CC-PVTZ
  Basis Set:

    Orbital Energies (a.u.)
    -----------------------

    Doubly Occupied:

       1A    -20.599002     2A    -20.531930     3A    -11.364648
       4A    -11.278842     5A    -11.233173     6A    -11.224971
       7A    -11.214338     8A     -1.473059     9A     -1.365215
      10A     -1.082517    11A     -1.001776    12A     -0.941783
      13A     -0.828584    14A     -0.773066    15A     -0.701380
      16A     -0.684648    17A     -0.676086    18A     -0.637941
      19A     -0.596129    20A     -0.582041    21A     -0.562877
      22A     -0.534382    23A     -0.526212    24A     -0.503176
      25A     -0.485659    26A     -0.481463    27A     -0.459369
      28A     -0.438661

  @DF-RHF Final Energy:  -345.03416896751452

   => Energetics <=

    Nuclear Repulsion Energy =            313.2468236131699655
    One-Electron Energy =               -1090.9961214261561508
    Two-Electron Energy =                 432.7151288454714404
    DFT Exchange-Correlation Energy =       0.0000000000000000
    Empirical Dispersion Energy =           0.0000000000000000
    PCM Polarization Energy =               0.0000000000000000
    EFP Energy =                            0.0000000000000000
    Total Energy =                       -345.0341689675148018
    Molecular point group: c1
  Basis Set: CC-PVTZ
  Basis Set:

  -Total Gradient:
     Atom            X                  Y                   Z
    ------   -----------------  -----------------  -----------------
       1        0.000254779973    -0.000563369729    -0.000304573260
       2       -0.000470709834     0.000898050405     0.000308196115
       3        0.000389232244    -0.000748382766     0.000302550146
       4        0.000079742794    -0.000015034919     0.000088906769
       5        0.000041969812    -0.000020622893    -0.000061612792
       6       -0.000255371785     0.000498713508    -0.000338122397
       7        0.000010964372    -0.000024526853     0.000006209047
       8       -0.000015003630    -0.000011205462     0.000014833470
       9       -0.000016097061     0.000021880253    -0.000008817414
      10        0.000013267631    -0.000019468920    -0.000001404140
      11        0.000003497545     0.000003719605     0.000001512209
      12        0.000003226507     0.000002957239     0.000005168713
      13       -0.000003899904    -0.000006698120    -0.000001378026
      14       -0.000065027108    -0.000033667436    -0.000014876531
      15        0.000012328172     0.000003438839    -0.000002295545
      16        0.000015279398     0.000006546856     0.000003233351
      17        0.000001820876     0.000007670395     0.000002470284

  **** Optimization is complete! (in 5 steps) ****
    Final optimized geometry and variables:
    Molecular point group: c1

    Geometry (in Angstrom), charge = 0, multiplicity = 1:

    O            0.912224053208     0.884442006273    -0.930564648151
    C            0.609478244818     0.043513784344    -0.153207002835
    C           -0.723014225486    -0.663515306074    -0.143208093656
    O            1.422179417761    -0.392107029012     0.793310423048
    C           -1.897629767489     0.312893940169    -0.201531081092
    H           -0.738400890501    -1.298977785489    -1.023257306454
    H           -0.787106383515    -1.302437806980     0.726184577597
    C           -3.240531102379    -0.405388560002    -0.264136354444
    H           -1.777741072243     0.955333306699    -1.064012699537
    H           -1.871024809618     0.957069569093     0.671981964884
    H           -3.308814504854    -1.030563678193    -1.148107711514
    H           -4.057448153523     0.305382063270    -0.298063007203
    H           -3.390153475341    -1.040431901855     0.602607470110
    C            2.712705510961     0.182322378680     0.852572165919
    H            3.250726069939     0.005219441069    -0.066796222970
    H            3.214495278399    -0.298125796729     1.676715479282
    H            2.648125731810     1.246507388539     1.023627042725

  Mulliken Charges: (a.u.)
   Center  Symbol    Alpha    Beta     Spin     Total
       1     O     4.20334  4.20334  0.00000 -0.40668
       2     C     2.81360  2.81360  0.00000  0.37281
       3     C     3.08270  3.08270  0.00000 -0.16539
       4     O     4.14315  4.14315  0.00000 -0.28629
       5     C     3.08568  3.08568  0.00000 -0.17136
       6     H     0.44606  0.44606  0.00000  0.10789
       7     H     0.43922  0.43922  0.00000  0.12157
       8     C     3.15123  3.15123  0.00000 -0.30246
       9     H     0.43955  0.43955  0.00000  0.12090
      10     H     0.45213  0.45213  0.00000  0.09574
      11     H     0.45406  0.45406  0.00000  0.09187
      12     H     0.44595  0.44595  0.00000  0.10810
      13     H     0.45539  0.45539  0.00000  0.08921
      14     C     3.03456  3.03456  0.00000 -0.06913
      15     H     0.45422  0.45422  0.00000  0.09156
      16     H     0.44507  0.44507  0.00000  0.10986
      17     H     0.45410  0.45410  0.00000  0.09180

   Total alpha = 28.00000, Total beta = 28.00000, Total charge = -0.00000
