                              Psi4 1.0.54 Driver

  ==> Input File <==

--------------------------------------------------------------------------
set {
	reference rhf
	basis cc-pvtz
}

set_num_threads( 4 )
memory 2 gb

molecule MOL {
0 1

H	 3.376683	 0.968751	 1.307350
N	 2.547978	 0.413183	 1.292887
C	 1.860978	 0.530248	 0.016256
H	 1.967205	 0.731119	 2.040528
C	 0.644130	 -0.381765	 -0.031064
H	 2.557300	 0.238250	 -0.762705
H	 1.552202	 1.552346	 -0.207189
C	 -0.678115	 0.376691	 0.025731
H	 0.693998	 -0.977147	 -0.936845
H	 0.693309	 -1.082142	 0.800523
C	 -1.900706	 -0.535531	 -0.022488
H	 -0.725296	 1.079516	 -0.802982
H	 -0.715474	 0.974884	 0.933278
C	 -3.220513	 0.226854	 0.028039
H	 -1.865036	 -1.134397	 -0.928236
H	 -1.857948	 -1.236381	 0.806820
H	 -3.309098	 0.911849	 -0.808725
H	 -4.066838	 -0.449485	 -0.008086
H	 -3.301685	 0.809374	 0.939860

	symmetry c1
}
set optking {
	frozen_dihedral = ("
		6 3 5 9
	")
}

ee,wfn = optimize('scf', return_wfn=True)
oeprop( wfn, 'DIPOLE', 'QUADRUPOLE', 'MULLIKEN_CHARGES')
f=open( 'psi4out.xyz', 'w' )
f.write( "19  " )
f.write( str(ee) + "\n" )
f.write( MOL.save_string_xyz() )
f.close()
--------------------------------------------------------------------------

    Molecular point group: c1
  Charge       = 0
  Multiplicity = 1
  Basis Set: CC-PVTZ
  Basis Set:
  @DF-RHF Final Energy:  -251.44214185922181
    Total Energy =                       -251.4421418592218060
    Molecular point group: c1
  Basis Set: CC-PVTZ
  Basis Set:
  Basis Set: CC-PVTZ
  Basis Set:
  @DF-RHF Final Energy:  -251.44255641070455
    Total Energy =                       -251.4425564107045830
  Basis Set: CC-PVTZ
  Basis Set:
  Basis Set: CC-PVTZ
  Basis Set:
  @DF-RHF Final Energy:  -251.44266069996127
    Total Energy =                       -251.4426606999610385
  Basis Set: CC-PVTZ
  Basis Set:
  Basis Set: CC-PVTZ
  Basis Set:
  @DF-RHF Final Energy:  -251.44266282669699
    Total Energy =                       -251.4426628266971875
  Basis Set: CC-PVTZ
  Basis Set:
  Charge       = 0
  Multiplicity = 1
  Basis Set: CC-PVTZ
  Basis Set:

    Orbital Energies (a.u.)
    -----------------------

    Doubly Occupied:

       1A    -15.526992     2A    -11.238003     3A    -11.212420
       4A    -11.211636     5A    -11.207509     6A    -11.206263
       7A     -1.177504     8A     -1.073906     9A     -0.998027
      10A     -0.903204    11A     -0.815227    12A     -0.788338
      13A     -0.667825    14A     -0.639919    15A     -0.618756
      16A     -0.586695    17A     -0.564431    18A     -0.549638
      19A     -0.532912    20A     -0.501814    21A     -0.485180
      22A     -0.465761    23A     -0.461541    24A     -0.445213
      25A     -0.382591

  @DF-RHF Final Energy:  -251.44266309618655

   => Energetics <=

    Nuclear Repulsion Energy =            247.3015287719421735
    One-Electron Energy =                -828.9657739202291395
    Two-Electron Energy =                 330.2215820521004161
    DFT Exchange-Correlation Energy =       0.0000000000000000
    Empirical Dispersion Energy =           0.0000000000000000
    PCM Polarization Energy =               0.0000000000000000
    EFP Energy =                            0.0000000000000000
    Total Energy =                       -251.4426630961864930
    Molecular point group: c1
  Basis Set: CC-PVTZ
  Basis Set:

  -Total Gradient:
     Atom            X                  Y                   Z
    ------   -----------------  -----------------  -----------------
       1        0.000043362257     0.000017619987     0.000028424573
       2        0.000000726731    -0.000012557432    -0.000057435659
       3        0.001867460466    -0.002820459543     0.002585094247
       4       -0.000017685621     0.000013819026    -0.000003180486
       5       -0.002129029328     0.003023429945    -0.002165599884
       6       -0.001261549967     0.001843385736    -0.001800182689
       7        0.000006540639     0.000023996729     0.000006360976
       8        0.000046739310    -0.000028417580     0.000003338851
       9        0.001453249095    -0.002052052500     0.001382902652
      10       -0.000002104789    -0.000004269507     0.000011472715
      11        0.000004423131     0.000008973542     0.000025795829
      12        0.000013969948     0.000004023996     0.000005560177
      13        0.000001784366    -0.000017737397    -0.000006960262
      14       -0.000022956388    -0.000012518836    -0.000017873661
      15        0.000002035193     0.000003943784     0.000006449358
      16        0.000001007629     0.000006306393    -0.000000434500
      17       -0.000000657742     0.000004595442     0.000001326779
      18       -0.000011667447     0.000005574133    -0.000004621571
      19        0.000004352515    -0.000007655921    -0.000000437443

  **** Optimization is complete! (in 5 steps) ****
    Final optimized geometry and variables:
    Molecular point group: c1

    Geometry (in Angstrom), charge = 0, multiplicity = 1:

    H            3.454435291769     0.915457587199     1.065784696676
    N            2.655089519248     0.317989195830     1.036271756276
    C            1.978728819119     0.419611066374    -0.249495062700
    H            2.050326321975     0.605009737958     1.777979438256
    C            0.744370058986    -0.493227948217    -0.314164460743
    H            2.683831409916     0.143753972806    -1.023814839725
    H            1.675015581762     1.441791392588    -0.478341683542
    C           -0.586084114150     0.249289963441    -0.224606899665
    H            0.773319330464    -1.088082305684    -1.221412584414
    H            0.816441363302    -1.207642324590     0.499456678425
    C           -1.797795248194    -0.677612381922    -0.223812942962
    H           -0.667830761370     0.944561705735    -1.056589450105
    H           -0.600746548896     0.856931581464     0.678404908564
    C           -3.125428172533     0.068615037816    -0.143582996424
    H           -1.781461313899    -1.287585926223    -1.122964914712
    H           -1.720667843665    -1.367474887474     0.611980713881
    H           -3.247649669718     0.741984694678    -0.985532709855
    H           -3.963619753862    -0.618721064621    -0.146219128131
    H           -3.187228028800     0.661280325925     0.763219886230

  Mulliken Charges: (a.u.)
   Center  Symbol    Alpha    Beta     Spin     Total
       1     H     0.43011  0.43011  0.00000  0.13977
       2     N     3.68624  3.68624  0.00000 -0.37248
       3     C     3.03470  3.03470  0.00000 -0.06939
       4     H     0.43128  0.43128  0.00000  0.13743
       5     C     3.09906  3.09906  0.00000 -0.19811
       6     H     0.45311  0.45311  0.00000  0.09378
       7     H     0.46783  0.46783  0.00000  0.06433
       8     C     3.08477  3.08477  0.00000 -0.16955
       9     H     0.44937  0.44937  0.00000  0.10126
      10     H     0.44805  0.44805  0.00000  0.10389
      11     C     3.08534  3.08534  0.00000 -0.17067
      12     H     0.45509  0.45509  0.00000  0.08981
      13     H     0.45779  0.45779  0.00000  0.08442
      14     C     3.14971  3.14971  0.00000 -0.29943
      15     H     0.45440  0.45440  0.00000  0.09120
      16     H     0.45368  0.45368  0.00000  0.09265
      17     H     0.45541  0.45541  0.00000  0.08918
      18     H     0.44836  0.44836  0.00000  0.10328
      19     H     0.45569  0.45569  0.00000  0.08863

   Total alpha = 25.00000, Total beta = 25.00000, Total charge = -0.00000

*** Psi4 exiting successfully. Buy a developer a beer!
