  ==> Input File <==

--------------------------------------------------------------------------
set {
	reference rhf
	basis 6-31G*
}

set_num_threads( 4 )
memory 2 gb

molecule MOL {
0 1

H	 1.063352	 -2.551430	 -0.375333
C	 0.473130	 -2.551205	 0.549026
C	 -0.806520	 -1.757318	 0.492679
O	 0.856138	 -3.149317	 1.501757
C	 -0.558097	 -0.297372	 0.091132
H	 -1.290901	 -1.824382	 1.459818
H	 -1.457145	 -2.228080	 -0.243461
C	 -1.850991	 0.512573	 -0.019058
H	 0.098754	 0.168617	 0.822005
H	 -0.031841	 -0.265900	 -0.861193
C	 -3.096943	 -0.368295	 -0.099594
H	 -1.800724	 1.150330	 -0.898172
H	 -1.931651	 1.177355	 0.838044
H	 -3.060452	 -1.020287	 -0.967456
H	 -3.996858	 0.233488	 -0.175704
H	 -3.191959	 -0.995686	 0.782074

	symmetry c1
}
set optking {
	frozen_dihedral = ("
		9 5 8 12
	")
}

ee = optimize('scf')
oeprop('DIPOLE', 'QUADRUPOLE', 'MULLIKEN_CHARGES')
f=open( 'psi4out.xyz', 'w' )
f.write( "16  " )
f.write( str(ee) + "\n" )
f.write( MOL.save_string_xyz() )
f.close()
--------------------------------------------------------------------------

    Molecular point group: c1
  Charge       = 0
  Multiplicity = 1
  Basis Set: 6-31G*
  Basis Set:
  @DF-RHF Final Energy:  -270.00788414389899
    Total Energy =                       -270.0078841438988775
    Molecular point group: c1
  Basis Set: 6-31G*
  Basis Set:
  Basis Set: 6-31G*
  Basis Set:
  @DF-RHF Final Energy:  -270.00810499746552
    Total Energy =                       -270.0081049974653524
  Basis Set: 6-31G*
  Basis Set:
  Basis Set: 6-31G*
  Basis Set:
  @DF-RHF Final Energy:  -270.01114495077968
    Total Energy =                       -270.0111449507795669
  Basis Set: 6-31G*
  Basis Set:
  Basis Set: 6-31G*
  Basis Set:
  @DF-RHF Final Energy:  -270.01125409163922
    Total Energy =                       -270.0112540916389889
  Basis Set: 6-31G*
  Basis Set:
  Basis Set: 6-31G*
  Basis Set:
  @DF-RHF Final Energy:  -270.01142574482566
    Total Energy =                       -270.0114257448255444
  Basis Set: 6-31G*
  Basis Set:
  Basis Set: 6-31G*
  Basis Set:
  @DF-RHF Final Energy:  -270.01154069923996
    Total Energy =                       -270.0115406992400153
  Basis Set: 6-31G*
  Basis Set:
  Basis Set: 6-31G*
  Basis Set:
  @DF-RHF Final Energy:  -270.01154676725946
    Total Energy =                       -270.0115467672594605
  Basis Set: 6-31G*
  Basis Set:
  Charge       = 0
  Multiplicity = 1
  Basis Set: 6-31G*
  Basis Set:

    Orbital Energies (a.u.)
    -----------------------

    Doubly Occupied:

       1A    -20.562022     2A    -11.326010     3A    -11.237319
       4A    -11.234291     5A    -11.229949     6A    -11.219144
       7A     -1.401814     8A     -1.093158     9A     -1.014381
      10A     -0.915259    11A     -0.810284    12A     -0.785622
      13A     -0.676558    14A     -0.649760    15A     -0.637158
      16A     -0.586346    17A     -0.576247    18A     -0.566550
      19A     -0.532067    20A     -0.516872    21A     -0.486035
      22A     -0.472001    23A     -0.469658    24A     -0.409327

  @DF-RHF Final Energy:  -270.01154720707649

   => Energetics <=

    Nuclear Repulsion Energy =            232.2380891691955753
    One-Electron Energy =                -825.6836080868406498
    Two-Electron Energy =                 323.4339717105684713
    DFT Exchange-Correlation Energy =       0.0000000000000000
    Empirical Dispersion Energy =           0.0000000000000000
    PCM Polarization Energy =               0.0000000000000000
    EFP Energy =                            0.0000000000000000
    Total Energy =                       -270.0115472070766600
    Molecular point group: c1
  Basis Set: 6-31G*
  Basis Set:

  -Total Gradient:
     Atom            X                  Y                   Z
    ------   -----------------  -----------------  -----------------
       1        0.000045686638     0.000060671900     0.000027715445
       2       -0.000076588260    -0.000145202148    -0.000117632615
       3        0.000025550930     0.000214209348     0.000097106075
       4        0.000002500084     0.000013169217     0.000019223502
       5        0.002131182339     0.002629820305    -0.005299251657
       6        0.000041608687    -0.000022936133     0.000004538432
       7       -0.000053286486    -0.000050230090    -0.000011611379
       8        0.002136550979     0.003833910152     0.004430816028
       9       -0.002169201535    -0.002837355666     0.003717361566
      10        0.000042602253     0.000008500270     0.000045116657
      11        0.000021034512    -0.000062607134    -0.000008849451
      12       -0.002160683689    -0.003695208570    -0.002864914180
      13        0.000005228562     0.000018751359    -0.000023682179
      14        0.000004640663     0.000000508933    -0.000012506146
      15        0.000012695649     0.000013479423    -0.000008099318
      16       -0.000009521332     0.000020518834     0.000004669223

  **** Optimization is complete! (in 8 steps) ****
    Final optimized geometry and variables:
    Molecular point group: c1

    Geometry (in Angstrom), charge = 0, multiplicity = 1:

    H            1.927512806124    -1.268741286217    -0.819161960512
    C            1.371725932329    -1.266005868839     0.126303169605
    C            0.048029065102    -0.546725494511     0.090548365383
    O            1.824308058556    -1.802200111577     1.085520412556
    C            0.233676535753     0.918599347994    -0.340692987210
    H           -0.400506374542    -0.621853548982     1.073663256007
    H           -0.590714336433    -1.072726045293    -0.615109290924
    C           -1.063465072897     1.763345947509    -0.427187624964
    H            0.892883579753     1.373430852055     0.392854202168
    H            0.751135345889     0.939615047253    -1.295448918214
    C           -2.375021245729     0.983178737034    -0.565237298419
    H           -0.991255668875     2.404862784837    -1.300133881928
    H           -1.132522289454     2.410314663138     0.440742420975
    H           -2.378637321115     0.356679792721    -1.452307467314
    H           -3.206166112621     1.675488307726    -0.654479035725
    H           -2.570480864497     0.349030860945     0.292576485157

  Mulliken Charges: (a.u.)
   Center  Symbol    Alpha    Beta     Spin     Total
       1     H     0.43242  0.43242  0.00000  0.13517
       2     C     2.82949  2.82949  0.00000  0.34102
       3     C     3.21034  3.21034  0.00000 -0.42067
       4     O     4.23745  4.23745  0.00000 -0.47489
       5     C     3.16906  3.16906  0.00000 -0.33812
       6     H     0.39943  0.39943  0.00000  0.20114
       7     H     0.40829  0.40829  0.00000  0.18342
       8     C     3.15381  3.15381  0.00000 -0.30762
       9     H     0.41028  0.41028  0.00000  0.17943
      10     H     0.41707  0.41707  0.00000  0.16586
      11     C     3.24536  3.24536  0.00000 -0.49072
      12     H     0.41698  0.41698  0.00000  0.16604
      13     H     0.41549  0.41549  0.00000  0.16902
      14     H     0.42126  0.42126  0.00000  0.15748
      15     H     0.41554  0.41554  0.00000  0.16893
      16     H     0.41773  0.41773  0.00000  0.16453

   Total alpha = 24.00000, Total beta = 24.00000, Total charge = -0.00000
