                              Psi4 1.0.54 Driver

  ==> Input File <==

--------------------------------------------------------------------------
set {
	reference rhf
	basis cc-pvtz
}

set_num_threads( 4 )
memory 2 gb

molecule MOL {
0 1

H	 0.108607	 4.205976	 0.382708
O	 -0.132160	 3.792062	 -0.425751
C	 -0.144230	 2.400498	 -0.272312
C	 1.261140	 1.837817	 -0.194086
H	 -0.705454	 2.100859	 0.607105
H	 -0.647602	 1.992154	 -1.136923
O	 1.172093	 0.457955	 -0.054438
H	 1.790300	 2.274827	 0.654388
H	 1.810476	 2.105513	 -1.094166
C	 2.395478	 -0.199028	 -0.000366
H	 2.505946	 -0.901710	 -0.823354
H	 3.174616	 0.545641	 -0.071768
H	 2.513730	 -0.742241	 0.934223

	symmetry c1
}
set optking {
	frozen_dihedral = ("
		4 7 10 13
	")
}

ee,wfn = optimize('scf', return_wfn=True)
oeprop( wfn, 'DIPOLE', 'QUADRUPOLE', 'MULLIKEN_CHARGES')
f=open( 'psi4out.xyz', 'w' )
f.write( "13  " )
f.write( str(ee) + "\n" )
f.write( MOL.save_string_xyz() )
f.close()
--------------------------------------------------------------------------

    Molecular point group: c1
  Charge       = 0
  Multiplicity = 1
  Basis Set: CC-PVTZ
  Basis Set:
  @DF-RHF Final Energy:  -268.05764292420480
    Total Energy =                       -268.0576429242046288
    Molecular point group: c1
  Basis Set: CC-PVTZ
  Basis Set:
  Basis Set: CC-PVTZ
  Basis Set:
  @DF-RHF Final Energy:  -268.05841907894660
    Total Energy =                       -268.0584190789466561
  Basis Set: CC-PVTZ
  Basis Set:
  Basis Set: CC-PVTZ
  Basis Set:
  @DF-RHF Final Energy:  -268.05869633308214
    Total Energy =                       -268.0586963330820822
  Basis Set: CC-PVTZ
  Basis Set:
  Charge       = 0
  Multiplicity = 1
  Basis Set: CC-PVTZ
  Basis Set:

    Orbital Energies (a.u.)
    -----------------------

    Doubly Occupied:

       1A    -20.552495     2A    -20.552406     3A    -11.269733
       4A    -11.267323     5A    -11.266884     6A     -1.387573
       7A     -1.368333     8A     -1.019393     9A     -0.914231
      10A     -0.842419    11A     -0.711094    12A     -0.673399
      13A     -0.660745    14A     -0.638202    15A     -0.598037
      16A     -0.570226    17A     -0.550393    18A     -0.491268
      19A     -0.483106    20A     -0.441070    21A     -0.418950

  @DF-RHF Final Energy:  -268.05869891813609

   => Energetics <=

    Nuclear Repulsion Energy =            190.1661158576531250
    One-Electron Energy =                -743.0950716549361914
    Two-Electron Energy =                 284.8702568791469503
    DFT Exchange-Correlation Energy =       0.0000000000000000
    Empirical Dispersion Energy =           0.0000000000000000
    PCM Polarization Energy =               0.0000000000000000
    EFP Energy =                            0.0000000000000000
    Total Energy =                       -268.0586989181360877
    Molecular point group: c1
  Basis Set: CC-PVTZ
  Basis Set:

  -Total Gradient:
     Atom            X                  Y                   Z
    ------   -----------------  -----------------  -----------------
       1       -0.000002391473     0.000008043148    -0.000002902524
       2       -0.000005626670     0.000034691811    -0.000000411486
       3        0.000002409017     0.000000232596     0.000002144158
       4       -0.000031326998     0.000052973546    -0.000055656163
       5       -0.000001722385    -0.000007271756    -0.000006484675
       6       -0.000001639120    -0.000004437463     0.000006216963
       7        0.000187955712    -0.000142745275     0.000142420354
       8       -0.000005942763    -0.000029636101    -0.000008038079
       9       -0.000003613656    -0.000032073520     0.000009629320
      10       -0.000132417071     0.000266546016    -0.000068148004
      11        0.000030537945    -0.000061277486     0.000004839427
      12        0.000041949811    -0.000017606696     0.000004634559
      13       -0.000078172347    -0.000067438819    -0.000028243850

  **** Optimization is complete! (in 4 steps) ****
    Final optimized geometry and variables:
    Molecular point group: c1

    Geometry (in Angstrom), charge = 0, multiplicity = 1:

    H           -0.813405448999     2.524164318445     0.575198215948
    O           -1.048177999418     2.113634592866    -0.236738770134
    C           -1.053929896794     0.721004632068    -0.090840288093
    C            0.353957553959     0.165414907255    -0.010084971035
    H           -1.617136173126     0.413657925761     0.784626264360
    H           -1.551674408932     0.314500398107    -0.959572395279
    O            0.265968898345    -1.216407543652     0.120833092250
    H            0.874981471728     0.601575465552     0.843207791454
    H            0.903469455768     0.442343140238    -0.906535800762
    C            1.474466627269    -1.912015723364     0.178165025244
    H            1.525052967185    -2.625641556977    -0.635824189240
    H            2.328453276111    -1.247384516757     0.102835147284
    H            1.542714168190    -2.451261484992     1.115891522224

  Mulliken Charges: (a.u.)
   Center  Symbol    Alpha    Beta     Spin     Total
       1     H     0.39418  0.39418  0.00000  0.21164
       2     O     4.20212  4.20212  0.00000 -0.40424
       3     C     2.97536  2.97536  0.00000  0.04929
       4     C     2.96486  2.96486  0.00000  0.07027
       5     H     0.46704  0.46704  0.00000  0.06592
       6     H     0.45290  0.45290  0.00000  0.09421
       7     O     4.18050  4.18050  0.00000 -0.36100
       8     H     0.48167  0.48167  0.00000  0.03667
       9     H     0.46946  0.46946  0.00000  0.06108
      10     C     3.02706  3.02706  0.00000 -0.05411
      11     H     0.45619  0.45619  0.00000  0.08761
      12     H     0.47133  0.47133  0.00000  0.05733
      13     H     0.45733  0.45733  0.00000  0.08533

   Total alpha = 21.00000, Total beta = 21.00000, Total charge = -0.00000

*** Psi4 exiting successfully. Buy a developer a beer!
