  ==> Input File <==

--------------------------------------------------------------------------
set {
	reference rhf
	basis 6-31G*
}

set_num_threads( 1 )
memory 2 gb

molecule MOL {
0 1

H	 3.276176	 0.174363	 -0.109463
N	 2.434251	 -0.367735	 -0.081097
C	 1.267428	 0.496480	 0.024474
H	 2.501951	 -0.965776	 0.720575
C	 -0.016086	 -0.325158	 -0.029487
H	 1.288818	 1.183521	 -0.816092
H	 1.267576	 1.109062	 0.929528
C	 -1.282277	 0.529072	 0.046735
H	 -0.012495	 -0.908639	 -0.945788
H	 -0.015903	 -1.041248	 0.791956
C	 -1.560467	 1.296196	 -1.245486
H	 -1.192256	 1.234072	 0.870664
H	 -2.135630	 -0.104626	 0.279481
H	 -0.740093	 1.965666	 -1.487387
H	 -2.462516	 1.894381	 -1.161806
H	 -1.690078	 0.617505	 -2.083818

	symmetry c1
}
set optking {
	frozen_dihedral = ("
		6 3 5 9,
		1 2 3 6
	")
}

ee = energy('scf')
oeprop('DIPOLE', 'QUADRUPOLE', 'MULLIKEN_CHARGES')
f=open( 'psi4out.xyz', 'w' )
f.write( "16  " )
f.write( str(ee) + "\n" )
f.write( MOL.save_string_xyz() )
f.close()
--------------------------------------------------------------------------

    Molecular point group: c1

    Geometry (in Angstrom), charge = 0, multiplicity = 1:

       Center              X                  Y                   Z               Mass
    ------------   -----------------  -----------------  -----------------  -----------------
           H          3.069901984456    -0.154116733396     0.145246428507     1.007825032070
           N          2.227976984456    -0.696214733396     0.173612428507    14.003074004780
           C          1.061153984456     0.168000266604     0.279183428507    12.000000000000
           H          2.295676984456    -1.294255733396     0.975284428507     1.007825032070
           C         -0.222360015544    -0.653637733396     0.225222428507    12.000000000000
           H          1.082543984456     0.855041266604    -0.561382571493     1.007825032070
           H          1.061301984456     0.780582266604     1.184237428507     1.007825032070
           C         -1.488551015544     0.200592266604     0.301444428507    12.000000000000
           H         -0.218769015544    -1.237118733396    -0.691078571493     1.007825032070
           H         -0.222177015544    -1.369727733396     1.046665428507     1.007825032070
           C         -1.766741015544     0.967716266604    -0.990776571493    12.000000000000
           H         -1.398530015544     0.905592266604     1.125373428507     1.007825032070
           H         -2.341904015544    -0.433105733396     0.534190428507     1.007825032070
           H         -0.946367015544     1.637186266604    -1.232677571493     1.007825032070
           H         -2.668790015544     1.565901266604    -0.907096571493     1.007825032070
           H         -1.896352015544     0.289025266604    -1.829108571493     1.007825032070

  Charge       = 0
  Multiplicity = 1
  Basis Set: 6-31G*
  Basis Set:

    Orbital Energies (a.u.)
    -----------------------

    Doubly Occupied:

       1A    -15.532675     2A    -11.239623     3A    -11.214735
       4A    -11.209368     5A    -11.207262     6A     -1.176785
       7A     -1.060284     8A     -0.954462     9A     -0.855714
      10A     -0.782045    11A     -0.663791    12A     -0.628297
      13A     -0.611671    14A     -0.594169    15A     -0.545884
      16A     -0.520808    17A     -0.516907    18A     -0.468731
      19A     -0.464960    20A     -0.454148    21A     -0.381512

  @DF-RHF Final Energy:  -212.31501760270160

   => Energetics <=

    Nuclear Repulsion Energy =            188.9546497169481256
    One-Electron Energy =                -660.3716287456400096
    Two-Electron Energy =                 259.1019614259900550
    DFT Exchange-Correlation Energy =       0.0000000000000000
    Empirical Dispersion Energy =           0.0000000000000000
    PCM Polarization Energy =               0.0000000000000000
    EFP Energy =                            0.0000000000000000
    Total Energy =                       -212.3150176027018574

  Mulliken Charges: (a.u.)
   Center  Symbol    Alpha    Beta     Spin     Total
       1     H     0.33254  0.33254  0.00000  0.33493
       2     N     3.92168  3.92168  0.00000 -0.84336
       3     C     3.06163  3.06163  0.00000 -0.12326
       4     H     0.33534  0.33534  0.00000  0.32931
       5     C     3.15269  3.15269  0.00000 -0.30538
       6     H     0.41954  0.41954  0.00000  0.16091
       7     H     0.43474  0.43474  0.00000  0.13052
       8     C     3.15765  3.15765  0.00000 -0.31529
       9     H     0.41339  0.41339  0.00000  0.17323
      10     H     0.42582  0.42582  0.00000  0.14837
      11     C     3.24062  3.24062  0.00000 -0.48123
      12     H     0.42388  0.42388  0.00000  0.15225
      13     H     0.41951  0.41951  0.00000  0.16099
      14     H     0.42142  0.42142  0.00000  0.15715
      15     H     0.41949  0.41949  0.00000  0.16102
      16     H     0.42007  0.42007  0.00000  0.15986

   Total alpha = 21.00000, Total beta = 21.00000, Total charge =  0.00000
