  ==> Input File <==

--------------------------------------------------------------------------
set {
	reference rhf
	basis cc-pvtz
}

set_num_threads( 4 )
memory 2 gb

molecule MOL {
0 1

H	 3.889604	 0.356866	 -0.089510
N	 3.091268	 -0.241216	 -0.065538
C	 1.860978	 0.530248	 0.016256
H	 3.192566	 -0.835836	 0.730398
C	 0.644130	 -0.381765	 -0.031064
H	 1.835721	 1.204666	 -0.833114
H	 1.808789	 1.151975	 0.911067
C	 -0.678115	 0.376691	 0.025731
H	 0.693998	 -0.977147	 -0.936845
H	 0.693309	 -1.082142	 0.800523
C	 -1.147325	 0.667713	 1.448528
H	 -1.443993	 -0.196737	 -0.491537
H	 -0.582987	 1.314445	 -0.516893
C	 -2.472620	 1.420378	 1.501100
H	 -1.242530	 -0.267871	 1.992504
H	 -0.385405	 1.243925	 1.966436
H	 -3.263828	 0.853728	 1.021375
H	 -2.776452	 1.610476	 2.524112
H	 -2.399971	 2.377258	 0.994703

	symmetry c1
}
set optking {
	frozen_dihedral = ("
		12 8 5 9
	")
}

ee = optimize('scf')
oeprop('DIPOLE', 'QUADRUPOLE', 'MULLIKEN_CHARGES')
f=open( 'psi4out.xyz', 'w' )
f.write( "19  " )
f.write( str(ee) + "\n" )
f.write( MOL.save_string_xyz() )
f.close()
--------------------------------------------------------------------------

    Molecular point group: c1
  Charge       = 0
  Multiplicity = 1
  Basis Set: CC-PVTZ
  Basis Set:
  @DF-RHF Final Energy:  -251.44518158056587
    Total Energy =                       -251.4451815805657588
    Molecular point group: c1
  Basis Set: CC-PVTZ
  Basis Set:
  Basis Set: CC-PVTZ
  Basis Set:
  @DF-RHF Final Energy:  -251.44539128231202
    Total Energy =                       -251.4453912823120163
  Basis Set: CC-PVTZ
  Basis Set:
  Basis Set: CC-PVTZ
  Basis Set:
  @DF-RHF Final Energy:  -251.44542982829756
    Total Energy =                       -251.4454298282977334
  Basis Set: CC-PVTZ
  Basis Set:
  Charge       = 0
  Multiplicity = 1
  Basis Set: CC-PVTZ
  Basis Set:

    Orbital Energies (a.u.)
    -----------------------

    Doubly Occupied:

       1A    -15.526427     2A    -11.237986     3A    -11.212808
       4A    -11.210705     5A    -11.207756     6A    -11.206159
       7A     -1.178197     8A     -1.073704     9A     -0.998373
      10A     -0.900629    11A     -0.824255    12A     -0.783071
      13A     -0.660199    14A     -0.637403    15A     -0.626089
      16A     -0.590791    17A     -0.568031    18A     -0.549841
      19A     -0.530640    20A     -0.501202    21A     -0.482212
      22A     -0.464215    23A     -0.458464    24A     -0.450973
      25A     -0.383305

  @DF-RHF Final Energy:  -251.44543076024891

   => Energetics <=

    Nuclear Repulsion Energy =            248.6041821745329514
    One-Electron Energy =                -831.5723542400435235
    Two-Electron Energy =                 331.5227413052617180
    DFT Exchange-Correlation Energy =       0.0000000000000000
    Empirical Dispersion Energy =           0.0000000000000000
    PCM Polarization Energy =               0.0000000000000000
    EFP Energy =                            0.0000000000000000
    Total Energy =                       -251.4454307602488257
    Molecular point group: c1
  Basis Set: CC-PVTZ
  Basis Set:

  -Total Gradient:
     Atom            X                  Y                   Z
    ------   -----------------  -----------------  -----------------
       1        0.000030602292    -0.000008261290    -0.000001929984
       2        0.000011866408     0.000001317770    -0.000004012042
       3        0.000018326967     0.000019448453     0.000023261102
       4       -0.000001267613    -0.000001119695    -0.000000481930
       5        0.001161389308     0.002288192874    -0.001658103791
       6       -0.000024103886     0.000004228136    -0.000001804406
       7       -0.000010965762    -0.000008340125    -0.000011089723
       8       -0.000766890753    -0.001639683945     0.002418462564
       9       -0.000856490453    -0.001628967609     0.001022151414
      10       -0.000014313176     0.000009174081    -0.000011644600
      11       -0.000027357927    -0.000057499434     0.000043294589
      12        0.000441097684     0.000998953579    -0.001753613414
      13        0.000010426502     0.000001301037    -0.000015138802
      14        0.000042269580     0.000037237808    -0.000030780922
      15        0.000005083108    -0.000019078907    -0.000012312321
      16       -0.000012090470    -0.000008523663    -0.000012261652
      17        0.000008413396    -0.000004311519     0.000009892887
      18        0.000008511127     0.000011468262     0.000005895778
      19       -0.000024506333     0.000004464189    -0.000009784746

  **** Optimization is complete! (in 4 steps) ****
    Final optimized geometry and variables:
    Molecular point group: c1

    Geometry (in Angstrom), charge = 0, multiplicity = 1:

    H            3.645459026691    -0.038368922334    -0.568300757445
    N            2.846623931418    -0.635775820302    -0.541924927979
    C            1.615431744951     0.136656635430    -0.487728297943
    H            2.939211752918    -1.215862953240     0.265698999337
    C            0.400822774828    -0.779475196669    -0.541721065650
    H            1.598812322810     0.795261642346    -1.349522688126
    H            1.555526849058     0.774418565613     0.394165319429
    C           -0.939222469310    -0.040508050774    -0.455926116386
    H            0.449116763068    -1.364092929814    -1.452951633614
    H            0.464358920560    -1.499608188919     0.272033899984
    C           -1.407043717597     0.258475830679     0.966852254766
    H           -1.701201793629    -0.620747590563    -0.967234666573
    H           -0.868165449742     0.892755091442    -1.011064187245
    C           -2.718697050696     1.035074749681     1.012252799111
    H           -1.524747741776    -0.678158058867     1.504822383237
    H           -0.641954032230     0.818786351870     1.495861319510
    H           -3.514663044802     0.486728817037     0.519287049581
    H           -3.029918705071     1.222337291409     2.033637878778
    H           -2.623372443597     1.994410573662     0.514508399154

  Mulliken Charges: (a.u.)
   Center  Symbol    Alpha    Beta     Spin     Total
       1     H     0.43017  0.43017  0.00000  0.13967
       2     N     3.68987  3.68987  0.00000 -0.37974
       3     C     3.02437  3.02437  0.00000 -0.04874
       4     H     0.43038  0.43038  0.00000  0.13924
       5     C     3.09057  3.09057  0.00000 -0.18113
       6     H     0.45675  0.45675  0.00000  0.08650
       7     H     0.46720  0.46720  0.00000  0.06561
       8     C     3.10270  3.10270  0.00000 -0.20540
       9     H     0.44287  0.44287  0.00000  0.11427
      10     H     0.46112  0.46112  0.00000  0.07775
      11     C     3.08170  3.08170  0.00000 -0.16340
      12     H     0.44693  0.44693  0.00000  0.10614
      13     H     0.45650  0.45650  0.00000  0.08700
      14     C     3.14994  3.14994  0.00000 -0.29988
      15     H     0.45475  0.45475  0.00000  0.09051
      16     H     0.45572  0.45572  0.00000  0.08857
      17     H     0.45469  0.45469  0.00000  0.09062
      18     H     0.44874  0.44874  0.00000  0.10252
      19     H     0.45505  0.45505  0.00000  0.08990

   Total alpha = 25.00000, Total beta = 25.00000, Total charge = -0.00000
