  ==> Input File <==

--------------------------------------------------------------------------
set {
	reference rhf
	basis 6-31G*
}

set_num_threads( 1 )
memory 2 gb

molecule MOL {
0 1

H	 -1.992153	 -0.909291	 -2.640912
N	 -1.074840	 -1.026700	 -2.256559
C	 -1.146965	 -1.359318	 -0.844728
H	 -0.589720	 -0.157961	 -2.370843
C	 0.248921	 -1.494998	 -0.273564
H	 -1.692708	 -0.626737	 -0.248496
H	 -1.657776	 -2.311430	 -0.738251
O	 0.874168	 -0.245412	 -0.342030
H	 0.201163	 -1.833499	 0.761218
H	 0.809332	 -2.229277	 -0.848028
C	 2.202317	 -0.244239	 0.074611
H	 2.711377	 -1.041390	 -0.449894
H	 2.692099	 0.699270	 -0.159667
H	 2.283185	 -0.418429	 1.145558

	symmetry c1
}
set optking {
	frozen_dihedral = ("
		8 5 3 6,
		6 3 2 4,
		11 8 5 3
	")
}

ee = energy('scf')
oeprop('DIPOLE', 'QUADRUPOLE', 'MULLIKEN_CHARGES')
f=open( 'psi4out.xyz', 'w' )
f.write( "14  " )
f.write( str(ee) + "\n" )
f.write( MOL.save_string_xyz() )
f.close()
--------------------------------------------------------------------------

    Molecular point group: c1

    Geometry (in Angstrom), charge = 0, multiplicity = 1:

       Center              X                  Y                   Z               Mass
    ------------   -----------------  -----------------  -----------------  -----------------
           H         -2.223527118558    -0.051636150027    -1.905763739744     1.007825032070
           N         -1.306214118558    -0.169045150027    -1.521410739744    14.003074004780
           C         -1.378339118558    -0.501663150027    -0.109579739744    12.000000000000
           H         -0.821094118558     0.699693849973    -1.635694739744     1.007825032070
           C          0.017546881442    -0.637343150027     0.461584260256    12.000000000000
           H         -1.924082118558     0.230917849973     0.486652260256     1.007825032070
           H         -1.889150118558    -1.453775150027    -0.003102739744     1.007825032070
           O          0.642793881442     0.612242849973     0.393118260256    15.994914619560
           H         -0.030211118558    -0.975844150027     1.496366260256     1.007825032070
           H          0.577957881442    -1.371622150027    -0.112879739744     1.007825032070
           C          1.970942881442     0.613415849973     0.809759260256    12.000000000000
           H          2.480002881442    -0.183735150027     0.285254260256     1.007825032070
           H          2.460724881442     1.556924849973     0.575481260256     1.007825032070
           H          2.051810881442     0.439225849973     1.880706260256     1.007825032070

  Charge       = 0
  Multiplicity = 1
  Basis Set: 6-31G*
  Basis Set:

    Orbital Energies (a.u.)
    -----------------------

    Doubly Occupied:

       1A    -20.556401     2A    -15.528499     3A    -11.266477
       4A    -11.266258     5A    -11.241022     6A     -1.381163
       7A     -1.173704     8A     -0.998619     9A     -0.907298
      10A     -0.815692    11A     -0.683651    12A     -0.675172
      13A     -0.643454    14A     -0.610196    15A     -0.607850
      16A     -0.539706    17A     -0.530059    18A     -0.498425
      19A     -0.471031    20A     -0.416984    21A     -0.380176

  @DF-RHF Final Energy:  -248.12392098781683

   => Energetics <=

    Nuclear Repulsion Energy =            194.7291464346246528
    One-Electron Energy =                -723.3223853375359340
    Two-Electron Energy =                 280.4693179150947344
    DFT Exchange-Correlation Energy =       0.0000000000000000
    Empirical Dispersion Energy =           0.0000000000000000
    PCM Polarization Energy =               0.0000000000000000
    EFP Energy =                            0.0000000000000000
    Total Energy =                       -248.1239209878165184

  Mulliken Charges: (a.u.)
   Center  Symbol    Alpha    Beta     Spin     Total
       1     H     0.33280  0.33280  0.00000  0.33439
       2     N     3.92534  3.92534  0.00000 -0.85067
       3     C     3.06882  3.06882  0.00000 -0.13765
       4     H     0.32363  0.32363  0.00000  0.35275
       5     C     2.99024  2.99024  0.00000  0.01952
       6     H     0.42640  0.42640  0.00000  0.14720
       7     H     0.42040  0.42040  0.00000  0.15920
       8     O     4.31068  4.31068  0.00000 -0.62135
       9     H     0.43097  0.43097  0.00000  0.13807
      10     H     0.42231  0.42231  0.00000  0.15539
      11     C     3.07821  3.07821  0.00000 -0.15643
      12     H     0.42826  0.42826  0.00000  0.14348
      13     H     0.41281  0.41281  0.00000  0.17439
      14     H     0.42914  0.42914  0.00000  0.14172

   Total alpha = 21.00000, Total beta = 21.00000, Total charge =  0.00000
