  ==> Input File <==

--------------------------------------------------------------------------
set {
	reference rhf
	basis 6-31G*
}

set_num_threads( 4 )
memory 2 gb

molecule MOL {
0 1

O	 1.656206	 0.575822	 -0.960186
C	 1.122059	 0.121804	 -0.000188
C	 -0.170150	 -0.657997	 -0.000612
O	 1.607642	 0.246637	 1.228470
C	 -1.412532	 0.227344	 -0.000452
H	 -0.153702	 -1.313099	 -0.867402
H	 -0.153924	 -1.313811	 0.865644
C	 -2.706999	 -0.587347	 -0.000541
H	 -1.388000	 0.879466	 -0.868000
H	 -1.387972	 0.879138	 0.867341
C	 -3.956778	 0.291888	 0.000910
H	 -2.726114	 -1.239230	 -0.871609
H	 -2.725217	 -1.240844	 0.869333
H	 -3.985213	 0.933254	 -0.875158
H	 -4.860123	 -0.309979	 0.000519
H	 -3.984618	 0.931166	 0.878514
C	 2.822472	 0.960300	 1.369932
H	 3.613541	 0.477905	 0.814062
H	 3.048219	 0.952455	 2.424885
H	 2.709739	 1.975860	 1.018597

	symmetry c1
}
set optking {
	frozen_dihedral = ("
		1 2 3 6
	")
}

ee = optimize('scf')
oeprop('DIPOLE', 'QUADRUPOLE', 'MULLIKEN_CHARGES')
f=open( 'psi4out.xyz', 'w' )
f.write( "20  " )
f.write( str(ee) + "\n" )
f.write( MOL.save_string_xyz() )
f.close()
--------------------------------------------------------------------------

    Molecular point group: c1
  Charge       = 0
  Multiplicity = 1
  Basis Set: 6-31G*
  Basis Set:
  @DF-RHF Final Energy:  -383.93933603848922
    Total Energy =                       -383.9393360384893867
    Molecular point group: c1
  Basis Set: 6-31G*
  Basis Set:
  Basis Set: 6-31G*
  Basis Set:
  @DF-RHF Final Energy:  -383.93906743040196
    Total Energy =                       -383.9390674304015647
  Basis Set: 6-31G*
  Basis Set:
  Basis Set: 6-31G*
  Basis Set:
  @DF-RHF Final Energy:  -383.93982647401401
    Total Energy =                       -383.9398264740137847
  Basis Set: 6-31G*
  Basis Set:
  Basis Set: 6-31G*
  Basis Set:
  @DF-RHF Final Energy:  -383.94008383429588
    Total Energy =                       -383.9400838342955922
  Basis Set: 6-31G*
  Basis Set:
  Basis Set: 6-31G*
  Basis Set:
  @DF-RHF Final Energy:  -383.94008521913395
    Total Energy =                       -383.9400852191341755
  Basis Set: 6-31G*
  Basis Set:
  Charge       = 0
  Multiplicity = 1
  Basis Set: 6-31G*
  Basis Set:

    Orbital Energies (a.u.)
    -----------------------

    Doubly Occupied:

       1A    -20.605091     2A    -20.542195     3A    -11.370798
       4A    -11.280566     5A    -11.233579     6A    -11.229486
       7A    -11.224059     8A    -11.214072     9A     -1.468866
      10A     -1.360966    11A     -1.092325    12A     -1.024869
      13A     -0.968459    14A     -0.889170    15A     -0.806861
      16A     -0.773164    17A     -0.694354    18A     -0.679658
      19A     -0.673146    20A     -0.647085    21A     -0.598816
      22A     -0.591812    23A     -0.574199    24A     -0.553535
      25A     -0.534217    26A     -0.521014    27A     -0.509439
      28A     -0.482227    29A     -0.478781    30A     -0.475440
      31A     -0.453264    32A     -0.430449

  @DF-RHF Final Energy:  -383.94008574021478

   => Energetics <=

    Nuclear Repulsion Energy =            382.7169112260023098
    One-Electron Energy =               -1281.3500691840984018
    Two-Electron Energy =                 514.6930722178811948
    DFT Exchange-Correlation Energy =       0.0000000000000000
    Empirical Dispersion Energy =           0.0000000000000000
    PCM Polarization Energy =               0.0000000000000000
    EFP Energy =                            0.0000000000000000
    Total Energy =                       -383.9400857402148404
    Molecular point group: c1
  Basis Set: 6-31G*
  Basis Set:

  -Total Gradient:
     Atom            X                  Y                   Z
    ------   -----------------  -----------------  -----------------
       1       -0.000164908016     0.000253413220     0.000137118185
       2        0.000239045398    -0.000435387651    -0.000130909287
       3       -0.000262558074     0.000381680719    -0.000124463097
       4        0.000013318902     0.000014010788    -0.000026157055
       5       -0.000017717453     0.000021602524     0.000002222581
       6        0.000148012766    -0.000217493280     0.000163748292
       7        0.000006960448    -0.000010327383    -0.000014447669
       8        0.000015471622    -0.000017824362    -0.000011191682
       9       -0.000001243271    -0.000015962166    -0.000004066833
      10       -0.000007234838     0.000003174197    -0.000008733026
      11        0.000012133556     0.000023222769     0.000013968396
      12        0.000010870942     0.000004472435    -0.000005971343
      13        0.000019133843    -0.000007579831    -0.000004684164
      14       -0.000006523402     0.000000575688    -0.000001230162
      15        0.000006179376    -0.000003636820     0.000005341399
      16       -0.000006230749     0.000009608900    -0.000000856666
      17       -0.000024135894    -0.000014579194     0.000010158662
      18        0.000004028424    -0.000001381134    -0.000002751167
      19        0.000014258040     0.000009829732     0.000002890550
      20        0.000001138370     0.000002580848     0.000000014080

  **** Optimization is complete! (in 6 steps) ****
    Final optimized geometry and variables:
    Molecular point group: c1

    Geometry (in Angstrom), charge = 0, multiplicity = 1:

    O            1.690378424954     0.432383305500    -1.167091697117
    C            1.214080523438    -0.071218460668    -0.200308895188
    C           -0.059235673223    -0.879519106449    -0.200013889522
    O            1.731700291751     0.055216513469     1.013971558675
    C           -1.288245473090     0.041892503054    -0.198968936093
    H           -0.056325268245    -1.490523422885    -1.095000227961
    H           -0.075578288844    -1.530687973342     0.665182277631
    C           -2.602112630511    -0.739670945762    -0.230394189049
    H           -1.232977041429     0.702780599892    -1.058983824810
    H           -1.262502102857     0.672658259245     0.686543346062
    C           -3.829682618997     0.170349394827    -0.228555331692
    H           -2.622144020134    -1.372725610612    -1.114576868359
    H           -2.645249151589    -1.407688839227     0.626900983142
    H           -3.831448881540     0.827635057225    -1.093150462295
    H           -4.746655762884    -0.409834972442    -0.251776128992
    H           -3.854660553149     0.793522895424     0.660763576824
    C            2.905565165957     0.838607267637     1.132065168936
    H            3.703719447888     0.417605664430     0.537926975462
    H            3.168274511593     0.821105218332     2.178310364146
    H            2.719270402745     1.852713736530     0.808978846545

  Mulliken Charges: (a.u.)
   Center  Symbol    Alpha    Beta     Spin     Total
       1     O     4.28638  4.28638  0.00000 -0.57275
       2     C     2.61560  2.61560  0.00000  0.76881
       3     C     3.19526  3.19526  0.00000 -0.39052
       4     O     4.30265  4.30265  0.00000 -0.60530
       5     C     3.16443  3.16443  0.00000 -0.32885
       6     H     0.40089  0.40089  0.00000  0.19823
       7     H     0.40301  0.40301  0.00000  0.19398
       8     C     3.15292  3.15292  0.00000 -0.30584
       9     H     0.40718  0.40718  0.00000  0.18565
      10     H     0.41431  0.41431  0.00000  0.17138
      11     C     3.24033  3.24033  0.00000 -0.48065
      12     H     0.41985  0.41985  0.00000  0.16029
      13     H     0.42092  0.42092  0.00000  0.15816
      14     H     0.41925  0.41925  0.00000  0.16150
      15     H     0.41747  0.41747  0.00000  0.16506
      16     H     0.42045  0.42045  0.00000  0.15911
      17     C     3.09308  3.09308  0.00000 -0.18617
      18     H     0.40838  0.40838  0.00000  0.18325
      19     H     0.40867  0.40867  0.00000  0.18267
      20     H     0.40899  0.40899  0.00000  0.18201

   Total alpha = 32.00000, Total beta = 32.00000, Total charge =  0.00000
