  ==> Input File <==

--------------------------------------------------------------------------
set {
	reference rhf
	basis 6-31G*
}

set_num_threads( 4 )
memory 2 gb

molecule MOL {
0 1

O	 2.056148	 0.913960	 0.809921
C	 1.705091	 0.115954	 0.001797
C	 0.381791	 -0.609817	 0.001258
O	 2.451776	 -0.245209	 -1.034137
C	 -0.823008	 0.326187	 0.001381
H	 0.371250	 -1.265087	 -0.865474
H	 0.370908	 -1.265746	 0.867490
C	 -2.149452	 -0.435131	 -0.000098
H	 -0.770201	 0.977095	 -0.865636
H	 -0.771220	 0.975655	 0.869608
C	 -3.368779	 0.488503	 -0.000883
H	 -2.193746	 -1.087250	 -0.871175
H	 -2.195311	 -1.087803	 0.870418
C	 -4.693822	 -0.272754	 -0.001129
H	 -3.325798	 1.139422	 -0.871284
H	 -3.326423	 1.139959	 0.869145
H	 -4.781274	 -0.907928	 -0.878124
H	 -5.538651	 0.408946	 -0.001420
H	 -4.781694	 -0.907783	 0.875984
C	 3.723564	 0.365705	 -1.153699
H	 3.622781	 1.436956	 -1.252651
H	 4.169055	 -0.051772	 -2.043151
H	 4.334063	 0.144761	 -0.289997

	symmetry c1
}
set optking {
	frozen_dihedral = ("
		1 2 3 6
	")
}

ee = optimize('scf')
oeprop('DIPOLE', 'QUADRUPOLE', 'MULLIKEN_CHARGES')
f=open( 'psi4out.xyz', 'w' )
f.write( "23  " )
f.write( str(ee) + "\n" )
f.write( MOL.save_string_xyz() )
f.close()
--------------------------------------------------------------------------

    Molecular point group: c1
  Charge       = 0
  Multiplicity = 1
  Basis Set: 6-31G*
  Basis Set:
  @DF-RHF Final Energy:  -422.97429371435601
    Total Energy =                       -422.9742937143562358
    Molecular point group: c1
  Basis Set: 6-31G*
  Basis Set:
  Basis Set: 6-31G*
  Basis Set:
  @DF-RHF Final Energy:  -422.97465689602848
    Total Energy =                       -422.9746568960288187
  Basis Set: 6-31G*
  Basis Set:
  Basis Set: 6-31G*
  Basis Set:
  @DF-RHF Final Energy:  -422.97385222092993
    Total Energy =                       -422.9738522209299845
  Basis Set: 6-31G*
  Basis Set:
  Basis Set: 6-31G*
  Basis Set:
  @DF-RHF Final Energy:  -422.97490080746195
    Total Energy =                       -422.9749008074622907
  Basis Set: 6-31G*
  Basis Set:
  Basis Set: 6-31G*
  Basis Set:
  @DF-RHF Final Energy:  -422.97490397120038
    Total Energy =                       -422.9749039712008880
  Basis Set: 6-31G*
  Basis Set:
  Basis Set: 6-31G*
  Basis Set:
  @DF-RHF Final Energy:  -422.97490572885448
    Total Energy =                       -422.9749057288556742
  Basis Set: 6-31G*
  Basis Set:
  Charge       = 0
  Multiplicity = 1
  Basis Set: 6-31G*
  Basis Set:

    Orbital Energies (a.u.)
    -----------------------

    Doubly Occupied:

       1A    -20.605930     2A    -20.542084     3A    -11.371435
       4A    -11.280771     5A    -11.233831     6A    -11.225400
       7A    -11.219980     8A    -11.218303     9A    -11.210860
      10A     -1.469570    11A     -1.361251    12A     -1.094871
      13A     -1.043878    14A     -0.986643    15A     -0.933646
      16A     -0.844780    17A     -0.796826    18A     -0.771252
      19A     -0.695308    20A     -0.680890    21A     -0.672118
      22A     -0.652923    23A     -0.607109    24A     -0.598247
      25A     -0.575644    26A     -0.569429    27A     -0.545428
      28A     -0.529627    29A     -0.523999    30A     -0.506370
      31A     -0.487203    32A     -0.473360    33A     -0.468137
      34A     -0.463772    35A     -0.453342    36A     -0.431068

  @DF-RHF Final Energy:  -422.97490593055869

   => Energetics <=

    Nuclear Repulsion Energy =            452.7936597632712505
    One-Electron Energy =               -1473.2465551819188931
    Two-Electron Energy =                 597.4779894880889515
    DFT Exchange-Correlation Energy =       0.0000000000000000
    Empirical Dispersion Energy =           0.0000000000000000
    PCM Polarization Energy =               0.0000000000000000
    EFP Energy =                            0.0000000000000000
    Total Energy =                       -422.9749059305586343
    Molecular point group: c1
  Basis Set: 6-31G*
  Basis Set:

  -Total Gradient:
     Atom            X                  Y                   Z
    ------   -----------------  -----------------  -----------------
       1        0.000291349959    -0.000512952350     0.000380801367
       2       -0.000357307674     0.000628112595    -0.000537945854
       3       -0.000152209820     0.000351012616    -0.000217766554
       4       -0.000051304641     0.000002806047     0.000071412108
       5       -0.000029158640     0.000054200749    -0.000051759935
       6        0.000279500756    -0.000497821960     0.000351146504
       7       -0.000009080642    -0.000006346535    -0.000041824547
       8        0.000010368182    -0.000012308603     0.000031104437
       9        0.000005366335     0.000002996742     0.000025900250
      10        0.000009977339    -0.000008846283    -0.000009962236
      11        0.000003432634     0.000003889767    -0.000005877013
      12        0.000007802748    -0.000000997694     0.000011178312
      13       -0.000012745831    -0.000004685012     0.000008841210
      14       -0.000002122416    -0.000000887794    -0.000009035464
      15        0.000003142111     0.000007650876     0.000002113319
      16       -0.000003941689    -0.000005543227     0.000000522899
      17       -0.000002149788    -0.000001496990    -0.000000709064
      18       -0.000000102275     0.000000114902    -0.000001993587
      19        0.000002268348     0.000000963064    -0.000000346657
      20        0.000001611203    -0.000008924196    -0.000000772845
      21        0.000000548581     0.000003376681    -0.000001462091
      22        0.000004239066     0.000003945053    -0.000000798030
      23        0.000000516147     0.000001741550    -0.000002766532

  **** Optimization is complete! (in 7 steps) ****
    Final optimized geometry and variables:
    Molecular point group: c1

    Geometry (in Angstrom), charge = 0, multiplicity = 1:

    O            2.036907149429     0.805930478576     0.969575894166
    C            1.735853802862     0.016753027145     0.131354478485
    C            0.423918179006    -0.730371452197     0.102208059101
    O            2.530044421880    -0.305936909191    -0.878794561091
    C           -0.774247703346     0.225755466425     0.115489985764
    H            0.397451868556    -1.385070236306    -0.759365241712
    H            0.400439623813    -1.353923331726     0.991463609816
    C           -2.110402731298    -0.515938362071     0.162818319548
    H           -0.740725744952     0.855806374420    -0.770664094180
    H           -0.684401595015     0.885968838210     0.971314740869
    C           -3.316366358655     0.425116392134     0.169498311280
    H           -2.183789399329    -1.187749805939    -0.690731075852
    H           -2.141304838457    -1.145437655180     1.050599414093
    C           -4.651080840826    -0.317456214358     0.219575010512
    H           -3.286529699090     1.054427583339    -0.717317423874
    H           -3.243711437961     1.095983788307     1.022483567937
    H           -4.768226040552    -0.972403397738    -0.639233614527
    H           -5.486319288131     0.375851931837     0.222798210154
    H           -4.726009939209    -0.929541342264     1.113914116161
    C            3.792385708429     0.334470622574    -0.931724149249
    H            3.671344251412     1.404933760634    -1.013946028231
    H            4.284312460115    -0.055565842817    -1.809076636159
    H            4.369379658571     0.109173215160    -0.046513175768

  Mulliken Charges: (a.u.)
   Center  Symbol    Alpha    Beta     Spin     Total
       1     O     4.28736  4.28736  0.00000 -0.57472
       2     C     2.60851  2.60851  0.00000  0.78298
       3     C     3.20390  3.20390  0.00000 -0.40780
       4     O     4.30359  4.30359  0.00000 -0.60719
       5     C     3.16212  3.16212  0.00000 -0.32423
       6     H     0.40067  0.40067  0.00000  0.19866
       7     H     0.40122  0.40122  0.00000  0.19756
       8     C     3.15246  3.15246  0.00000 -0.30493
       9     H     0.41714  0.41714  0.00000  0.16571
      10     H     0.40346  0.40346  0.00000  0.19308
      11     C     3.15223  3.15223  0.00000 -0.30447
      12     H     0.42284  0.42284  0.00000  0.15432
      13     H     0.42198  0.42198  0.00000  0.15603
      14     C     3.23976  3.23976  0.00000 -0.47952
      15     H     0.42205  0.42205  0.00000  0.15590
      16     H     0.42054  0.42054  0.00000  0.15893
      17     H     0.42164  0.42164  0.00000  0.15672
      18     H     0.41825  0.41825  0.00000  0.16349
      19     H     0.42119  0.42119  0.00000  0.15763
      20     C     3.09363  3.09363  0.00000 -0.18727
      21     H     0.40853  0.40853  0.00000  0.18294
      22     H     0.40842  0.40842  0.00000  0.18316
      23     H     0.40850  0.40850  0.00000  0.18300

   Total alpha = 36.00000, Total beta = 36.00000, Total charge = -0.00000
