                              Psi4 1.0.54 Driver

  ==> Input File <==

--------------------------------------------------------------------------
set {
	reference rhf
	basis cc-pvtz
}

set_num_threads( 4 )
memory 2 gb

molecule MOL {
0 1

H	 1.167132	 -1.062462	 0.758430
O	 1.324916	 -0.612543	 -0.052205
C	 0.706642	 0.636717	 -0.025500
C	 -0.793305	 0.591140	 0.050088
H	 1.002539	 1.144879	 -0.935730
H	 1.082041	 1.237631	 0.800743
C	 -1.534075	 -0.493085	 -0.013339
H	 -1.266443	 1.552552	 0.164438
H	 -1.101027	 -1.466408	 -0.144045
H	 -2.604074	 -0.437856	 0.050786

	symmetry c1
}
ee,wfn = energy('scf', return_wfn=True)
oeprop( wfn, 'DIPOLE', 'QUADRUPOLE', 'MULLIKEN_CHARGES')
oeprop( wfn, 'GRID_ESP')
f=open( 'psi4out.xyz', 'w' )
f.write( "10  " )
f.write( str(ee) + "\n" )
f.write( MOL.save_string_xyz() )
f.close()
--------------------------------------------------------------------------

    Molecular point group: c1

    Geometry (in Angstrom), charge = 0, multiplicity = 1:

       Center              X                  Y                   Z               Mass
    ------------   -----------------  -----------------  -----------------  -----------------
           H          1.166963629160    -1.062386266293     0.758429467252     1.007825032070
           O          1.324747629160    -0.612467266293    -0.052205532748    15.994914619560
           C          0.706473629160     0.636792733707    -0.025500532748    12.000000000000
           C         -0.793473370840     0.591215733707     0.050087467252    12.000000000000
           H          1.002370629160     1.144954733707    -0.935730532748     1.007825032070
           H          1.081872629160     1.237706733707     0.800742467252     1.007825032070
           C         -1.534243370840    -0.493009266293    -0.013339532748    12.000000000000
           H         -1.266611370840     1.552627733707     0.164437467252     1.007825032070
           H         -1.101195370840    -1.466332266293    -0.144045532748     1.007825032070
           H         -2.604242370840    -0.437780266293     0.050785467252     1.007825032070

  Charge       = 0
  Multiplicity = 1
  Basis Set: CC-PVTZ
  Basis Set:

    Orbital Energies (a.u.)
    -----------------------

    Doubly Occupied:

       1A    -20.554516     2A    -11.278220     3A    -11.230508
       4A    -11.216685     5A     -1.374934     6A     -1.062306
       7A     -0.932359     8A     -0.771839     9A     -0.692415
      10A     -0.665488    11A     -0.621075    12A     -0.574235
      13A     -0.540659    14A     -0.496902    15A     -0.452507
      16A     -0.369135

  @DF-RHF Final Energy:  -191.99885575344689

   => Energetics <=

    Nuclear Repulsion Energy =            119.5433470421714333
    One-Electron Energy =                -497.4166579202656067
    Two-Electron Energy =                 185.8744551246471417
    DFT Exchange-Correlation Energy =       0.0000000000000000
    Empirical Dispersion Energy =           0.0000000000000000
    PCM Polarization Energy =               0.0000000000000000
    EFP Energy =                            0.0000000000000000
    Total Energy =                       -191.9988557534470317

  Mulliken Charges: (a.u.)
   Center  Symbol    Alpha    Beta     Spin     Total
       1     H     0.39105  0.39105  0.00000  0.21790
       2     O     4.19933  4.19933  0.00000 -0.39866
       3     C     2.95035  2.95035  0.00000  0.09929
       4     C     3.08489  3.08489  0.00000 -0.16978
       5     H     0.45342  0.45342  0.00000  0.09316
       6     H     0.46842  0.46842  0.00000  0.06316
       7     C     3.17676  3.17676  0.00000 -0.35352
       8     H     0.42330  0.42330  0.00000  0.15339
       9     H     0.42438  0.42438  0.00000  0.15124
      10     H     0.42808  0.42808  0.00000  0.14383

   Total alpha = 16.00000, Total beta = 16.00000, Total charge = -0.00000

*** Psi4 exiting successfully. Buy a developer a beer!
