  ==> Input File <==

--------------------------------------------------------------------------
set {
	reference rhf
	basis 6-31G*
}

set_num_threads( 4 )
memory 2 gb

molecule MOL {
0 1

H	 1.923844	 -3.696132	 -3.677539
C	 1.750840	 -3.316907	 -2.675537
C	 0.550860	 -2.371359	 -2.644732
H	 1.594488	 -4.170908	 -2.022495
H	 2.658316	 -2.815174	 -2.351502
C	 0.273405	 -1.814007	 -1.252333
H	 -0.339375	 -2.883930	 -2.995648
H	 0.725095	 -1.546185	 -3.333297
N	 -0.887868	 -0.946318	 -1.256767
H	 0.073710	 -2.636212	 -0.570377
H	 1.169068	 -1.309576	 -0.874557
C	 -1.217365	 -0.386708	 0.039277
H	 -0.745307	 -0.202760	 -1.913912
C	 -2.452633	 0.504241	 -0.042481
H	 -1.414604	 -1.211314	 0.719041
H	 -0.385747	 0.179003	 0.472597
C	 -3.758029	 -0.289423	 -0.010781
H	 -2.394220	 1.093569	 -0.952170
H	 -2.440793	 1.210787	 0.785871
H	 -3.816659	 -0.981993	 -0.845726
H	 -4.617837	 0.370165	 -0.069296
H	 -3.847478	 -0.867502	 0.904682

	symmetry c1
}
set optking {
	frozen_dihedral = ("
		15 12 14 18
	")
}

ee = optimize('scf')
oeprop('DIPOLE', 'QUADRUPOLE', 'MULLIKEN_CHARGES')
f=open( 'psi4out.xyz', 'w' )
f.write( "22  " )
f.write( str(ee) + "\n" )
f.write( MOL.save_string_xyz() )
f.close()
--------------------------------------------------------------------------

    Molecular point group: c1
  Charge       = 0
  Multiplicity = 1
  Basis Set: 6-31G*
  Basis Set:
  @DF-RHF Final Energy:  -290.38140545024834
    Total Energy =                       -290.3814054502482804
    Molecular point group: c1
  Basis Set: 6-31G*
  Basis Set:
  Basis Set: 6-31G*
  Basis Set:
  @DF-RHF Final Energy:  -290.38174041576207
    Total Energy =                       -290.3817404157622377
  Basis Set: 6-31G*
  Basis Set:
  Basis Set: 6-31G*
  Basis Set:
  @DF-RHF Final Energy:  -290.38181819985311
    Total Energy =                       -290.3818181998531145
  Basis Set: 6-31G*
  Basis Set:
  Basis Set: 6-31G*
  Basis Set:
  @DF-RHF Final Energy:  -290.38181942794222
    Total Energy =                       -290.3818194279427303
  Basis Set: 6-31G*
  Basis Set:
  Charge       = 0
  Multiplicity = 1
  Basis Set: 6-31G*
  Basis Set:

    Orbital Energies (a.u.)
    -----------------------

    Doubly Occupied:

       1A    -15.534343     2A    -11.238352     3A    -11.238331
       4A    -11.213998     5A    -11.213561     6A    -11.210040
       7A    -11.201269     8A     -1.205838     9A     -1.058017
      10A     -1.022231    11A     -0.925793    12A     -0.871925
      13A     -0.808574    14A     -0.792333    15A     -0.661755
      16A     -0.634073    17A     -0.612904    18A     -0.608484
      19A     -0.570105    20A     -0.564026    21A     -0.539748
      22A     -0.523396    23A     -0.502438    24A     -0.488093
      25A     -0.479230    26A     -0.473451    27A     -0.467223
      28A     -0.450360    29A     -0.358780

  @DF-RHF Final Energy:  -290.38181979332529

   => Energetics <=

    Nuclear Repulsion Energy =            316.9876240893987074
    One-Electron Energy =               -1019.8015457436521274
    Two-Electron Energy =                 412.4321018609282419
    DFT Exchange-Correlation Energy =       0.0000000000000000
    Empirical Dispersion Energy =           0.0000000000000000
    PCM Polarization Energy =               0.0000000000000000
    EFP Energy =                            0.0000000000000000
    Total Energy =                       -290.3818197933251213
    Molecular point group: c1
  Basis Set: 6-31G*
  Basis Set:

  -Total Gradient:
     Atom            X                  Y                   Z
    ------   -----------------  -----------------  -----------------
       1       -0.000001410881    -0.000002363702     0.000000721951
       2       -0.000004608580    -0.000002930821    -0.000000814193
       3        0.000007267955     0.000004867911     0.000005186433
       4        0.000001465408    -0.000000006627     0.000002052145
       5       -0.000001605297     0.000001543860    -0.000002053436
       6       -0.000017587347     0.000018998075    -0.000008029399
       7       -0.000000390827     0.000000653544    -0.000006540157
       8        0.000001551326     0.000000010910    -0.000001190211
       9        0.000020443856    -0.000034079473     0.000002094256
      10        0.000004845841    -0.000004739140     0.000001702473
      11        0.000012499212    -0.000004254521    -0.000000180575
      12        0.001052139896     0.001849495764     0.002901544706
      13       -0.000000291337    -0.000001685545     0.000022738130
      14        0.001754073395     0.002744840770     0.001525405834
      15       -0.001167159421    -0.001944158316    -0.002730621037
      16       -0.000019132620    -0.000005502979     0.000006991011
      17       -0.000016897607    -0.000018103222     0.000007519846
      18       -0.001620985487    -0.002608847100    -0.001739772944
      19        0.000002305416     0.000009651543     0.000009314707
      20        0.000004688268    -0.000007475401     0.000005352543
      21        0.000001293036     0.000000912221     0.000002839557
      22       -0.000012504203     0.000003172252    -0.000004261641

  **** Optimization is complete! (in 5 steps) ****
    Final optimized geometry and variables:
    Molecular point group: c1

    Geometry (in Angstrom), charge = 0, multiplicity = 1:

    H            2.695430320987    -2.479593198322    -2.559774673213
    C            2.529135618838    -2.102709096334    -1.555746695144
    C            1.352335135424    -1.128612105236    -1.521829792140
    H            2.350497745660    -2.956768206339    -0.908579378475
    H            3.447621411037    -1.625101961059    -1.226341299907
    C            1.083905251782    -0.574819302343    -0.126212623607
    H            0.451134585191    -1.617080955160    -1.879136499409
    H            1.548738565330    -0.303022936100    -2.203977250472
    N           -0.057155218356     0.319238370492    -0.127499646692
    H            0.864445107894    -1.397062447842     0.549505238334
    H            1.989921239308    -0.093215226723     0.256891168634
    C           -0.371066815234     0.888517250916     1.171614472536
    H            0.102376880318     1.060144111308    -0.783807733126
    C           -1.641506609415     1.738807587459     1.099728511727
    H           -0.534537944296     0.054176269312     1.847754863404
    H            0.457311715018     1.476542606164     1.575867141641
    C           -2.917345959167     0.896125055708     1.079233472948
    H           -1.612553941065     2.337520522331     0.191645825698
    H           -1.667459102016     2.429432697370     1.938082729140
    H           -2.891111973152     0.184617038524     0.261841443285
    H           -3.797816932307     1.520191106064     0.958342777733
    H           -3.032038980992     0.339559503475     2.005438611397

  Mulliken Charges: (a.u.)
   Center  Symbol    Alpha    Beta     Spin     Total
       1     H     0.41768  0.41768  0.00000  0.16464
       2     C     3.24330  3.24330  0.00000 -0.48659
       3     C     3.15570  3.15570  0.00000 -0.31140
       4     H     0.42063  0.42063  0.00000  0.15873
       5     H     0.42160  0.42160  0.00000  0.15681
       6     C     3.04614  3.04614  0.00000 -0.09229
       7     H     0.41316  0.41316  0.00000  0.17368
       8     H     0.42664  0.42664  0.00000  0.14672
       9     N     3.85690  3.85690  0.00000 -0.71380
      10     H     0.42161  0.42161  0.00000  0.15678
      11     H     0.43639  0.43639  0.00000  0.12722
      12     C     3.05468  3.05468  0.00000 -0.10936
      13     H     0.33530  0.33530  0.00000  0.32940
      14     C     3.15402  3.15402  0.00000 -0.30804
      15     H     0.42097  0.42097  0.00000  0.15806
      16     H     0.43238  0.43238  0.00000  0.13524
      17     C     3.24054  3.24054  0.00000 -0.48109
      18     H     0.42500  0.42500  0.00000  0.14999
      19     H     0.42166  0.42166  0.00000  0.15667
      20     H     0.40902  0.40902  0.00000  0.18195
      21     H     0.42226  0.42226  0.00000  0.15548
      22     H     0.42440  0.42440  0.00000  0.15119

   Total alpha = 29.00000, Total beta = 29.00000, Total charge = -0.00000
