                              Psi4 1.0.54 Driver

  ==> Input File <==

--------------------------------------------------------------------------
set {
	reference rhf
	basis cc-pvtz
}

set_num_threads( 4 )
memory 2 gb

molecule MOL {
0 1

H	 -2.498963	 -0.741158	 -0.729149
O	 -2.346257	 -0.289210	 0.080372
C	 -1.183935	 0.486039	 -0.009831
C	 0.062853	 -0.375310	 0.027457
H	 -1.178881	 1.094526	 -0.908634
H	 -1.184406	 1.155156	 0.838676
O	 0.649136	 -0.241232	 1.280351
H	 0.755837	 -0.061041	 -0.754786
H	 -0.204820	 -1.411014	 -0.170642
C	 1.794475	 -1.005368	 1.468810
H	 2.573685	 -0.735136	 0.759528
H	 2.155464	 -0.819541	 2.469730
H	 1.585538	 -2.067241	 1.362545

	symmetry c1
}
set optking {
	frozen_dihedral = ("
		8 4 3 5
	")
}

ee,wfn = optimize('scf', return_wfn=True)
oeprop( wfn, 'DIPOLE', 'QUADRUPOLE', 'MULLIKEN_CHARGES')
f=open( 'psi4out.xyz', 'w' )
f.write( "13  " )
f.write( str(ee) + "\n" )
f.write( MOL.save_string_xyz() )
f.close()
--------------------------------------------------------------------------

    Molecular point group: c1
  Charge       = 0
  Multiplicity = 1
  Basis Set: CC-PVTZ
  Basis Set:
  @DF-RHF Final Energy:  -268.05579322615540
    Total Energy =                       -268.0557932261554583
    Molecular point group: c1
  Basis Set: CC-PVTZ
  Basis Set:
  Basis Set: CC-PVTZ
  Basis Set:
  @DF-RHF Final Energy:  -268.05633292583269
    Total Energy =                       -268.0563329258328054
  Basis Set: CC-PVTZ
  Basis Set:
  Basis Set: CC-PVTZ
  Basis Set:
  @DF-RHF Final Energy:  -268.05654711683428
    Total Energy =                       -268.0565471168342242
  Basis Set: CC-PVTZ
  Basis Set:
  Basis Set: CC-PVTZ
  Basis Set:
  @DF-RHF Final Energy:  -268.05655310959133
    Total Energy =                       -268.0565531095913911
  Basis Set: CC-PVTZ
  Basis Set:
  Basis Set: CC-PVTZ
  Basis Set:
  @DF-RHF Final Energy:  -268.05655444002002
    Total Energy =                       -268.0565544400199087
  Basis Set: CC-PVTZ
  Basis Set:
  Charge       = 0
  Multiplicity = 1
  Basis Set: CC-PVTZ
  Basis Set:

    Orbital Energies (a.u.)
    -----------------------

    Doubly Occupied:

       1A    -20.553561     2A    -20.549615     3A    -11.270403
       4A    -11.268013     5A    -11.265492     6A     -1.390068
       7A     -1.365890     8A     -1.017521     9A     -0.914605
      10A     -0.843792    11A     -0.703985    12A     -0.674551
      13A     -0.664384    14A     -0.640625    15A     -0.596392
      16A     -0.567733    17A     -0.539151    18A     -0.496657
      19A     -0.480124    20A     -0.440454    21A     -0.421079

  @DF-RHF Final Energy:  -268.05655450212407

   => Energetics <=

    Nuclear Repulsion Energy =            191.2116714753329916
    One-Electron Energy =                -745.2082599189835719
    Two-Electron Energy =                 285.9400339415265080
    DFT Exchange-Correlation Energy =       0.0000000000000000
    Empirical Dispersion Energy =           0.0000000000000000
    PCM Polarization Energy =               0.0000000000000000
    EFP Energy =                            0.0000000000000000
    Total Energy =                       -268.0565545021240723
    Molecular point group: c1
  Basis Set: CC-PVTZ
  Basis Set:

  -Total Gradient:
     Atom            X                  Y                   Z
    ------   -----------------  -----------------  -----------------
       1        0.000004167829     0.000007060298     0.000004831887
       2        0.000031081487     0.000013768065     0.000006016517
       3       -0.002260830961    -0.003306649414    -0.002494379937
       4        0.002043849222     0.003016248349     0.002925183004
       5        0.001525340811     0.002244243357     0.001577871716
       6       -0.000003756454    -0.000005537992     0.000001236689
       7        0.000015243650    -0.000004961272     0.000016878213
       8       -0.001337574200    -0.001976155534    -0.002031166435
       9       -0.000008689903     0.000001295293    -0.000007558365
      10       -0.000004396749     0.000006935710     0.000003104160
      11       -0.000000541476     0.000000970773    -0.000001531407
      12        0.000000330989     0.000000655012     0.000000915198
      13       -0.000004224249     0.000002127356    -0.000001401242

  **** Optimization is complete! (in 6 steps) ****
    Final optimized geometry and variables:
    Molecular point group: c1

    Geometry (in Angstrom), charge = 0, multiplicity = 1:

    H           -2.313094886564    -0.378563858249    -1.246132645385
    O           -2.148064143128     0.097744103546    -0.453365594104
    C           -0.953188916869     0.818025435928    -0.561184028475
    C            0.299298615363    -0.054354673452    -0.532093282861
    H           -0.951960039083     1.445026871464    -1.448167108064
    H           -0.916276508460     1.478272969693     0.292527958288
    O            0.890049027592     0.008950034073     0.725247419031
    H            1.003155684290     0.260139271595    -1.302023632521
    H            0.018465410226    -1.081227735623    -0.763748939522
    C            2.012283098268    -0.796156951657     0.873151255147
    H            2.795492388316    -0.521642093786     0.169402174610
    H            2.384986326480    -0.662061738664     1.877997709310
    H            1.770694111234    -1.846449587334     0.726185861774

  Mulliken Charges: (a.u.)
   Center  Symbol    Alpha    Beta     Spin     Total
       1     H     0.39601  0.39601  0.00000  0.20798
       2     O     4.19857  4.19857  0.00000 -0.39714
       3     C     2.97112  2.97112  0.00000  0.05776
       4     C     2.96494  2.96494  0.00000  0.07011
       5     H     0.47040  0.47040  0.00000  0.05920
       6     H     0.45133  0.45133  0.00000  0.09734
       7     O     4.17053  4.17053  0.00000 -0.34106
       8     H     0.47789  0.47789  0.00000  0.04422
       9     H     0.48031  0.48031  0.00000  0.03938
      10     C     3.02999  3.02999  0.00000 -0.05999
      11     H     0.47245  0.47245  0.00000  0.05509
      12     H     0.44567  0.44567  0.00000  0.10867
      13     H     0.47079  0.47079  0.00000  0.05842

   Total alpha = 21.00000, Total beta = 21.00000, Total charge = -0.00000

*** Psi4 exiting successfully. Buy a developer a beer!
