  ==> Input File <==

--------------------------------------------------------------------------
set {
	reference rhf
	basis 6-31G*
}

set_num_threads( 4 )
memory 2 gb

molecule MOL {
0 1

H	 1.156195	 0.885591	 1.825040
O	 1.366598	 0.264196	 1.141336
C	 0.709265	 0.639550	 -0.033818
C	 -0.793441	 0.596080	 0.058728
H	 1.046815	 -0.047216	 -0.801682
H	 1.018969	 1.635324	 -0.349321
C	 -1.530462	 -0.493172	 -0.025500
H	 -1.268471	 1.554324	 0.202247
H	 -1.092586	 -1.461565	 -0.186463
H	 -2.602122	 -0.450675	 0.050101

	symmetry c1
}
set optking {
	frozen_dihedral = ("
		5 3 4 7
	")
}

ee = optimize('scf')
oeprop('DIPOLE', 'QUADRUPOLE', 'MULLIKEN_CHARGES')
f=open( 'psi4out.xyz', 'w' )
f.write( "10  " )
f.write( str(ee) + "\n" )
f.write( MOL.save_string_xyz() )
f.close()
--------------------------------------------------------------------------

    Molecular point group: c1
  Charge       = 0
  Multiplicity = 1
  Basis Set: 6-31G*
  Basis Set:
  @DF-RHF Final Energy:  -191.91204957702968
    Total Energy =                       -191.9120495770296770
    Molecular point group: c1
  Basis Set: 6-31G*
  Basis Set:
  Basis Set: 6-31G*
  Basis Set:
  @DF-RHF Final Energy:  -191.91249210464971
    Total Energy =                       -191.9124921046498002
  Basis Set: 6-31G*
  Basis Set:
  Basis Set: 6-31G*
  Basis Set:
  @DF-RHF Final Energy:  -191.91256243173581
    Total Energy =                       -191.9125624317357506
  Basis Set: 6-31G*
  Basis Set:
  Basis Set: 6-31G*
  Basis Set:
  @DF-RHF Final Energy:  -191.91257386039860
    Total Energy =                       -191.9125738603985383
  Basis Set: 6-31G*
  Basis Set:
  Basis Set: 6-31G*
  Basis Set:
  @DF-RHF Final Energy:  -191.91257510229829
    Total Energy =                       -191.9125751022982342
  Basis Set: 6-31G*
  Basis Set:
  Charge       = 0
  Multiplicity = 1
  Basis Set: 6-31G*
  Basis Set:

    Orbital Energies (a.u.)
    -----------------------

    Doubly Occupied:

       1A    -20.554196     2A    -11.274449     3A    -11.230305
       4A    -11.227446     5A     -1.360518     6A     -1.060666
       7A     -0.920727     8A     -0.778551     9A     -0.678034
      10A     -0.658853    11A     -0.606750    12A     -0.573619
      13A     -0.550571    14A     -0.476554    15A     -0.440595
      16A     -0.373064

  @DF-RHF Final Energy:  -191.91257522909842

   => Energetics <=

    Nuclear Repulsion Energy =            117.9625271318032702
    One-Electron Energy =                -494.2204072693718331
    Two-Electron Energy =                 184.3453049084700979
    DFT Exchange-Correlation Energy =       0.0000000000000000
    Empirical Dispersion Energy =           0.0000000000000000
    PCM Polarization Energy =               0.0000000000000000
    EFP Energy =                            0.0000000000000000
    Total Energy =                       -191.9125752290984792
    Molecular point group: c1
  Basis Set: 6-31G*
  Basis Set:

  -Total Gradient:
     Atom            X                  Y                   Z
    ------   -----------------  -----------------  -----------------
       1       -0.000004193255     0.000004430713     0.000002473885
       2        0.000036073666    -0.000034679856     0.000003366232
       3        0.000095110821    -0.001066837919     0.001598884458
       4       -0.000168854498     0.000349768956    -0.001883474285
       5       -0.000055877070     0.000838004597    -0.000831891564
       6       -0.000000093370    -0.000000650921    -0.000013166434
       7        0.000087602479    -0.000092866619     0.001114868553
       8        0.000009367141    -0.000002160769     0.000010570482
       9        0.000002692236     0.000006687583     0.000003037909
      10       -0.000001828153    -0.000001695765    -0.000004669237

  **** Optimization is complete! (in 6 steps) ****
    Final optimized geometry and variables:
    Molecular point group: c1

    Geometry (in Angstrom), charge = 0, multiplicity = 1:

    H            1.026588010432     0.536560525540     1.523442404476
    O            1.348498462992     0.001872265210     0.810865758090
    C            0.700132315730     0.370487011279    -0.380806389397
    C           -0.808796621463     0.347954557875    -0.275629243633
    H            1.033744470190    -0.335312216603    -1.129207671122
    H            1.030314671176     1.356325151587    -0.700057282964
    C           -1.530192368214    -0.754070984540    -0.330227133134
    H           -1.301604310858     1.293063417091    -0.107442613535
    H           -1.077308047322    -1.717838894523    -0.490145033839
    H           -2.599798328708    -0.738278845551    -0.217593289398

  Mulliken Charges: (a.u.)
   Center  Symbol    Alpha    Beta     Spin     Total
       1     H     0.28329  0.28329  0.00000  0.43342
       2     O     4.36546  4.36546  0.00000 -0.73092
       3     C     3.00329  3.00329  0.00000 -0.00658
       4     C     3.10215  3.10215  0.00000 -0.20431
       5     H     0.41087  0.41087  0.00000  0.17825
       6     H     0.42744  0.42744  0.00000  0.14512
       7     C     3.18118  3.18118  0.00000 -0.36236
       8     H     0.40957  0.40957  0.00000  0.18085
       9     H     0.40726  0.40726  0.00000  0.18548
      10     H     0.40948  0.40948  0.00000  0.18105

   Total alpha = 16.00000, Total beta = 16.00000, Total charge =  0.00000
