  ==> Input File <==

--------------------------------------------------------------------------
set {
	reference rhf
	basis cc-pvtz
}

set_num_threads( 4 )
memory 2 gb

molecule MOL {
0 1

H	 -3.162190	 0.493205	 -0.000107
C	 -2.363908	 -0.234727	 0.000005
O	 -1.158738	 0.454634	 -0.000087
H	 -2.464314	 -0.863616	 -0.882153
H	 -2.464327	 -0.863359	 0.882345
C	 -0.028611	 -0.359694	 0.000037
C	 0.807937	 -0.052807	 -1.225687
H	 -0.324001	 -1.409162	 0.000186
H	 0.554701	 -0.189560	 0.905268
C	 2.068748	 -0.906823	 -1.298930
H	 0.198130	 -0.210501	 -2.108407
H	 1.069884	 0.999383	 -1.210486
H	 1.828388	 -1.964017	 -1.339595
H	 2.646691	 -0.667319	 -2.183035
H	 2.706102	 -0.745830	 -0.435837

	symmetry c1
}
set optking {
	frozen_dihedral = ("
		8 6 3 2
	")
}

ee = optimize('scf')
oeprop('DIPOLE', 'QUADRUPOLE', 'MULLIKEN_CHARGES')
f=open( 'psi4out.xyz', 'w' )
f.write( "15  " )
f.write( str(ee) + "\n" )
f.write( MOL.save_string_xyz() )
f.close()
--------------------------------------------------------------------------

    Molecular point group: c1
  Charge       = 0
  Multiplicity = 1
  Basis Set: CC-PVTZ
  Basis Set:
  @DF-RHF Final Energy:  -232.22395461390738
    Total Energy =                       -232.2239546139073241
    Molecular point group: c1
  Basis Set: CC-PVTZ
  Basis Set:
  Basis Set: CC-PVTZ
  Basis Set:
  @DF-RHF Final Energy:  -232.22433627923343
    Total Energy =                       -232.2243362792335688
  Basis Set: CC-PVTZ
  Basis Set:
  Basis Set: CC-PVTZ
  Basis Set:
  @DF-RHF Final Energy:  -232.22443689512497
    Total Energy =                       -232.2244368951248816
  Basis Set: CC-PVTZ
  Basis Set:
  Basis Set: CC-PVTZ
  Basis Set:
  @DF-RHF Final Energy:  -232.22443794558029
    Total Energy =                       -232.2244379455803482
  Basis Set: CC-PVTZ
  Basis Set:
  Charge       = 0
  Multiplicity = 1
  Basis Set: CC-PVTZ
  Basis Set:

    Orbital Energies (a.u.)
    -----------------------

    Doubly Occupied:

       1A    -20.544092     2A    -11.264009     3A    -11.262516
       4A    -11.212827     5A    -11.210958     6A     -1.376749
       7A     -1.057497     8A     -0.957166     9A     -0.879167
      10A     -0.808760    11A     -0.671387    12A     -0.654612
      13A     -0.636736    14A     -0.601510    15A     -0.568807
      16A     -0.538719    17A     -0.506413    18A     -0.494264
      19A     -0.482033    20A     -0.463216    21A     -0.407315

  @DF-RHF Final Energy:  -232.22443803881018

   => Energetics <=

    Nuclear Repulsion Energy =            190.2663934562828842
    One-Electron Energy =                -691.7841559791220334
    Two-Electron Energy =                 269.2933244840288580
    DFT Exchange-Correlation Energy =       0.0000000000000000
    Empirical Dispersion Energy =           0.0000000000000000
    PCM Polarization Energy =               0.0000000000000000
    EFP Energy =                            0.0000000000000000
    Total Energy =                       -232.2244380388102627
    Molecular point group: c1
  Basis Set: CC-PVTZ
  Basis Set:

  -Total Gradient:
     Atom            X                  Y                   Z
    ------   -----------------  -----------------  -----------------
       1        0.000006696096    -0.000001303841    -0.000000567927
       2       -0.000027990845    -0.000013714063    -0.000461673135
       3        0.000065306780    -0.000006204558     0.000818004852
       4        0.000000469953     0.000002044501     0.000004031712
       5       -0.000000361046     0.000000949097    -0.000002319326
       6       -0.000062933897     0.000043011795    -0.000923880112
       7       -0.000003998195    -0.000012404157     0.000007257393
       8        0.000012452536    -0.000019022059     0.000564193808
       9        0.000001250409     0.000000531854     0.000002424652
      10        0.000004316955     0.000009387599    -0.000004113232
      11       -0.000001783709     0.000001934219    -0.000001316367
      12        0.000000637922    -0.000002821592    -0.000000133799
      13       -0.000000892513     0.000004016867    -0.000000025692
      14        0.000006323172    -0.000003475253    -0.000001770835
      15        0.000000506381    -0.000002930407    -0.000000111990

  **** Optimization is complete! (in 5 steps) ****
    Final optimized geometry and variables:
    Molecular point group: c1

    Geometry (in Angstrom), charge = 0, multiplicity = 1:

    H           -3.002231824302     0.770438661974     0.525508879495
    C           -2.229710820459     0.014756767954     0.523782962535
    O           -1.002552771089     0.665941997589     0.505437895393
    H           -2.364117148754    -0.615915714863    -0.352136481077
    H           -2.346062613530    -0.601301292138     1.412558155232
    C            0.131154947585    -0.153812311162     0.466586103976
    C            0.982864165086     0.165672299718    -0.749323954392
    H           -0.155364311169    -1.202512638782     0.457064684500
    H            0.705455895891     0.009055709551     1.374589830196
    C            2.264206978027    -0.659283142231    -0.797782783979
    H            0.394248700493    -0.006350905581    -1.644961472134
    H            1.220333578984     1.223720424230    -0.732234443383
    H            2.049262012360    -1.722149227802    -0.840256092594
    H            2.854641371519    -0.408706685913    -1.670652326459
    H            2.879899786969    -0.482210825900     0.077833159700

  Mulliken Charges: (a.u.)
   Center  Symbol    Alpha    Beta     Spin     Total
       1     H     0.44952  0.44952  0.00000  0.10096
       2     C     3.03124  3.03124  0.00000 -0.06248
       3     O     4.17960  4.17960  0.00000 -0.35919
       4     H     0.47295  0.47295  0.00000  0.05410
       5     H     0.46967  0.46967  0.00000  0.06065
       6     C     2.96745  2.96745  0.00000  0.06510
       7     C     3.07834  3.07834  0.00000 -0.15669
       8     H     0.47451  0.47451  0.00000  0.05099
       9     H     0.45767  0.45767  0.00000  0.08466
      10     C     3.15510  3.15510  0.00000 -0.31021
      11     H     0.45574  0.45574  0.00000  0.08851
      12     H     0.45057  0.45057  0.00000  0.09886
      13     H     0.45602  0.45602  0.00000  0.08795
      14     H     0.44660  0.44660  0.00000  0.10680
      15     H     0.45501  0.45501  0.00000  0.08999

   Total alpha = 21.00000, Total beta = 21.00000, Total charge = -0.00000
