  ==> Input File <==

--------------------------------------------------------------------------
set {
	reference rhf
	basis 6-31G*
}

set_num_threads( 4 )
memory 2 gb

molecule MOL {
0 1

H	 -2.224295	 -0.699717	 0.289705
O	 -1.422729	 -0.573567	 -0.196946
C	 -0.731407	 0.539437	 0.309156
C	 0.680193	 0.672443	 -0.251532
H	 -1.319765	 1.404033	 0.030086
H	 -0.700012	 0.506517	 1.397677
C	 1.599139	 -0.492137	 0.118598
H	 0.616402	 0.758534	 -1.332349
H	 1.107032	 1.602637	 0.117369
H	 1.239738	 -1.428634	 -0.297334
H	 2.601428	 -0.335055	 -0.265730
H	 1.674954	 -0.608418	 1.197020

	symmetry c1
}
set optking {
	frozen_dihedral = ("
		1 2 3 4
	")
}

ee = optimize('scf')
oeprop('DIPOLE', 'QUADRUPOLE', 'MULLIKEN_CHARGES')
f=open( 'psi4out.xyz', 'w' )
f.write( "12  " )
f.write( str(ee) + "\n" )
f.write( MOL.save_string_xyz() )
f.close()
--------------------------------------------------------------------------

    Molecular point group: c1
  Charge       = 0
  Multiplicity = 1
  Basis Set: 6-31G*
  Basis Set:
  @DF-RHF Final Energy:  -193.10859336826658
    Total Energy =                       -193.1085933682665541
    Molecular point group: c1
  Basis Set: 6-31G*
  Basis Set:
  Basis Set: 6-31G*
  Basis Set:
  @DF-RHF Final Energy:  -193.11009795112187
    Total Energy =                       -193.1100979511219862
  Basis Set: 6-31G*
  Basis Set:
  Basis Set: 6-31G*
  Basis Set:
  @DF-RHF Final Energy:  -193.11050502246579
    Total Energy =                       -193.1105050224657873
  Basis Set: 6-31G*
  Basis Set:
  Basis Set: 6-31G*
  Basis Set:
  @DF-RHF Final Energy:  -193.11051129789365
    Total Energy =                       -193.1105112978935949
  Basis Set: 6-31G*
  Basis Set:
  Basis Set: 6-31G*
  Basis Set:
  @DF-RHF Final Energy:  -193.11051352117858
    Total Energy =                       -193.1105135211786035
  Basis Set: 6-31G*
  Basis Set:
  Charge       = 0
  Multiplicity = 1
  Basis Set: 6-31G*
  Basis Set:

    Orbital Energies (a.u.)
    -----------------------

    Doubly Occupied:

       1A    -20.553265     2A    -11.268244     3A    -11.214303
       4A    -11.202885     5A     -1.360055     6A     -1.046382
       7A     -0.917850     8A     -0.797634     9A     -0.705497
      10A     -0.641637    11A     -0.585336    12A     -0.580619
      13A     -0.532543    14A     -0.497751    15A     -0.482703
      16A     -0.464325    17A     -0.433247

  @DF-RHF Final Energy:  -193.11051439014892

   => Energetics <=

    Nuclear Repulsion Energy =            133.3245721916271123
    One-Electron Energy =                -526.3016205903123819
    Two-Electron Energy =                 199.8665340085363482
    DFT Exchange-Correlation Energy =       0.0000000000000000
    Empirical Dispersion Energy =           0.0000000000000000
    PCM Polarization Energy =               0.0000000000000000
    EFP Energy =                            0.0000000000000000
    Total Energy =                       -193.1105143901489214
    Molecular point group: c1
  Basis Set: 6-31G*
  Basis Set:

  -Total Gradient:
     Atom            X                  Y                   Z
    ------   -----------------  -----------------  -----------------
       1        0.000312565737    -0.000390164447     0.000410373653
       2       -0.000346459088     0.000397046082    -0.000396555226
       3       -0.000113918950     0.000182442599    -0.000339858479
       4        0.000151498789    -0.000199680560     0.000329146508
       5        0.000004236920    -0.000012488677     0.000001305099
       6       -0.000000311702     0.000016813924     0.000002324079
       7       -0.000000146533     0.000013903413     0.000004969266
       8       -0.000022449247    -0.000000919229     0.000004656427
       9        0.000029129696     0.000000924941    -0.000010122235
      10       -0.000008832559    -0.000005716269    -0.000016451179
      11       -0.000008768552    -0.000003358651     0.000005201315
      12        0.000003455488     0.000001196874     0.000005010772

  **** Optimization is complete! (in 6 steps) ****
    Final optimized geometry and variables:
    Molecular point group: c1

    Geometry (in Angstrom), charge = 0, multiplicity = 1:

    H           -2.152090985290    -0.767981306438     0.228800308103
    O           -1.341320497356    -0.592035673681    -0.226378670655
    C           -0.725638587138     0.545981585473     0.322101235208
    C            0.677615308815     0.662876591073    -0.248622363631
    H           -1.298629790350     1.439739961881     0.082160007556
    H           -0.676548296115     0.468590709036     1.407588350869
    C            1.581916233539    -0.508734183257     0.129740775995
    H            0.601772962162     0.736812377406    -1.329679930247
    H            1.111359560196     1.596336865893     0.102926837841
    H            1.171290011897    -1.444365825211    -0.229291267726
    H            2.572277431163    -0.386640139387    -0.297748545671
    H            1.694498134791    -0.582713317593     1.208336492728

  Mulliken Charges: (a.u.)
   Center  Symbol    Alpha    Beta     Spin     Total
       1     H     0.28046  0.28046  0.00000  0.43909
       2     O     4.36960  4.36960  0.00000 -0.73921
       3     C     2.99640  2.99640  0.00000  0.00721
       4     C     3.15897  3.15897  0.00000 -0.31795
       5     H     0.42892  0.42892  0.00000  0.14216
       6     H     0.43331  0.43331  0.00000  0.13339
       7     C     3.24166  3.24166  0.00000 -0.48332
       8     H     0.41417  0.41417  0.00000  0.17167
       9     H     0.42352  0.42352  0.00000  0.15296
      10     H     0.40654  0.40654  0.00000  0.18692
      11     H     0.42085  0.42085  0.00000  0.15830
      12     H     0.42561  0.42561  0.00000  0.14878

   Total alpha = 17.00000, Total beta = 17.00000, Total charge = -0.00000
