  ==> Input File <==

--------------------------------------------------------------------------
set {
	reference rhf
	basis cc-pvtz
}

set_num_threads( 4 )
memory 2 gb

molecule MOL {
0 1

O	 -2.374409	 1.338660	 -0.336961
C	 -2.104891	 0.204655	 -0.107126
C	 -0.881910	 -0.448129	 -0.720509
C	 -2.949910	 -0.638219	 0.818225
C	 0.366382	 0.419400	 -0.515563
H	 -1.071012	 -0.568050	 -1.779740
H	 -0.723290	 -1.430585	 -0.288669
C	 1.614447	 -0.204738	 -1.136280
H	 0.176267	 1.394850	 -0.945194
H	 0.535552	 0.572903	 0.547507
C	 2.901892	 0.590259	 -0.911841
H	 1.454770	 -0.334961	 -2.203765
H	 1.747639	 -1.201548	 -0.724901
C	 2.939892	 1.950545	 -1.603980
H	 3.736443	 -0.005336	 -1.268349
H	 3.059961	 0.723167	 0.155250
H	 2.778690	 1.848177	 -2.672214
H	 3.902931	 2.426643	 -1.460251
H	 2.183979	 2.624140	 -1.219084
H	 -3.440322	 -1.417144	 0.243099
H	 -3.694377	 -0.025850	 1.303346
H	 -2.331085	 -1.129829	 1.560495

	symmetry c1
}
set optking {
	frozen_dihedral = ("
		6 3 2 1
	")
}

ee = optimize('scf')
oeprop('DIPOLE', 'QUADRUPOLE', 'MULLIKEN_CHARGES')
f=open( 'psi4out.xyz', 'w' )
f.write( "22  " )
f.write( str(ee) + "\n" )
f.write( MOL.save_string_xyz() )
f.close()
--------------------------------------------------------------------------

    Molecular point group: c1
  Charge       = 0
  Multiplicity = 1
  Basis Set: CC-PVTZ
  Basis Set:
  @DF-RHF Final Energy:  -348.22311990045642
    Total Energy =                       -348.2231199004560267
    Molecular point group: c1
  Basis Set: CC-PVTZ
  Basis Set:
  Basis Set: CC-PVTZ
  Basis Set:
  @DF-RHF Final Energy:  -348.22243233080457
    Total Energy =                       -348.2224323308048497
  Basis Set: CC-PVTZ
  Basis Set:
  Basis Set: CC-PVTZ
  Basis Set:
  @DF-RHF Final Energy:  -348.22351427200744
    Total Energy =                       -348.2235142720076055
  Basis Set: CC-PVTZ
  Basis Set:
  Basis Set: CC-PVTZ
  Basis Set:
  @DF-RHF Final Energy:  -348.22359821160723
    Total Energy =                       -348.2235982116079640
  Basis Set: CC-PVTZ
  Basis Set:
  Basis Set: CC-PVTZ
  Basis Set:
  @DF-RHF Final Energy:  -348.22349300550826
    Total Energy =                       -348.2234930055084874
  Basis Set: CC-PVTZ
  Basis Set:
  Basis Set: CC-PVTZ
  Basis Set:
  @DF-RHF Final Energy:  -348.22362435423901
    Total Energy =                       -348.2236243542397460
  Basis Set: CC-PVTZ
  Basis Set:
  Basis Set: CC-PVTZ
  Basis Set:
  @DF-RHF Final Energy:  -348.22362536057119
    Total Energy =                       -348.2236253605710203
  Basis Set: CC-PVTZ
  Basis Set:
  Charge       = 0
  Multiplicity = 1
  Basis Set: CC-PVTZ
  Basis Set:

    Orbital Energies (a.u.)
    -----------------------

    Doubly Occupied:

       1A    -20.537245     2A    -11.320498     3A    -11.228705
       4A    -11.227479     5A    -11.220202     6A    -11.217207
       7A    -11.216008     8A    -11.206535     9A     -1.397939
      10A     -1.093394    11A     -1.043684    12A     -1.002020
      13A     -0.936584    14A     -0.855577    15A     -0.783694
      16A     -0.733100    17A     -0.662661    18A     -0.646555
      19A     -0.626756    20A     -0.621110    21A     -0.598341
      22A     -0.582423    23A     -0.564042    24A     -0.546105
      25A     -0.530411    26A     -0.513779    27A     -0.500520
      28A     -0.486167    29A     -0.468362    30A     -0.462193
      31A     -0.458919    32A     -0.399447

  @DF-RHF Final Energy:  -348.22362505615399

   => Energetics <=

    Nuclear Repulsion Energy =            373.1738346485633429
    One-Electron Energy =               -1211.4195915064542532
    Two-Electron Energy =                 490.0221318017366343
    DFT Exchange-Correlation Energy =       0.0000000000000000
    Empirical Dispersion Energy =           0.0000000000000000
    PCM Polarization Energy =               0.0000000000000000
    EFP Energy =                            0.0000000000000000
    Total Energy =                       -348.2236250561542761
    Molecular point group: c1
  Basis Set: CC-PVTZ
  Basis Set:

  -Total Gradient:
     Atom            X                  Y                   Z
    ------   -----------------  -----------------  -----------------
       1       -0.000430524323    -0.000268113323    -0.000705854984
       2        0.000700521848     0.000577237474     0.000961922062
       3       -0.000561348129    -0.001063950061    -0.000105617776
       4       -0.000025044078    -0.000032382829    -0.000046838356
       5        0.000020107745     0.000010740980     0.000026225844
       6        0.000324807820     0.000756797116    -0.000143684270
       7       -0.000016130007     0.000013761130    -0.000016856355
       8       -0.000020778639     0.000010843401    -0.000050664051
       9       -0.000004980065    -0.000050527947     0.000009355095
      10       -0.000002203584     0.000022020763     0.000012625647
      11       -0.000038347062     0.000034980280     0.000051655958
      12       -0.000008076931     0.000004746727    -0.000021221765
      13       -0.000010712435    -0.000001483175    -0.000005108188
      14        0.000020444714     0.000001690136    -0.000010266659
      15       -0.000012557934    -0.000010163532     0.000008084640
      16        0.000001844061     0.000012588103     0.000009214407
      17       -0.000006115811     0.000004313593    -0.000007885479
      18        0.000003506110    -0.000003946925    -0.000007676891
      19        0.000033276700    -0.000007765640    -0.000002226433
      20        0.000004175201    -0.000000259679     0.000018273234
      21        0.000017718097    -0.000004332179    -0.000005433619
      22        0.000010416699    -0.000006794411     0.000031977938

  **** Optimization is complete! (in 8 steps) ****
    Final optimized geometry and variables:
    Molecular point group: c1

    Geometry (in Angstrom), charge = 0, multiplicity = 1:

    O           -2.328329881275     0.922731979763     0.222671198775
    C           -2.047840654040    -0.203644082208     0.474645667448
    C           -0.807482842320    -0.854063801587    -0.113765284511
    C           -2.916368774674    -1.054926238257     1.367738569027
    C            0.446767294169     0.001910839171     0.066546896363
    H           -1.004560074634    -0.985126207641    -1.174380543803
    H           -0.661866842739    -1.841220203602     0.309571061449
    C            1.673356244409    -0.616751434653    -0.599963209738
    H            0.247222582065     0.985791432000    -0.333876249249
    H            0.642093689980     0.132264769980     1.128269100458
    C            2.973513640035     0.158817071186    -0.381181467444
    H            1.489984565481    -0.713549669878    -1.667717804919
    H            1.807343483586    -1.627126054035    -0.222571047031
    C            3.009786786206     1.537958660363    -1.034975546434
    H            3.794773784460    -0.433954191454    -0.771924384899
    H            3.154824242532     0.260137274515     0.685630255454
    H            2.826223921178     1.467479594277    -2.102291803648
    H            3.979837255989     2.001696370725    -0.897621145012
    H            2.267522551903     2.205908736080    -0.615646164098
    H           -3.220303254538    -1.953526408623     0.841113077352
    H           -3.786666336212    -0.499716505949     1.682012948197
    H           -2.347674540086    -1.371128814747     2.236345080137

  Mulliken Charges: (a.u.)
   Center  Symbol    Alpha    Beta     Spin     Total
       1     O     4.17528  4.17528  0.00000 -0.35055
       2     C     2.85887  2.85887  0.00000  0.28227
       3     C     3.10474  3.10474  0.00000 -0.20948
       4     C     3.15292  3.15292  0.00000 -0.30584
       5     C     3.09524  3.09524  0.00000 -0.19048
       6     H     0.44323  0.44323  0.00000  0.11354
       7     H     0.44623  0.44623  0.00000  0.10754
       8     C     3.09666  3.09666  0.00000 -0.19332
       9     H     0.43619  0.43619  0.00000  0.12762
      10     H     0.45361  0.45361  0.00000  0.09279
      11     C     3.09047  3.09047  0.00000 -0.18094
      12     H     0.45292  0.45292  0.00000  0.09416
      13     H     0.45002  0.45002  0.00000  0.09997
      14     C     3.15207  3.15207  0.00000 -0.30414
      15     H     0.44831  0.44831  0.00000  0.10337
      16     H     0.45458  0.45458  0.00000  0.09084
      17     H     0.45469  0.45469  0.00000  0.09061
      18     H     0.44671  0.44671  0.00000  0.10659
      19     H     0.45119  0.45119  0.00000  0.09763
      20     H     0.44945  0.44945  0.00000  0.10111
      21     H     0.43642  0.43642  0.00000  0.12716
      22     H     0.45022  0.45022  0.00000  0.09956

   Total alpha = 32.00000, Total beta = 32.00000, Total charge = -0.00000
