                              Psi4 1.0.54 Driver

  ==> Input File <==

--------------------------------------------------------------------------
set {
	reference rhf
	basis cc-pvtz
}

set_num_threads( 4 )
memory 2 gb

molecule MOL {
0 1

H	 2.636755	 1.359791	 -1.712704
O	 3.146662	 0.814319	 -2.282164
C	 3.379237	 -0.432099	 -1.680811
C	 2.146091	 -1.321898	 -1.632904
H	 4.146403	 -0.908683	 -2.276044
H	 3.784007	 -0.300535	 -0.679161
C	 1.022879	 -0.789937	 -0.745627
H	 1.778865	 -1.458061	 -2.645703
H	 2.454416	 -2.301121	 -1.274496
C	 -0.184546	 -1.725092	 -0.696142
H	 0.710885	 0.184116	 -1.107405
H	 1.401157	 -0.642233	 0.264510
C	 -1.311023	 -1.277304	 0.237018
H	 -0.579896	 -1.850986	 -1.701168
H	 0.153132	 -2.708012	 -0.379423
C	 -2.041121	 -0.006551	 -0.194127
H	 -2.035193	 -2.084125	 0.308757
H	 -0.912675	 -1.140432	 1.239884
C	 -3.489218	 0.042606	 0.286507
H	 -2.022185	 0.066287	 -1.279394
H	 -1.518764	 0.869305	 0.178730
C	 -4.219984	 1.311773	 -0.139038
H	 -4.022855	 -0.824300	 -0.093339
H	 -3.510372	 -0.038577	 1.370031
H	 -4.244251	 1.405725	 -1.219696
H	 -5.244345	 1.313233	 0.215630
H	 -3.732090	 2.196311	 0.257073

	symmetry c1
}
set optking {
	frozen_dihedral = ("
		10 13 16 20
	")
}

ee,wfn = optimize('scf', return_wfn=True)
oeprop( wfn, 'DIPOLE', 'QUADRUPOLE', 'MULLIKEN_CHARGES')
f=open( 'psi4out.xyz', 'w' )
f.write( "27  " )
f.write( str(ee) + "\n" )
f.write( MOL.save_string_xyz() )
f.close()
--------------------------------------------------------------------------

    Molecular point group: c1
  Charge       = 0
  Multiplicity = 1
  Basis Set: CC-PVTZ
  Basis Set:
  @DF-RHF Final Energy:  -388.42593182072824
    Total Energy =                       -388.4259318207282377
    Molecular point group: c1
  Basis Set: CC-PVTZ
  Basis Set:
  Basis Set: CC-PVTZ
  Basis Set:
  @DF-RHF Final Energy:  -388.42605052577284
    Total Energy =                       -388.4260505257723253
  Basis Set: CC-PVTZ
  Basis Set:
  Basis Set: CC-PVTZ
  Basis Set:
  @DF-RHF Final Energy:  -388.42617244135010
    Total Energy =                       -388.4261724413499905
  Basis Set: CC-PVTZ
  Basis Set:
  Basis Set: CC-PVTZ
  Basis Set:
  @DF-RHF Final Energy:  -388.42618609093381
    Total Energy =                       -388.4261860909339248
  Basis Set: CC-PVTZ
  Basis Set:
  Basis Set: CC-PVTZ
  Basis Set:
  @DF-RHF Final Energy:  -388.42619219185229
    Total Energy =                       -388.4261921918528060
  Basis Set: CC-PVTZ
  Basis Set:
  Charge       = 0
  Multiplicity = 1
  Basis Set: CC-PVTZ
  Basis Set:

    Orbital Energies (a.u.)
    -----------------------

    Doubly Occupied:

       1A    -20.545205     2A    -11.264878     3A    -11.216612
       4A    -11.214702     5A    -11.214275     6A    -11.213160
       7A    -11.213046     8A    -11.212067     9A    -11.207223
      10A     -1.363113    11A     -1.096036    12A     -1.062259
      13A     -1.012588    14A     -0.948760    15A     -0.888880
      16A     -0.821006    17A     -0.803214    18A     -0.777260
      19A     -0.696047    20A     -0.654772    21A     -0.633128
      22A     -0.616911    23A     -0.603763    24A     -0.585496
      25A     -0.579667    26A     -0.553929    27A     -0.539383
      28A     -0.533250    29A     -0.506136    30A     -0.495700
      31A     -0.484587    32A     -0.474059    33A     -0.471820
      34A     -0.458037    35A     -0.452795    36A     -0.443134
      37A     -0.425123

  @DF-RHF Final Energy:  -388.42619265421223

   => Energetics <=

    Nuclear Repulsion Energy =            460.4652787376027732
    One-Electron Energy =               -1439.2188929467074558
    Two-Electron Energy =                 590.3274215548923394
    DFT Exchange-Correlation Energy =       0.0000000000000000
    Empirical Dispersion Energy =           0.0000000000000000
    PCM Polarization Energy =               0.0000000000000000
    EFP Energy =                            0.0000000000000000
    Total Energy =                       -388.4261926542122865
    Molecular point group: c1
  Basis Set: CC-PVTZ
  Basis Set:

  -Total Gradient:
     Atom            X                  Y                   Z
    ------   -----------------  -----------------  -----------------
       1        0.000000407459    -0.000000166668     0.000003858070
       2       -0.000005366270     0.000006338914    -0.000011672834
       3       -0.000002329425    -0.000008342559     0.000016838420
       4        0.000004255011    -0.000000894565    -0.000001037411
       5       -0.000003910093     0.000000583238     0.000000138653
       6       -0.000000820892    -0.000001245969    -0.000002717059
       7        0.000002229563     0.000004996089     0.000002086126
       8       -0.000002836688     0.000000418441     0.000005138756
       9        0.000000974427     0.000000117214    -0.000000584962
      10       -0.001690647246    -0.001466840135    -0.001420051033
      11        0.000007252129    -0.000007626017    -0.000002381891
      12        0.000002204724     0.000000094637     0.000000526904
      13        0.003136005698     0.002517954055     0.002061708025
      14        0.000000551446    -0.000005204416     0.000003201920
      15       -0.000002657401     0.000012337789    -0.000007036074
      16       -0.004514859386    -0.002877386167    -0.000881413785
      17        0.000005399842     0.000010317278    -0.000001450375
      18       -0.000000762654    -0.000006201951     0.000004748959
      19        0.000000017145     0.000001216991    -0.000012183284
      20        0.003062916705     0.001817183174     0.000238740905
      21       -0.000008675074    -0.000003841001     0.000005152529
      22       -0.000002506586     0.000005090276     0.000006859565
      23        0.000010864470     0.000010975114     0.000003419729
      24        0.000001801425     0.000000262944    -0.000014365265
      25        0.000000503299    -0.000004409123     0.000009941615
      26        0.000003818375     0.000005478872    -0.000000204689
      27       -0.000003829998    -0.000011206456    -0.000007261511

  **** Optimization is complete! (in 6 steps) ****
    Final optimized geometry and variables:
    Molecular point group: c1

    Geometry (in Angstrom), charge = 0, multiplicity = 1:

    H            2.690958534801     1.716896175962    -0.936509900998
    O            3.218694390036     1.181397749044    -1.498972179772
    C            3.487321288416    -0.051140447889    -0.884340740518
    C            2.279996349412    -0.974866100118    -0.825154102757
    H            4.267310548207    -0.512069028368    -1.475190270886
    H            3.888918247487     0.102992616189     0.115325479545
    C            1.140894412229    -0.462856717362     0.053117479419
    H            1.918273003881    -1.135473324595    -1.836300709994
    H            2.615315881524    -1.939913083902    -0.452764232473
    C           -0.038093510727    -1.431892742251     0.123442884091
    H            0.795359520041     0.494182905620    -0.324995194837
    H            1.514578908150    -0.283793601637     1.059845932203
    C           -1.185182015324    -0.974507544296     1.024849426139
    H           -0.422137705758    -1.601517086017    -0.879206394637
    H            0.321819655548    -2.393677227582     0.478262296814
    C           -1.900509835729     0.298972191404     0.557652347889
    H           -1.909607263930    -1.783019743883     1.070062678783
    H           -0.824633350980    -0.839888928251     2.041064365619
    C           -3.347724864061     0.391350498079     1.030190720538
    H           -1.857183716662     0.367177176444    -0.526740002168
    H           -1.360411302717     1.171044628508     0.917418946591
    C           -4.032507292494     1.690730138860     0.620813249847
    H           -3.907065349074    -0.451647713179     0.634263735113
    H           -3.377151833353     0.293504607564     2.112308381026
    H           -4.042505128882     1.804182988960    -0.458215199597
    H           -5.059863162674     1.719117224688     0.965372228000
    H           -3.520351513771     2.551709493530     1.037363419588

  Mulliken Charges: (a.u.)
   Center  Symbol    Alpha    Beta     Spin     Total
       1     H     0.39220  0.39220  0.00000  0.21561
       2     O     4.20567  4.20567  0.00000 -0.41134
       3     C     2.97980  2.97980  0.00000  0.04039
       4     C     3.08998  3.08998  0.00000 -0.17996
       5     H     0.44859  0.44859  0.00000  0.10282
       6     H     0.46977  0.46977  0.00000  0.06046
       7     C     3.10092  3.10092  0.00000 -0.20184
       8     H     0.45082  0.45082  0.00000  0.09835
       9     H     0.45497  0.45497  0.00000  0.09005
      10     C     3.09913  3.09913  0.00000 -0.19827
      11     H     0.45489  0.45489  0.00000  0.09023
      12     H     0.45376  0.45376  0.00000  0.09247
      13     C     3.09866  3.09866  0.00000 -0.19733
      14     H     0.45177  0.45177  0.00000  0.09646
      15     H     0.44805  0.44805  0.00000  0.10389
      16     C     3.09305  3.09305  0.00000 -0.18610
      17     H     0.44911  0.44911  0.00000  0.10177
      18     H     0.45164  0.45164  0.00000  0.09673
      19     C     3.08323  3.08323  0.00000 -0.16646
      20     H     0.45233  0.45233  0.00000  0.09533
      21     H     0.45458  0.45458  0.00000  0.09084
      22     C     3.15015  3.15015  0.00000 -0.30029
      23     H     0.45412  0.45412  0.00000  0.09175
      24     H     0.45421  0.45421  0.00000  0.09157
      25     H     0.45476  0.45476  0.00000  0.09048
      26     H     0.44832  0.44832  0.00000  0.10335
      27     H     0.45549  0.45549  0.00000  0.08901

   Total alpha = 37.00000, Total beta = 37.00000, Total charge = -0.00000

*** Psi4 exiting successfully. Buy a developer a beer!
