  ==> Input File <==

--------------------------------------------------------------------------
set {
	reference rhf
	basis 6-31G*
}

set_num_threads( 1 )
memory 2 gb

molecule MOL {
0 1

H	 2.591676	 2.013956	 0.335017
O	 3.341076	 1.666752	 -0.126416
C	 3.569581	 0.339145	 0.272707
C	 2.539767	 -0.640285	 -0.279495
H	 4.553106	 0.084646	 -0.100901
H	 3.608576	 0.269204	 1.359154
C	 3.129198	 -1.706362	 -1.206275
H	 2.037743	 -1.120522	 0.556394
H	 1.784555	 -0.070319	 -0.818159
C	 2.063352	 -2.640198	 -1.786569
H	 3.863220	 -2.290055	 -0.657751
H	 3.662044	 -1.220774	 -2.023967
C	 2.589668	 -3.673907	 -2.788954
H	 1.556209	 -3.154440	 -0.972192
H	 1.305870	 -2.035783	 -2.281142
C	 3.525865	 -4.729597	 -2.194368
H	 1.737188	 -4.179776	 -3.237496
H	 3.097423	 -3.158933	 -3.603095
C	 3.939680	 -5.798292	 -3.208314
H	 3.035129	 -5.209120	 -1.348586
H	 4.420990	 -4.255792	 -1.798690
C	 4.879329	 -6.849725	 -2.619067
H	 3.050007	 -6.287978	 -3.598415
H	 4.421522	 -5.320108	 -4.058639
H	 4.413627	 -7.369003	 -1.786183
H	 5.152670	 -7.593609	 -3.361063
H	 5.796036	 -6.395827	 -2.253023

	symmetry c1
}
set optking {
	frozen_dihedral = ("
		14 10 7 4,
		14 10 13 16,
		10 7 4 8,
		10 13 16 20,
		20 16 19 22,
		4 3 2 1
	")
}

ee = energy('scf')
oeprop('DIPOLE', 'QUADRUPOLE', 'MULLIKEN_CHARGES')
f=open( 'psi4out.xyz', 'w' )
f.write( "27  " )
f.write( str(ee) + "\n" )
f.write( MOL.save_string_xyz() )
f.close()
--------------------------------------------------------------------------

    Molecular point group: c1

    Geometry (in Angstrom), charge = 0, multiplicity = 1:

       Center              X                  Y                   Z               Mass
    ------------   -----------------  -----------------  -----------------  -----------------
           H         -0.703615521400     4.622567535539     1.853636974651     1.007825032070
           O          0.045784478600     4.275363535539     1.392203974651    15.994914619560
           C          0.274289478600     2.947756535539     1.791326974651    12.000000000000
           C         -0.755524521400     1.968326535539     1.239124974651    12.000000000000
           H          1.257814478600     2.693257535539     1.417718974651     1.007825032070
           H          0.313284478600     2.877815535539     2.877773974651     1.007825032070
           C         -0.166093521400     0.902249535539     0.312344974651    12.000000000000
           H         -1.257548521400     1.488089535539     2.075013974651     1.007825032070
           H         -1.510736521400     2.538292535539     0.700460974651     1.007825032070
           C         -1.231939521400    -0.031586464461    -0.267949025349    12.000000000000
           H          0.567928478600     0.318556535539     0.860868974651     1.007825032070
           H          0.366752478600     1.387837535539    -0.505347025349     1.007825032070
           C         -0.705623521400    -1.065295464461    -1.270334025349    12.000000000000
           H         -1.739082521400    -0.545828464461     0.546427974651     1.007825032070
           H         -1.989421521400     0.572828535539    -0.762522025349     1.007825032070
           C          0.230573478600    -2.120985464461    -0.675748025349    12.000000000000
           H         -1.558103521400    -1.571164464461    -1.718876025349     1.007825032070
           H         -0.197868521400    -0.550321464461    -2.084475025349     1.007825032070
           C          0.644388478600    -3.189680464461    -1.689694025349    12.000000000000
           H         -0.260162521400    -2.600508464461     0.170033974651     1.007825032070
           H          1.125698478600    -1.647180464461    -0.280070025349     1.007825032070
           C          1.584037478600    -4.241113464461    -1.100447025349    12.000000000000
           H         -0.245284521400    -3.679366464461    -2.079795025349     1.007825032070
           H          1.126230478600    -2.711496464461    -2.540019025349     1.007825032070
           H          1.118335478600    -4.760391464461    -0.267563025349     1.007825032070
           H          1.857378478600    -4.984997464461    -1.842443025349     1.007825032070
           H          2.500744478600    -3.787215464461    -0.734403025349     1.007825032070

  Charge       = 0
  Multiplicity = 1
  Basis Set: 6-31G*
  Basis Set:

    Orbital Energies (a.u.)
    -----------------------

    Doubly Occupied:

       1A    -20.550954     2A    -11.265465     3A    -11.215861
       4A    -11.214209     5A    -11.213957     6A    -11.213036
       7A    -11.212939     8A    -11.212053     9A    -11.207935
      10A     -1.357964    11A     -1.092920    12A     -1.060198
      13A     -1.010037    14A     -0.944558    15A     -0.882344
      16A     -0.821667    17A     -0.803232    18A     -0.776322
      19A     -0.690489    20A     -0.647674    21A     -0.632297
      22A     -0.611827    23A     -0.606595    24A     -0.579862
      25A     -0.577827    26A     -0.554737    27A     -0.536531
      28A     -0.524497    29A     -0.508810    30A     -0.487057
      31A     -0.482549    32A     -0.473605    33A     -0.464377
      34A     -0.458960    35A     -0.452594    36A     -0.441586
      37A     -0.418013

  @DF-RHF Final Energy:  -388.27548593578945

   => Energetics <=

    Nuclear Repulsion Energy =            454.2337423148884454
    One-Electron Energy =               -1426.6075164560447774
    Two-Electron Energy =                 584.0982882053679077
    DFT Exchange-Correlation Energy =       0.0000000000000000
    Empirical Dispersion Energy =           0.0000000000000000
    PCM Polarization Energy =               0.0000000000000000
    EFP Energy =                            0.0000000000000000
    Total Energy =                       -388.2754859357884243

  Mulliken Charges: (a.u.)
   Center  Symbol    Alpha    Beta     Spin     Total
       1     H     0.28320  0.28320  0.00000  0.43359
       2     O     4.36995  4.36995  0.00000 -0.73990
       3     C     2.99778  2.99778  0.00000  0.00444
       4     C     3.16954  3.16954  0.00000 -0.33908
       5     H     0.41370  0.41370  0.00000  0.17260
       6     H     0.42991  0.42991  0.00000  0.14018
       7     C     3.16052  3.16052  0.00000 -0.32103
       8     H     0.42311  0.42311  0.00000  0.15378
       9     H     0.41478  0.41478  0.00000  0.17043
      10     C     3.15354  3.15354  0.00000 -0.30709
      11     H     0.42125  0.42125  0.00000  0.15749
      12     H     0.41849  0.41849  0.00000  0.16303
      13     C     3.15336  3.15336  0.00000 -0.30672
      14     H     0.42452  0.42452  0.00000  0.15096
      15     H     0.42123  0.42123  0.00000  0.15754
      16     C     3.15269  3.15269  0.00000 -0.30539
      17     H     0.42195  0.42195  0.00000  0.15610
      18     H     0.42316  0.42316  0.00000  0.15369
      19     C     3.15114  3.15114  0.00000 -0.30228
      20     H     0.42503  0.42503  0.00000  0.14993
      21     H     0.42236  0.42236  0.00000  0.15529
      22     C     3.23915  3.23915  0.00000 -0.47829
      23     H     0.42325  0.42325  0.00000  0.15350
      24     H     0.42282  0.42282  0.00000  0.15437
      25     H     0.42213  0.42213  0.00000  0.15574
      26     H     0.41943  0.41943  0.00000  0.16114
      27     H     0.42201  0.42201  0.00000  0.15599

   Total alpha = 37.00000, Total beta = 37.00000, Total charge = -0.00000
