  ==> Input File <==

--------------------------------------------------------------------------
set {
	reference rhf
	basis 6-31G*
}

set_num_threads( 4 )
memory 2 gb

molecule MOL {
0 1

O	 -0.682937	 1.318834	 -0.186099
C	 -0.860635	 0.152188	 -0.042321
C	 -2.173363	 -0.477127	 0.338347
O	 0.083258	 -0.765189	 -0.202595
H	 -2.477673	 -1.180929	 -0.427595
H	 -2.923125	 0.290956	 0.455536
H	 -2.058825	 -1.029004	 1.264191
C	 -0.300604	 -2.138252	 -0.214667
C	 -0.772689	 -2.571982	 -1.590043
H	 -1.063952	 -2.299882	 0.531199
H	 0.593340	 -2.672073	 0.074119
H	 -0.984996	 -3.636709	 -1.586507
H	 -1.676353	 -2.046074	 -1.871432
H	 -0.007427	 -2.379631	 -2.334215

	symmetry c1
}
set optking {
	frozen_dihedral = ("
		8 4 2 1
	")
}

ee = optimize('scf')
oeprop('DIPOLE', 'QUADRUPOLE', 'MULLIKEN_CHARGES')
f=open( 'psi4out.xyz', 'w' )
f.write( "14  " )
f.write( str(ee) + "\n" )
f.write( MOL.save_string_xyz() )
f.close()
--------------------------------------------------------------------------

    Molecular point group: c1
  Charge       = 0
  Multiplicity = 1
  Basis Set: 6-31G*
  Basis Set:
  @DF-RHF Final Energy:  -305.84471960915494
    Total Energy =                       -305.8447196091549927
    Molecular point group: c1
  Basis Set: 6-31G*
  Basis Set:
  Basis Set: 6-31G*
  Basis Set:
  @DF-RHF Final Energy:  -305.85435573281177
    Total Energy =                       -305.8543557328116549
  Basis Set: 6-31G*
  Basis Set:
  Basis Set: 6-31G*
  Basis Set:
  @DF-RHF Final Energy:  -305.85766365490633
    Total Energy =                       -305.8576636549062755
  Basis Set: 6-31G*
  Basis Set:
  Basis Set: 6-31G*
  Basis Set:
  @DF-RHF Final Energy:  -305.85880303509271
    Total Energy =                       -305.8588030350928761
  Basis Set: 6-31G*
  Basis Set:
  @DF-RHF Final Energy:  -305.85961213743371
    Total Energy =                       -305.8596121374339418
  @DF-RHF Final Energy:  -305.85958359908443
    Total Energy =                       -305.8595835990843739
  Basis Set: 6-31G*
  Basis Set:
  @DF-RHF Final Energy:  -305.85985295442146
    Total Energy =                       -305.8598529544215125
  Basis Set: 6-31G*
  Basis Set:
  Basis Set: 6-31G*
  Basis Set:
  @DF-RHF Final Energy:  -305.85986351805923
    Total Energy =                       -305.8598635180590009
  Basis Set: 6-31G*
  Basis Set:
  Basis Set: 6-31G*
  Basis Set:
  @DF-RHF Final Energy:  -305.85986621402776
    Total Energy =                       -305.8598662140277611
  Basis Set: 6-31G*
  Basis Set:
  Charge       = 0
  Multiplicity = 1
  Basis Set: 6-31G*
  Basis Set:

    Orbital Energies (a.u.)
    -----------------------

    Doubly Occupied:

       1A    -20.600326     2A    -20.537928     3A    -11.376699
       4A    -11.300956     5A    -11.243370     6A    -11.232848
       7A     -1.462349     8A     -1.364016     9A     -1.050526
      10A     -1.018456    11A     -0.898773    12A     -0.774978
      13A     -0.699699    14A     -0.687718    15A     -0.661784
      16A     -0.616871    17A     -0.597000    18A     -0.583809
      19A     -0.557755    20A     -0.541995    21A     -0.528450
      22A     -0.500555    23A     -0.442485    24A     -0.433376

  @DF-RHF Final Energy:  -305.85986649025148

   => Energetics <=

    Nuclear Repulsion Energy =            247.7239136172536860
    One-Electron Energy =                -907.7421176857907312
    Two-Electron Energy =                 354.1583375782854546
    DFT Exchange-Correlation Energy =       0.0000000000000000
    Empirical Dispersion Energy =           0.0000000000000000
    PCM Polarization Energy =               0.0000000000000000
    EFP Energy =                            0.0000000000000000
    Total Energy =                       -305.8598664902515338
    Molecular point group: c1
  Basis Set: 6-31G*
  Basis Set:

  -Total Gradient:
     Atom            X                  Y                   Z
    ------   -----------------  -----------------  -----------------
       1       -0.000089213978    -0.000049569558    -0.000319994400
       2        0.000130619968     0.000048842951     0.000303466678
       3       -0.000029388869    -0.000008383549    -0.000062166355
       4        0.000031884557    -0.000036067710     0.000332775832
       5       -0.000001567884     0.000005808683     0.000024266731
       6       -0.000004025775    -0.000001496578     0.000004627352
       7        0.000012727298     0.000002723547     0.000018176792
       8       -0.000058874018     0.000022472751    -0.000292082430
       9        0.000000298833    -0.000006654383    -0.000016472056
      10        0.000000162518     0.000005977720     0.000013816334
      11       -0.000001688830     0.000010718497    -0.000004363616
      12        0.000000992778     0.000004096308     0.000003424650
      13        0.000008750698    -0.000001312101     0.000004066609
      14       -0.000000677299     0.000002843417    -0.000009542120

  **** Optimization is complete! (in 10 steps) ****
    Final optimized geometry and variables:
    Molecular point group: c1

    Geometry (in Angstrom), charge = 0, multiplicity = 1:

    O            0.144368648120     2.037614037311     0.119839658842
    C           -0.130682599176     0.899898253924     0.298173201632
    C           -1.490068991089     0.470573524123     0.806055254323
    O            0.794707869895    -0.034880110034     0.079295259620
    H           -1.974520566240    -0.227074207568     0.133449951781
    H           -2.098913980759     1.356481103090     0.899855680220
    H           -1.402930117789    -0.005071693514     1.777052140459
    C            0.537742177740    -1.426838869386     0.058945369230
    C            0.167396816107    -1.898148212226    -1.336673388838
    H           -0.221847869517    -1.692958777833     0.781471112362
    H            1.463842235001    -1.884238194616     0.375978487386
    H            0.052578126773    -2.977513280283    -1.347187016177
    H           -0.764278715880    -1.456091138147    -1.673999537497
    H            0.944287402655    -1.626295706008    -2.041206902050

  Mulliken Charges: (a.u.)
   Center  Symbol    Alpha    Beta     Spin     Total
       1     O     4.26640  4.26640  0.00000 -0.53280
       2     C     2.61323  2.61323  0.00000  0.77354
       3     C     3.31143  3.31143  0.00000 -0.62285
       4     O     4.30205  4.30205  0.00000 -0.60411
       5     H     0.40452  0.40452  0.00000  0.19095
       6     H     0.38684  0.38684  0.00000  0.22632
       7     H     0.40116  0.40116  0.00000  0.19768
       8     C     3.00750  3.00750  0.00000 -0.01499
       9     C     3.25022  3.25022  0.00000 -0.50043
      10     H     0.41754  0.41754  0.00000  0.16491
      11     H     0.40275  0.40275  0.00000  0.19450
      12     H     0.41610  0.41610  0.00000  0.16781
      13     H     0.41673  0.41673  0.00000  0.16655
      14     H     0.40354  0.40354  0.00000  0.19292

   Total alpha = 24.00000, Total beta = 24.00000, Total charge = -0.00000
