  ==> Input File <==

--------------------------------------------------------------------------
set {
	reference rhf
	basis 6-31G*
}

set_num_threads( 4 )
memory 2 gb

molecule MOL {
0 1

O	 3.225979	 0.970355	 -0.599647
C	 2.701189	 0.057885	 -0.047330
C	 1.245376	 -0.013843	 0.345420
O	 3.347903	 -1.046386	 0.304773
C	 0.455112	 1.231400	 -0.050772
H	 0.838542	 -0.913825	 -0.103701
H	 1.208210	 -0.175333	 1.419774
C	 -0.998893	 1.219485	 0.433193
H	 0.482531	 1.345121	 -1.130325
H	 0.957290	 2.103070	 0.354729
C	 -1.883438	 0.145884	 -0.207175
H	 -1.431207	 2.195402	 0.224832
H	 -1.019646	 1.105716	 1.516076
C	 -3.347647	 0.245583	 0.225435
H	 -1.822183	 0.231698	 -1.291012
H	 -1.510341	 -0.844814	 0.042401
C	 -3.938001	 1.645675	 0.048363
H	 -3.435373	 -0.051095	 1.269236
H	 -3.940821	 -0.468147	 -0.344158
C	 -5.399335	 1.737646	 0.486249
H	 -3.345846	 2.360296	 0.616088
H	 -3.855176	 1.942223	 -0.995179
H	 -5.789196	 2.741483	 0.348677
H	 -5.510984	 1.480545	 1.535834
H	 -6.024040	 1.058779	 -0.087475
C	 4.728119	 -1.109107	 -0.004993
H	 4.882018	 -1.033965	 -1.071845
H	 5.068212	 -2.067527	 0.355250
H	 5.265056	 -0.311663	 0.488280

	symmetry c1
}
set optking {
	frozen_dihedral = ("
		17 14 11 15
	")
}

ee = optimize('scf')
oeprop('DIPOLE', 'QUADRUPOLE', 'MULLIKEN_CHARGES')
f=open( 'psi4out.xyz', 'w' )
f.write( "29  " )
f.write( str(ee) + "\n" )
f.write( MOL.save_string_xyz() )
f.close()
--------------------------------------------------------------------------

    Molecular point group: c1
  Charge       = 0
  Multiplicity = 1
  Basis Set: 6-31G*
  Basis Set:
  @DF-RHF Final Energy:  -501.03963523655807
    Total Energy =                       -501.0396352365576149
    Molecular point group: c1
  Basis Set: 6-31G*
  Basis Set:
  Basis Set: 6-31G*
  Basis Set:
  @DF-RHF Final Energy:  -501.04025886732370
    Total Energy =                       -501.0402588673234732
  Basis Set: 6-31G*
  Basis Set:
  Basis Set: 6-31G*
  Basis Set:
  @DF-RHF Final Energy:  -501.04151680417613
    Total Energy =                       -501.0415168041749894
  Basis Set: 6-31G*
  Basis Set:
  Basis Set: 6-31G*
  Basis Set:
  @DF-RHF Final Energy:  -501.04163411513196
    Total Energy =                       -501.0416341151324104
  Basis Set: 6-31G*
  Basis Set:
  @DF-RHF Final Energy:  -501.04163647329892
    Total Energy =                       -501.0416364732980128
  Basis Set: 6-31G*
  Basis Set:
  @DF-RHF Final Energy:  -501.04163753148043
    Total Energy =                       -501.0416375314802053
  Basis Set: 6-31G*
  Basis Set:
  Basis Set: 6-31G*
  Basis Set:
  @DF-RHF Final Energy:  -501.04164236355757
    Total Energy =                       -501.0416423635577985
  Basis Set: 6-31G*
  Basis Set:
  Basis Set: 6-31G*
  Basis Set:
  @DF-RHF Final Energy:  -501.04164403403911
    Total Energy =                       -501.0416440340389954
  Basis Set: 6-31G*
  Basis Set:
  Charge       = 0
  Multiplicity = 1
  Basis Set: 6-31G*
  Basis Set:

    Orbital Energies (a.u.)
    -----------------------

    Doubly Occupied:

       1A    -20.603374     2A    -20.545199     3A    -11.372033
       4A    -11.280664     5A    -11.234718     6A    -11.219243
       7A    -11.217430     8A    -11.216234     9A    -11.215283
      10A    -11.214706    11A    -11.208823    12A     -1.469077
      13A     -1.362517    14A     -1.097905    15A     -1.065744
      16A     -1.017740    17A     -0.977020    18A     -0.929345
      19A     -0.862077    20A     -0.816295    21A     -0.775360
      22A     -0.761703    23A     -0.700993    24A     -0.682129
      25A     -0.672112    26A     -0.638566    27A     -0.629618
      28A     -0.613538    29A     -0.593923    30A     -0.580645
      31A     -0.566524    32A     -0.555527    33A     -0.539530
      34A     -0.525322    35A     -0.522862    36A     -0.498237
      37A     -0.493994    38A     -0.486745    39A     -0.474482
      40A     -0.457715    41A     -0.455238    42A     -0.448104
      43A     -0.442829    44A     -0.437165

  @DF-RHF Final Energy:  -501.04164470958585

   => Energetics <=

    Nuclear Repulsion Energy =            613.6826817940186629
    One-Electron Energy =               -1898.4920809157342774
    Two-Electron Energy =                 783.7677544121297615
    DFT Exchange-Correlation Energy =       0.0000000000000000
    Empirical Dispersion Energy =           0.0000000000000000
    PCM Polarization Energy =               0.0000000000000000
    EFP Energy =                            0.0000000000000000
    Total Energy =                       -501.0416447095858530
    Molecular point group: c1
  Basis Set: 6-31G*
  Basis Set:

  -Total Gradient:
     Atom            X                  Y                   Z
    ------   -----------------  -----------------  -----------------
       1        0.000001239828    -0.000008175142    -0.000010570586
       2        0.000005805300     0.000013678776     0.000014198003
       3       -0.000016856811    -0.000003566068    -0.000011642103
       4       -0.000004108235    -0.000001137316    -0.000009350689
       5       -0.000004868965     0.000000190876     0.000007503413
       6       -0.000016074756    -0.000012498733     0.000004857902
       7        0.000004799367     0.000006533887    -0.000000841245
       8        0.000000830338    -0.000013937560    -0.000021271528
       9        0.000005800585     0.000012910277     0.000006034868
      10       -0.000004431602     0.000003124337     0.000015749802
      11        0.000445803261     0.003465078575     0.001193696089
      12        0.000001046721     0.000003471460    -0.000005028745
      13        0.000006241779     0.000002792058    -0.000005695890
      14       -0.000945356589    -0.001246863484    -0.002664691865
      15       -0.000120947257    -0.002646544955    -0.000295745977
      16        0.000019371241    -0.000016875258     0.000001917495
      17        0.000642539890     0.000441079904     0.001832555061
      18       -0.000018169773    -0.000014839679    -0.000008809069
      19        0.000011447107     0.000004325842    -0.000025722243
      20        0.000004596993     0.000014957004     0.000027203836
      21        0.000006894573     0.000016004764    -0.000032397960
      22       -0.000025665847    -0.000024145498    -0.000014416954
      23       -0.000003401909     0.000003418730     0.000013719095
      24       -0.000002179009    -0.000011065688    -0.000003339216
      25        0.000005031876     0.000011449912    -0.000008435729
      26        0.000000224227     0.000000521724     0.000000507006
      27       -0.000000857500     0.000000185702     0.000000123622
      28        0.000000227707     0.000000102376    -0.000000047047
      29        0.000001017455    -0.000000176826    -0.000000059343

  **** Optimization is complete! (in 9 steps) ****
    Final optimized geometry and variables:
    Molecular point group: c1

    Geometry (in Angstrom), charge = 0, multiplicity = 1:

    O            3.223545354979     0.430121208861    -0.723875916605
    C            2.661357979272    -0.431005430951    -0.127660068922
    C            1.202355674107    -0.425583346743     0.259917706200
    O            3.263058833604    -1.539580464064     0.285445477161
    C            0.463562468852     0.827401896232    -0.205572533242
    H            0.763649720311    -1.332508344242    -0.142355480763
    H            1.155358379854    -0.527532545833     1.341132453672
    C           -0.995077983966     0.899688041492     0.261992199895
    H            0.505799416904     0.887994932449    -1.288947519127
    H            0.996662626868     1.697108027768     0.162963281702
    C           -1.918171125826    -0.140837772698    -0.378223451220
    H           -1.364344899399     1.895167960452     0.036651011528
    H           -1.033818211777     0.799791362472     1.346331837484
    C           -3.365407865755    -0.132398599934     0.132624075595
    H           -1.916148533102    -0.017454293100    -1.460267147337
    H           -1.519263822710    -1.136852935617    -0.201331281990
    C           -4.083997678902     1.217577791972     0.056892772997
    H           -3.377976574395    -0.474706455190     1.166602864412
    H           -3.931591052823    -0.868058167928    -0.434538392474
    C           -5.556980724628     1.118069668079     0.453734221640
    H           -3.591753114654     1.936956780311     0.704257724094
    H           -4.009595319751     1.613217183392    -0.954612544956
    H           -6.043321481588     2.087605124277     0.407946584869
    H           -5.664727811116     0.742019723136     1.467416578336
    H           -6.097129944052     0.445177099102    -0.206207424616
    C            4.640944168965    -1.672038239724    -0.012513085859
    H            4.801745042056    -1.658947522612    -1.080914648810
    H            4.941878148604    -2.622751232645     0.399282488879
    H            5.206770305937    -0.871314003079     0.441603229400

  Mulliken Charges: (a.u.)
   Center  Symbol    Alpha    Beta     Spin     Total
       1     O     4.28597  4.28597  0.00000 -0.57195
       2     C     2.60473  2.60473  0.00000  0.79053
       3     C     3.20969  3.20969  0.00000 -0.41937
       4     O     4.30748  4.30748  0.00000 -0.61495
       5     C     3.15382  3.15382  0.00000 -0.30764
       6     H     0.39903  0.39903  0.00000  0.20194
       7     H     0.40121  0.40121  0.00000  0.19758
       8     C     3.15931  3.15931  0.00000 -0.31861
       9     H     0.41284  0.41284  0.00000  0.17431
      10     H     0.40879  0.40879  0.00000  0.18241
      11     C     3.15595  3.15595  0.00000 -0.31189
      12     H     0.41510  0.41510  0.00000  0.16981
      13     H     0.42467  0.42467  0.00000  0.15067
      14     C     3.15048  3.15048  0.00000 -0.30096
      15     H     0.42251  0.42251  0.00000  0.15498
      16     H     0.42255  0.42255  0.00000  0.15490
      17     C     3.15471  3.15471  0.00000 -0.30942
      18     H     0.42465  0.42465  0.00000  0.15069
      19     H     0.42173  0.42173  0.00000  0.15654
      20     C     3.23916  3.23916  0.00000 -0.47833
      21     H     0.42025  0.42025  0.00000  0.15951
      22     H     0.42334  0.42334  0.00000  0.15331
      23     H     0.41915  0.41915  0.00000  0.16170
      24     H     0.42196  0.42196  0.00000  0.15608
      25     H     0.42180  0.42180  0.00000  0.15641
      26     C     3.09240  3.09240  0.00000 -0.18480
      27     H     0.40908  0.40908  0.00000  0.18184
      28     H     0.40851  0.40851  0.00000  0.18298
      29     H     0.40913  0.40913  0.00000  0.18173

   Total alpha = 44.00000, Total beta = 44.00000, Total charge =  0.00000
