  ==> Input File <==

--------------------------------------------------------------------------
set {
	reference rhf
	basis 6-31G*
}

set_num_threads( 4 )
memory 2 gb

molecule MOL {
0 1

H	 1.562278	 2.039807	 -2.368075
O	 2.388329	 1.652078	 -2.617832
C	 2.954396	 0.991773	 -1.514375
C	 2.238453	 -0.306524	 -1.158599
H	 3.978957	 0.779939	 -1.791999
H	 2.984198	 1.652761	 -0.648936
C	 0.789547	 -0.113910	 -0.704242
H	 2.265262	 -0.963453	 -2.024100
H	 2.802712	 -0.799366	 -0.368609
C	 0.115918	 -1.429151	 -0.302766
H	 0.223483	 0.354053	 -1.504834
H	 0.763624	 0.573350	 0.141537
C	 -1.309753	 -1.282496	 0.241564
H	 0.107073	 -2.102466	 -1.157994
H	 0.726363	 -1.912829	 0.456914
C	 -2.037799	 -0.007733	 -0.193645
H	 -1.890610	 -2.142323	 -0.085726
H	 -1.285946	 -1.330893	 1.329189
C	 -3.489788	 0.042957	 0.286558
H	 -2.017067	 0.064384	 -1.280144
H	 -1.513726	 0.868678	 0.179924
C	 -4.216917	 1.317354	 -0.141063
H	 -4.025645	 -0.823308	 -0.095450
H	 -3.513059	 -0.038752	 1.371301
H	 -4.239342	 1.411634	 -1.223113
H	 -5.243387	 1.322503	 0.212445
H	 -3.726170	 2.201406	 0.256408

	symmetry c1
}
set optking {
	frozen_dihedral = ("
		14 10 13 16
	")
}

ee = optimize('scf')
oeprop('DIPOLE', 'QUADRUPOLE', 'MULLIKEN_CHARGES')
f=open( 'psi4out.xyz', 'w' )
f.write( "27  " )
f.write( str(ee) + "\n" )
f.write( MOL.save_string_xyz() )
f.close()
--------------------------------------------------------------------------

    Molecular point group: c1
  Charge       = 0
  Multiplicity = 1
  Basis Set: 6-31G*
  Basis Set:
  @DF-RHF Final Energy:  -388.27476751488678
    Total Energy =                       -388.2747675148868893
    Molecular point group: c1
  Basis Set: 6-31G*
  Basis Set:
  Basis Set: 6-31G*
  Basis Set:
  @DF-RHF Final Energy:  -388.27529478770401
    Total Energy =                       -388.2752947877042971
  Basis Set: 6-31G*
  Basis Set:
  Basis Set: 6-31G*
  Basis Set:
  @DF-RHF Final Energy:  -388.27611082890502
    Total Energy =                       -388.2761108289043932
  Basis Set: 6-31G*
  Basis Set:
  Basis Set: 6-31G*
  Basis Set:
  @DF-RHF Final Energy:  -388.27611584508855
    Total Energy =                       -388.2761158450875882
  Basis Set: 6-31G*
  Basis Set:
  Basis Set: 6-31G*
  Basis Set:
  @DF-RHF Final Energy:  -388.27614427380030
    Total Energy =                       -388.2761442737996731
  Basis Set: 6-31G*
  Basis Set:
  Basis Set: 6-31G*
  Basis Set:
  @DF-RHF Final Energy:  -388.27614808111093
    Total Energy =                       -388.2761480811115007
  Basis Set: 6-31G*
  Basis Set:
  Charge       = 0
  Multiplicity = 1
  Basis Set: 6-31G*
  Basis Set:

    Orbital Energies (a.u.)
    -----------------------

    Doubly Occupied:

       1A    -20.552217     2A    -11.267053     3A    -11.220327
       4A    -11.217431     5A    -11.216349     6A    -11.216062
       7A    -11.215242     8A    -11.214897     9A    -11.209881
      10A     -1.358997    11A     -1.093940    12A     -1.061654
      13A     -1.009957    14A     -0.948448    15A     -0.890494
      16A     -0.820401    17A     -0.806897    18A     -0.770306
      19A     -0.693569    20A     -0.657129    21A     -0.633172
      22A     -0.614028    23A     -0.602225    24A     -0.585022
      25A     -0.576824    26A     -0.553137    27A     -0.538686
      28A     -0.533252    29A     -0.506158    30A     -0.497015
      31A     -0.487495    32A     -0.474775    33A     -0.467565
      34A     -0.456886    35A     -0.447726    36A     -0.442295
      37A     -0.423735

  @DF-RHF Final Energy:  -388.27614783743644

   => Energetics <=

    Nuclear Repulsion Energy =            461.6125646245035909
    One-Electron Energy =               -1441.2149313085806170
    Two-Electron Energy =                 591.3262188466396765
    DFT Exchange-Correlation Energy =       0.0000000000000000
    Empirical Dispersion Energy =           0.0000000000000000
    PCM Polarization Energy =               0.0000000000000000
    EFP Energy =                            0.0000000000000000
    Total Energy =                       -388.2761478374372928
    Molecular point group: c1
  Basis Set: 6-31G*
  Basis Set:

  -Total Gradient:
     Atom            X                  Y                   Z
    ------   -----------------  -----------------  -----------------
       1       -0.000000488718     0.000004705586    -0.000005322234
       2       -0.000007310276     0.000009145374     0.000007532011
       3        0.000002611462    -0.000012052685    -0.000007540060
       4       -0.000012437005    -0.000015746817    -0.000001026469
       5        0.000001300737    -0.000003483520     0.000004808273
       6       -0.000003250441     0.000002505891    -0.000004274976
       7        0.000032760817     0.000025758125     0.000026894067
       8        0.000012604085    -0.000001783589    -0.000005835590
       9        0.000000094799    -0.000000862161    -0.000001026152
      10       -0.000507834012     0.006547047707    -0.003049547492
      11       -0.000022953576     0.000005852607    -0.000000784527
      12        0.000021847382    -0.000009237154    -0.000008547291
      13       -0.001989754895    -0.004275907599    -0.004209034290
      14        0.000974906640    -0.004497989055     0.003743337504
      15       -0.000018580853     0.000004939990     0.000003947765
      16        0.001525670585     0.002263880420     0.003529065546
      17       -0.000000559978    -0.000003875278     0.000000949385
      18        0.000009161146    -0.000004905750     0.000000385376
      19        0.000000136663    -0.000027504870    -0.000017001786
      20        0.000010059701    -0.000022567980    -0.000005548516
      21       -0.000030820736     0.000009459330    -0.000015051299
      22        0.000018891854     0.000013442550     0.000020488357
      23       -0.000012041636     0.000002414392    -0.000010734439
      24       -0.000007324243    -0.000014000698    -0.000001771218
      25       -0.000003883943    -0.000008433304     0.000004987165
      26        0.000005236577     0.000002507658     0.000009240079
      27        0.000001957875     0.000006690830    -0.000008589189

  **** Optimization is complete! (in 7 steps) ****
    Final optimized geometry and variables:
    Molecular point group: c1

    Geometry (in Angstrom), charge = 0, multiplicity = 1:

    H            1.962430848644     1.922398363481    -1.634745843087
    O            2.769266303572     1.500286357898    -1.891568273780
    C            3.304574807114     0.797496533360    -0.799148652770
    C            2.526846288300    -0.469273268826    -0.459651560790
    H            4.316819655460     0.539674253698    -1.082925906542
    H            3.368933020170     1.443919962947     0.075383442156
    C            1.090215333287    -0.211180799116     0.001420598419
    H            2.519131167440    -1.114158782453    -1.334510267240
    H            3.068268199235    -1.000443747730     0.321357428649
    C            0.363351997709    -1.502913073172     0.380785886806
    H            0.545879452394     0.296241666592    -0.789682750422
    H            1.103851115968     0.463782339018     0.856517363065
    C           -1.080392346041    -1.366899720925     0.919979810813
    H            0.375331015655    -2.195692800343    -0.457548345004
    H            0.952816542451    -2.004489234803     1.145777234458
    C           -1.868379424721    -0.129973309213     0.476592009484
    H           -1.637989889338    -2.260586331034     0.653489845826
    H           -1.044480499028    -1.354736251297     2.007458614748
    C           -3.295759378558    -0.118377982075     1.028201122396
    H           -1.909434043228    -0.082115157650    -0.610599617276
    H           -1.356772680288     0.771026073707     0.804155780462
    C           -4.086274780750     1.122218546951     0.613745092665
    H           -3.820154044105    -1.009497227653     0.690123791703
    H           -3.262505842340    -0.178299016161     2.114114699932
    H           -4.168132660435     1.192182406588    -0.467293588252
    H           -5.092634659998     1.101777046641     1.020460559686
    H           -3.605595325520     2.030160209289     0.967366388477

  Mulliken Charges: (a.u.)
   Center  Symbol    Alpha    Beta     Spin     Total
       1     H     0.27987  0.27987  0.00000  0.44026
       2     O     4.37097  4.37097  0.00000 -0.74193
       3     C     2.99726  2.99726  0.00000  0.00547
       4     C     3.16121  3.16121  0.00000 -0.32241
       5     H     0.41439  0.41439  0.00000  0.17121
       6     H     0.43214  0.43214  0.00000  0.13572
       7     C     3.16424  3.16424  0.00000 -0.32849
       8     H     0.41486  0.41486  0.00000  0.17029
       9     H     0.42422  0.42422  0.00000  0.15156
      10     C     3.15437  3.15437  0.00000 -0.30874
      11     H     0.42218  0.42218  0.00000  0.15564
      12     H     0.42455  0.42455  0.00000  0.15091
      13     C     3.15388  3.15388  0.00000 -0.30777
      14     H     0.42008  0.42008  0.00000  0.15983
      15     H     0.42167  0.42167  0.00000  0.15666
      16     C     3.15424  3.15424  0.00000 -0.30848
      17     H     0.42000  0.42000  0.00000  0.15999
      18     H     0.42319  0.42319  0.00000  0.15362
      19     C     3.15128  3.15128  0.00000 -0.30256
      20     H     0.42383  0.42383  0.00000  0.15234
      21     H     0.42342  0.42342  0.00000  0.15317
      22     C     3.23918  3.23918  0.00000 -0.47836
      23     H     0.42260  0.42260  0.00000  0.15479
      24     H     0.42317  0.42317  0.00000  0.15367
      25     H     0.42170  0.42170  0.00000  0.15660
      26     H     0.41899  0.41899  0.00000  0.16202
      27     H     0.42250  0.42250  0.00000  0.15501

   Total alpha = 37.00000, Total beta = 37.00000, Total charge =  0.00000
