                              Psi4 1.0.54 Driver

  ==> Input File <==

--------------------------------------------------------------------------
set {
	reference rhf
	basis cc-pvtz
}

set_num_threads( 4 )
memory 2 gb

molecule MOL {
0 1

H	 3.219581	 0.214746	 -1.477462
O	 2.298819	 0.046574	 -1.344748
C	 2.076458	 -0.067370	 -0.038225
C	 0.626018	 -0.337582	 0.258241
O	 2.943973	 0.038205	 0.758088
C	 -0.267326	 0.883135	 0.076490
H	 0.325620	 -1.161483	 -0.378003
H	 0.574537	 -0.713685	 1.275261
C	 -1.726822	 0.642622	 0.463839
H	 -0.210803	 1.217591	 -0.953497
H	 0.129920	 1.693110	 0.675679
C	 -2.480891	 -0.340606	 -0.429852
H	 -2.243098	 1.597649	 0.438609
H	 -1.776542	 0.301208	 1.495542
C	 -3.955933	 -0.460128	 -0.060472
H	 -2.393755	 -0.020485	 -1.464726
H	 -2.024244	 -1.323637	 -0.374360
H	 -4.467673	 -1.160944	 -0.709827
H	 -4.458917	 0.497287	 -0.144505
H	 -4.076458	 -0.806900	 0.960497

	symmetry c1
}
set optking {
	frozen_dihedral = ("
		5 3 4 7
	")
}

ee,wfn = optimize('scf', return_wfn=True)
oeprop( wfn, 'DIPOLE', 'QUADRUPOLE', 'MULLIKEN_CHARGES')
f=open( 'psi4out.xyz', 'w' )
f.write( "20  " )
f.write( str(ee) + "\n" )
f.write( MOL.save_string_xyz() )
f.close()
--------------------------------------------------------------------------

    Molecular point group: c1
  Charge       = 0
  Multiplicity = 1
  Basis Set: CC-PVTZ
  Basis Set:
  @DF-RHF Final Energy:  -384.09329298455810
    Total Energy =                       -384.0932929845582748
    Molecular point group: c1
  Basis Set: CC-PVTZ
  Basis Set:
  Basis Set: CC-PVTZ
  Basis Set:
  @DF-RHF Final Energy:  -384.09372652645300
    Total Energy =                       -384.0937265264534517
  Basis Set: CC-PVTZ
  Basis Set:
  Basis Set: CC-PVTZ
  Basis Set:
  @DF-RHF Final Energy:  -384.09260994030046
    Total Energy =                       -384.0926099403007470
  Basis Set: CC-PVTZ
  Basis Set:
  Basis Set: CC-PVTZ
  Basis Set:
  @DF-RHF Final Energy:  -384.09379668188518
    Total Energy =                       -384.0937966818847258
  Basis Set: CC-PVTZ
  Basis Set:
  Basis Set: CC-PVTZ
  Basis Set:
  @DF-RHF Final Energy:  -384.09380826608640
    Total Energy =                       -384.0938082660862847
  Basis Set: CC-PVTZ
  Basis Set:
  Basis Set: CC-PVTZ
  Basis Set:
  @DF-RHF Final Energy:  -384.09380615276024
    Total Energy =                       -384.0938061527601235
  Basis Set: CC-PVTZ
  Basis Set:
  Charge       = 0
  Multiplicity = 1
  Basis Set: CC-PVTZ
  Basis Set:

    Orbital Energies (a.u.)
    -----------------------

    Doubly Occupied:

       1A    -20.604089     2A    -20.538631     3A    -11.371892
       4A    -11.236914     5A    -11.230916     6A    -11.222355
       7A    -11.220596     8A    -11.212233     9A     -1.476596
      10A     -1.367393    11A     -1.100969    12A     -1.043760
      13A     -0.962238    14A     -0.865921    15A     -0.824053
      16A     -0.791591    17A     -0.704552    18A     -0.688521
      19A     -0.653205    20A     -0.633202    21A     -0.619171
      22A     -0.594932    23A     -0.577193    24A     -0.554298
      25A     -0.551274    26A     -0.516291    27A     -0.504614
      28A     -0.483136    29A     -0.478856    30A     -0.469446
      31A     -0.462290    32A     -0.437828

  @DF-RHF Final Energy:  -384.09381052243708

   => Energetics <=

    Nuclear Repulsion Energy =            377.4686971359098493
    One-Electron Energy =               -1271.1271009828669776
    Two-Electron Energy =                 509.5645933245205583
    DFT Exchange-Correlation Energy =       0.0000000000000000
    Empirical Dispersion Energy =           0.0000000000000000
    PCM Polarization Energy =               0.0000000000000000
    EFP Energy =                            0.0000000000000000
    Total Energy =                       -384.0938105224365131
    Molecular point group: c1
  Basis Set: CC-PVTZ
  Basis Set:

  -Total Gradient:
     Atom            X                  Y                   Z
    ------   -----------------  -----------------  -----------------
       1        0.000021906379     0.000011185529    -0.000013368577
       2       -0.000003961956     0.000003511296    -0.000038382593
       3        0.000022493151     0.000113718723     0.000166946297
       4       -0.000000555350     0.000044553497    -0.000114818592
       5       -0.000038706238    -0.000105606816    -0.000090496314
       6        0.000002565952    -0.000018608736     0.000002626685
       7        0.000031686586    -0.000062509540     0.000076042721
       8       -0.000018471746    -0.000008320040     0.000015616525
       9       -0.000003056490     0.000000459059     0.000001801438
      10       -0.000004178083     0.000000648584    -0.000008857281
      11        0.000001495579     0.000011758711     0.000004922140
      12        0.000000922303     0.000008209909    -0.000021904884
      13       -0.000008447215     0.000014101008     0.000001152511
      14        0.000003407109    -0.000002253318     0.000012567432
      15        0.000003482800    -0.000004272852     0.000012859107
      16       -0.000000419212     0.000001075756    -0.000005383773
      17        0.000000076298    -0.000006352614     0.000002406981
      18       -0.000003603692    -0.000008104764    -0.000003460702
      19       -0.000004162305     0.000008119597    -0.000004960744
      20       -0.000002473869    -0.000001312988     0.000004691623

  **** Optimization is complete! (in 7 steps) ****
    Final optimized geometry and variables:
    Molecular point group: c1

    Geometry (in Angstrom), charge = 0, multiplicity = 1:

    H            3.259049767352     0.223901191889    -1.357241882782
    O            2.340876219736     0.026325035037    -1.248973989936
    C            2.092434403150    -0.119355561943     0.049964491379
    C            0.643939873224    -0.410560133650     0.328748010299
    O            2.941063983418    -0.013549522208     0.867083364595
    C           -0.239503064251     0.820393371486     0.085015049976
    H            0.338186801893    -1.229889362860    -0.308842056026
    H            0.574644771102    -0.727884754545     1.359364798027
    C           -1.704422959500     0.611157590280     0.469635300976
    H           -0.172637276993     1.109381145221    -0.957863287836
    H            0.156565673182     1.647672314108     0.664995498912
    C           -2.457897780629    -0.404807071517    -0.386712161946
    H           -2.210449558588     1.569388409564     0.396540811174
    H           -1.763712193190     0.317341490527     1.514732764173
    C           -3.935982814117    -0.499070781948    -0.021761861835
    H           -2.361764185373    -0.130785014762    -1.433927717322
    H           -2.007469791555    -1.386737490243    -0.284906030163
    H           -4.446771837740    -1.227352418086    -0.640826167924
    H           -4.433651288955     0.455639362699    -0.154424454894
    H           -4.064919633767    -0.796729430369     1.013517716932

  Mulliken Charges: (a.u.)
   Center  Symbol    Alpha    Beta     Spin     Total
       1     H     0.38064  0.38064  0.00000  0.23871
       2     O     4.16409  4.16409  0.00000 -0.32818
       3     C     2.80674  2.80674  0.00000  0.38652
       4     C     3.08818  3.08818  0.00000 -0.17636
       5     O     4.19514  4.19514  0.00000 -0.39028
       6     C     3.11022  3.11022  0.00000 -0.22044
       7     H     0.44324  0.44324  0.00000  0.11353
       8     H     0.43676  0.43676  0.00000  0.12649
       9     C     3.09711  3.09711  0.00000 -0.19422
      10     H     0.44262  0.44262  0.00000  0.11476
      11     H     0.44012  0.44012  0.00000  0.11977
      12     C     3.08742  3.08742  0.00000 -0.17485
      13     H     0.44606  0.44606  0.00000  0.10788
      14     H     0.45111  0.45111  0.00000  0.09777
      15     C     3.14960  3.14960  0.00000 -0.29920
      16     H     0.45208  0.45208  0.00000  0.09584
      17     H     0.45346  0.45346  0.00000  0.09308
      18     H     0.44738  0.44738  0.00000  0.10524
      19     H     0.45377  0.45377  0.00000  0.09246
      20     H     0.45425  0.45425  0.00000  0.09149

   Total alpha = 32.00000, Total beta = 32.00000, Total charge = -0.00000

*** Psi4 exiting successfully. Buy a developer a beer!
