  ==> Input File <==

--------------------------------------------------------------------------
set {
	reference rhf
	basis cc-pvtz
}

set_num_threads( 4 )
memory 2 gb

molecule MOL {
0 1

H	 2.076651	 -0.317124	 -1.015320
O	 2.063695	 -0.083403	 -0.105237
C	 0.742924	 0.005675	 0.350750
H	 0.731380	 0.039219	 1.440080
C	 -0.064076	 -1.193495	 -0.124425
C	 -0.047832	 1.190568	 -0.194462
H	 0.194729	 -1.376165	 -1.161308
H	 0.163013	 -2.094508	 0.429933
C	 -1.533112	 -0.752002	 0.006102
H	 0.148003	 1.266545	 -1.259275
H	 0.226235	 2.136493	 0.259722
C	 -1.506634	 0.799189	 0.067162
H	 -2.124360	 -1.110499	 -0.826089
H	 -1.983103	 -1.158030	 0.903403
H	 -2.183808	 1.252169	 -0.644677
H	 -1.813926	 1.138698	 1.049457

	symmetry c1
}
set optking {
	frozen_dihedral = ("
		1 2 3 6
	")
}

ee = optimize('scf')
oeprop('DIPOLE', 'QUADRUPOLE', 'MULLIKEN_CHARGES')
f=open( 'psi4out.xyz', 'w' )
f.write( "16  " )
f.write( str(ee) + "\n" )
f.write( MOL.save_string_xyz() )
f.close()
--------------------------------------------------------------------------

    Molecular point group: c1
  Charge       = 0
  Multiplicity = 1
  Basis Set: CC-PVTZ
  Basis Set:
  @DF-RHF Final Energy:  -270.11439500924325
    Total Energy =                       -270.1143950092435944
    Molecular point group: c1
  Basis Set: CC-PVTZ
  Basis Set:
  Basis Set: CC-PVTZ
  Basis Set:
  @DF-RHF Final Energy:  -270.11619415468573
    Total Energy =                       -270.1161941546857292
  Basis Set: CC-PVTZ
  Basis Set:
  Basis Set: CC-PVTZ
  Basis Set:
  @DF-RHF Final Energy:  -270.11643627419477
    Total Energy =                       -270.1164362741945411
  Basis Set: CC-PVTZ
  Basis Set:
  Basis Set: CC-PVTZ
  Basis Set:
  @DF-RHF Final Energy:  -270.11644107289396
    Total Energy =                       -270.1164410728940766
  Basis Set: CC-PVTZ
  Basis Set:
  Charge       = 0
  Multiplicity = 1
  Basis Set: CC-PVTZ
  Basis Set:

    Orbital Energies (a.u.)
    -----------------------

    Doubly Occupied:

       1A    -20.545422     2A    -11.267587     3A    -11.217296
       4A    -11.216218     5A    -11.214071     6A    -11.210730
       7A     -1.366171     8A     -1.116581     9A     -0.969625
      10A     -0.949825    11A     -0.805320    12A     -0.783804
      13A     -0.683727    14A     -0.663478    15A     -0.609886
      16A     -0.587319    17A     -0.579601    18A     -0.549912
      19A     -0.506512    20A     -0.484592    21A     -0.473767
      22A     -0.459652    23A     -0.455430    24A     -0.414966

  @DF-RHF Final Energy:  -270.11644155904025

   => Energetics <=

    Nuclear Repulsion Energy =            255.4714229132353012
    One-Electron Energy =                -872.9127490070452495
    Two-Electron Energy =                 347.3248845347699785
    DFT Exchange-Correlation Energy =       0.0000000000000000
    Empirical Dispersion Energy =           0.0000000000000000
    PCM Polarization Energy =               0.0000000000000000
    EFP Energy =                            0.0000000000000000
    Total Energy =                       -270.1164415590399699
    Molecular point group: c1
  Basis Set: CC-PVTZ
  Basis Set:

  -Total Gradient:
     Atom            X                  Y                   Z
    ------   -----------------  -----------------  -----------------
       1       -0.000008716445    -0.000787783670     0.000176794559
       2        0.000021866329     0.001087164086     0.000002225615
       3       -0.000179475850    -0.000547206017    -0.000580706710
       4        0.000007920551     0.000003375349     0.000008630906
       5        0.000043500874     0.000029406873    -0.000049203646
       6        0.000147763526     0.000243428926     0.000395958551
       7       -0.000001820217    -0.000011678411     0.000010078672
       8        0.000006897348     0.000019979963     0.000006351884
       9       -0.000031655089     0.000016630823     0.000025835600
      10        0.000014478933    -0.000001938026    -0.000003816677
      11        0.000011514454    -0.000008131756     0.000000350691
      12       -0.000002443348    -0.000027259794     0.000006520755
      13       -0.000006739905     0.000002075441    -0.000011718460
      14       -0.000016278197    -0.000001623698    -0.000012187829
      15       -0.000003316776    -0.000012146752     0.000013003752
      16       -0.000003496184    -0.000004293337     0.000011882338

  **** Optimization is complete! (in 5 steps) ****
    Final optimized geometry and variables:
    Molecular point group: c1

    Geometry (in Angstrom), charge = 0, multiplicity = 1:

    H            2.171658178187    -0.220876325099    -0.953623789764
    O            2.095306489502    -0.034857869172    -0.034766454546
    C            0.747248019982    -0.001377899178     0.333833819392
    H            0.750303298376     0.037150804986     1.417727031380
    C           -0.079796558314    -1.199065514985    -0.126827029794
    C           -0.041296387597     1.189271978431    -0.201364668192
    H            0.147633310268    -1.394863275957    -1.172355144651
    H            0.148237150577    -2.101803870222     0.424459277205
    C           -1.541980750963    -0.742859010491     0.024538457071
    H            0.134184204536     1.272386397589    -1.271653791261
    H            0.255359939314     2.127053297073     0.249887693747
    C           -1.499347771741     0.809195829003     0.077694521978
    H           -2.151787658184    -1.099861912507    -0.794883069589
    H           -1.978593375764    -1.141024736774     0.931638382624
    H           -2.183740219625     1.263223148505    -0.626447010450
    H           -1.790232848242     1.154991389876     1.062568943444

  Mulliken Charges: (a.u.)
   Center  Symbol    Alpha    Beta     Spin     Total
       1     H     0.39487  0.39487  0.00000  0.21026
       2     O     4.20683  4.20683  0.00000 -0.41366
       3     C     2.93362  2.93362  0.00000  0.13277
       4     H     0.44434  0.44434  0.00000  0.11133
       5     C     3.10801  3.10801  0.00000 -0.21602
       6     C     3.09823  3.09823  0.00000 -0.19645
       7     H     0.46018  0.46018  0.00000  0.07964
       8     H     0.44172  0.44172  0.00000  0.11656
       9     C     3.11041  3.11041  0.00000 -0.22083
      10     H     0.46108  0.46108  0.00000  0.07784
      11     H     0.44354  0.44354  0.00000  0.11291
      12     C     3.11305  3.11305  0.00000 -0.22609
      13     H     0.44531  0.44531  0.00000  0.10939
      14     H     0.44657  0.44657  0.00000  0.10686
      15     H     0.44354  0.44354  0.00000  0.11293
      16     H     0.44871  0.44871  0.00000  0.10258

   Total alpha = 24.00000, Total beta = 24.00000, Total charge = -0.00000
