  ==> Input File <==

--------------------------------------------------------------------------
set {
	reference rhf
	basis 6-31G*
}

set_num_threads( 4 )
memory 2 gb

molecule MOL {
0 1

H	 2.652209	 0.763231	 0.000000
O	 2.263154	 -0.100023	 0.000000
C	 0.912879	 -0.015685	 0.000000
C	 0.341129	 1.089662	 0.616353
C	 0.107981	 -0.979817	 -0.584528
H	 0.983162	 1.825617	 1.063538
C	 -1.033754	 1.220211	 0.642096
H	 0.552247	 -1.836980	 -1.062460
C	 -1.271413	 -0.836003	 -0.551305
H	 -1.471687	 2.078052	 1.120645
C	 -1.851327	 0.260419	 0.059611
H	 -1.889137	 -1.589024	 -1.007449
H	 -2.920176	 0.368814	 0.083603

	symmetry c1
}
set optking {
	frozen_dihedral = ("
		4 3 2 1
	")
}

ee = optimize('scf')
oeprop('DIPOLE', 'QUADRUPOLE', 'MULLIKEN_CHARGES')
f=open( 'psi4out.xyz', 'w' )
f.write( "13  " )
f.write( str(ee) + "\n" )
f.write( MOL.save_string_xyz() )
f.close()
--------------------------------------------------------------------------

    Molecular point group: c1
  Charge       = 0
  Multiplicity = 1
  Basis Set: 6-31G*
  Basis Set:
  @DF-RHF Final Energy:  -305.55458294155801
    Total Energy =                       -305.5545829415580101
    Molecular point group: c1
  Basis Set: 6-31G*
  Basis Set:
  Basis Set: 6-31G*
  Basis Set:
  @DF-RHF Final Energy:  -305.55634893386537
    Total Energy =                       -305.5563489338653653
  Basis Set: 6-31G*
  Basis Set:
  Basis Set: 6-31G*
  Basis Set:
  @DF-RHF Final Energy:  -305.55649368306024
    Total Energy =                       -305.5564936830602960
  Basis Set: 6-31G*
  Basis Set:
  Basis Set: 6-31G*
  Basis Set:
  @DF-RHF Final Energy:  -305.55651152332365
    Total Energy =                       -305.5565115233238771
  Basis Set: 6-31G*
  Basis Set:
  Basis Set: 6-31G*
  Basis Set:
  @DF-RHF Final Energy:  -305.55651482001156
    Total Energy =                       -305.5565148200116710
  Basis Set: 6-31G*
  Basis Set:
  Charge       = 0
  Multiplicity = 1
  Basis Set: 6-31G*
  Basis Set:

    Orbital Energies (a.u.)
    -----------------------

    Doubly Occupied:

       1A    -20.587226     2A    -11.295899     3A    -11.236500
       4A    -11.234610     5A    -11.228002     6A    -11.223064
       7A    -11.222562     8A     -1.404883     9A     -1.147327
      10A     -1.018422    11A     -1.003925    12A     -0.843840
      13A     -0.822211    14A     -0.735071    15A     -0.682962
      16A     -0.648784    17A     -0.613733    18A     -0.592679
      19A     -0.588296    20A     -0.548312    21A     -0.513780
      22A     -0.490437    23A     -0.476655    24A     -0.337714
      25A     -0.312341

  @DF-RHF Final Energy:  -305.55651520011128

   => Energetics <=

    Nuclear Repulsion Energy =            273.0245266891610640
    One-Electron Energy =                -955.5436124042903430
    Two-Electron Energy =                 376.9625705150180011
    DFT Exchange-Correlation Energy =       0.0000000000000000
    Empirical Dispersion Energy =           0.0000000000000000
    PCM Polarization Energy =               0.0000000000000000
    EFP Energy =                            0.0000000000000000
    Total Energy =                       -305.5565152001112210
    Molecular point group: c1
  Basis Set: 6-31G*
  Basis Set:

  -Total Gradient:
     Atom            X                  Y                   Z
    ------   -----------------  -----------------  -----------------
       1       -0.000022606997     0.000043886256    -0.002254121069
       2        0.000062422522    -0.000522607169     0.003619308678
       3        0.000105208936     0.001364539973    -0.002870515969
       4       -0.000066356643    -0.000852797032     0.001481782397
       5       -0.000071657389    -0.000018091481     0.000021527286
       6       -0.000003632682    -0.000004973987    -0.000000334772
       7       -0.000006851298    -0.000003055931     0.000027302149
       8        0.000007779902     0.000008566037     0.000003380628
       9        0.000002248848    -0.000009791847     0.000009517850
      10       -0.000012752172     0.000000666222    -0.000007572948
      11        0.000007579272    -0.000015559708    -0.000026051227
      12       -0.000002246186     0.000001975426    -0.000007143824
      13        0.000000863883     0.000007243242     0.000002920821

  **** Optimization is complete! (in 6 steps) ****
    Final optimized geometry and variables:
    Molecular point group: c1

    Geometry (in Angstrom), charge = 0, multiplicity = 1:

    H            2.701007891314     0.578999867700    -0.039715121175
    O            2.253375843951    -0.255300257059    -0.053405661994
    C            0.908042452694    -0.075642820219    -0.027193733704
    C            0.324442372570     1.015238452823     0.597360164434
    C            0.114349927589    -1.054455503561    -0.606462276599
    H            0.944095227545     1.762185740725     1.063809871124
    C           -1.056505245640     1.134982174825     0.621597354350
    H            0.587363166396    -1.895073769649    -1.079060326544
    C           -1.262339997944    -0.929737933442    -0.565778329601
    H           -1.503105381369     1.986886002458     1.102756462045
    C           -1.857478179123     0.165750226554     0.043414246522
    H           -1.873974690441    -1.690441252797    -1.017410404938
    H           -2.927859237102     0.259492991713     0.067820988785

  Mulliken Charges: (a.u.)
   Center  Symbol    Alpha    Beta     Spin     Total
       1     H     0.27231  0.27231  0.00000  0.45539
       2     O     4.38043  4.38043  0.00000 -0.76085
       3     C     2.80018  2.80018  0.00000  0.39964
       4     C     3.13859  3.13859  0.00000 -0.27719
       5     C     3.12184  3.12184  0.00000 -0.24369
       6     H     0.40271  0.40271  0.00000  0.19458
       7     C     3.09178  3.09178  0.00000 -0.18357
       8     H     0.39179  0.39179  0.00000  0.21641
       9     C     3.09231  3.09231  0.00000 -0.18462
      10     H     0.39833  0.39833  0.00000  0.20334
      11     C     3.11138  3.11138  0.00000 -0.22276
      12     H     0.39801  0.39801  0.00000  0.20398
      13     H     0.40033  0.40033  0.00000  0.19933

   Total alpha = 25.00000, Total beta = 25.00000, Total charge =  0.00000
