  ==> Input File <==

--------------------------------------------------------------------------
set {
	reference rhf
	basis 6-31G*
}

set_num_threads( 4 )
memory 2 gb

molecule MOL {
0 1

H	 -1.791754	 1.671825	 -0.070792
C	 -1.927320	 0.609555	 -0.250697
O	 -0.774054	 0.001095	 -0.743181
H	 -2.687531	 0.488852	 -1.010856
H	 -2.283653	 0.144693	 0.663700
C	 0.406953	 0.000033	 0.038965
C	 1.527284	 -0.003667	 -0.998752
C	 0.498933	 1.262172	 0.902524
C	 0.494271	 -1.259566	 0.906664
H	 1.452513	 0.873252	 -1.631882
H	 1.448863	 -0.881882	 -1.629595
H	 2.502020	 -0.005104	 -0.521731
H	 0.364280	 2.147110	 0.289513
H	 1.472180	 1.321775	 1.378800
H	 -0.247853	 1.275162	 1.689097
H	 0.356778	 -2.146106	 0.296587
H	 1.467182	 -1.320941	 1.383330
H	 -0.252763	 -1.267328	 1.693119

	symmetry c1
}
set optking {
	frozen_dihedral = ("
		2 3 6 7
	")
}

ee = optimize('scf')
oeprop('DIPOLE', 'QUADRUPOLE', 'MULLIKEN_CHARGES')
f=open( 'psi4out.xyz', 'w' )
f.write( "18  " )
f.write( str(ee) + "\n" )
f.write( MOL.save_string_xyz() )
f.close()
--------------------------------------------------------------------------

    Molecular point group: c1
  Charge       = 0
  Multiplicity = 1
  Basis Set: 6-31G*
  Basis Set:
  @DF-RHF Final Energy:  -271.17259383623372
    Total Energy =                       -271.1725938362336592
    Molecular point group: c1
  Basis Set: 6-31G*
  Basis Set:
  Basis Set: 6-31G*
  Basis Set:
  @DF-RHF Final Energy:  -271.17326599452031
    Total Energy =                       -271.1732659945200794
  Basis Set: 6-31G*
  Basis Set:
  Basis Set: 6-31G*
  Basis Set:
  @DF-RHF Final Energy:  -271.17375851232606
    Total Energy =                       -271.1737585123259464
  Basis Set: 6-31G*
  Basis Set:
  Basis Set: 6-31G*
  Basis Set:
  @DF-RHF Final Energy:  -271.17379723869590
    Total Energy =                       -271.1737972386959541
  Basis Set: 6-31G*
  Basis Set:
  Basis Set: 6-31G*
  Basis Set:
  @DF-RHF Final Energy:  -271.17380171594993
    Total Energy =                       -271.1738017159499350
  Basis Set: 6-31G*
  Basis Set:
  Charge       = 0
  Multiplicity = 1
  Basis Set: 6-31G*
  Basis Set:

    Orbital Energies (a.u.)
    -----------------------

    Doubly Occupied:

       1A    -20.545330     2A    -11.281476     3A    -11.261634
       4A    -11.212247     5A    -11.205484     6A    -11.203340
       7A     -1.368507     8A     -1.073377     9A     -0.948975
      10A     -0.937098    11A     -0.911700    12A     -0.751780
      13A     -0.656126    14A     -0.645783    15A     -0.637199
      16A     -0.587434    17A     -0.574329    18A     -0.551328
      19A     -0.537348    20A     -0.525022    21A     -0.514959
      22A     -0.491258    23A     -0.484006    24A     -0.440173
      25A     -0.400150

  @DF-RHF Final Energy:  -271.17380223816190

   => Energetics <=

    Nuclear Repulsion Energy =            272.1646100619457229
    One-Electron Energy =                -907.1847002415915995
    Two-Electron Energy =                 363.8462879414842064
    DFT Exchange-Correlation Energy =       0.0000000000000000
    Empirical Dispersion Energy =           0.0000000000000000
    PCM Polarization Energy =               0.0000000000000000
    EFP Energy =                            0.0000000000000000
    Total Energy =                       -271.1738022381616702
    Molecular point group: c1
  Basis Set: 6-31G*
  Basis Set:

  -Total Gradient:
     Atom            X                  Y                   Z
    ------   -----------------  -----------------  -----------------
       1       -0.000003600850    -0.000001615558     0.000006227650
       2        0.000859850761     0.002881368544    -0.001419518258
       3       -0.001246430622    -0.003598549904     0.002238863495
       4       -0.000002246101     0.000003141436    -0.000002492023
       5        0.000008539713    -0.000009771112     0.000001313900
       6        0.000519424121    -0.001990770748    -0.000741846697
       7        0.000030261835     0.002704962508    -0.000062227487
       8       -0.000026122614    -0.000013700018     0.000006638368
       9       -0.000096531248     0.000015368605    -0.000002734774
      10        0.000013554719    -0.000004186194    -0.000006335901
      11        0.000005769066     0.000007813385    -0.000004212377
      12        0.000013587340    -0.000006245699    -0.000014782486
      13       -0.000013397105    -0.000011333726    -0.000000587065
      14       -0.000007464454     0.000000340911    -0.000014485397
      15       -0.000017171634     0.000008911628     0.000028360649
      16       -0.000001576992    -0.000012892232     0.000000457002
      17       -0.000022100989     0.000042767615    -0.000040726161
      18       -0.000014344942    -0.000015609440     0.000028087562

  **** Optimization is complete! (in 6 steps) ****
    Final optimized geometry and variables:
    Molecular point group: c1

    Geometry (in Angstrom), charge = 0, multiplicity = 1:

    H           -1.876733935669     1.550164487979    -0.152154523547
    C           -1.958555851174     0.469969927508    -0.217826489639
    O           -0.797043551983    -0.121700615617    -0.708834199450
    H           -2.746207259276     0.229223271172    -0.919443177015
    H           -2.243719811670     0.083862169670     0.758094851487
    C            0.398510945864    -0.095317350701     0.056540888839
    C            1.519467935139    -0.092970938155    -0.980853567853
    C            0.522189206355     1.156946531859     0.931745344352
    C            0.447398665758    -1.357974199271     0.918504648186
    H            1.470761605894     0.808101267375    -1.581850477119
    H            1.416946968373    -0.944931401815    -1.643714761944
    H            2.494241195573    -0.141768298582    -0.505551114445
    H            0.438736571421     2.059695554319     0.335854222098
    H            1.493890369569     1.165391708534     1.413702466564
    H           -0.228846083855     1.191090033458     1.713344086471
    H            0.373677430684    -2.239410946314     0.291455025803
    H            1.372516267845    -1.412680608228     1.484103232500
    H           -0.377177403358    -1.377593169972     1.624519033654

  Mulliken Charges: (a.u.)
   Center  Symbol    Alpha    Beta     Spin     Total
       1     H     0.42804  0.42804  0.00000  0.14392
       2     C     3.07733  3.07733  0.00000 -0.15467
       3     O     4.32193  4.32193  0.00000 -0.64387
       4     H     0.41253  0.41253  0.00000  0.17495
       5     H     0.43213  0.43213  0.00000  0.13573
       6     C     2.84128  2.84128  0.00000  0.31744
       7     C     3.23218  3.23218  0.00000 -0.46436
       8     C     3.25635  3.25635  0.00000 -0.51270
       9     C     3.23566  3.23566  0.00000 -0.47131
      10     H     0.41688  0.41688  0.00000  0.16624
      11     H     0.41317  0.41317  0.00000  0.17367
      12     H     0.42558  0.42558  0.00000  0.14884
      13     H     0.41433  0.41433  0.00000  0.17135
      14     H     0.41563  0.41563  0.00000  0.16873
      15     H     0.41777  0.41777  0.00000  0.16446
      16     H     0.41354  0.41354  0.00000  0.17291
      17     H     0.42429  0.42429  0.00000  0.15142
      18     H     0.42138  0.42138  0.00000  0.15724

   Total alpha = 25.00000, Total beta = 25.00000, Total charge = -0.00000
