  ==> Input File <==

--------------------------------------------------------------------------
set {
	reference rhf
	basis 6-31G*
}

set_num_threads( 4 )
memory 2 gb

molecule MOL {
0 1

O	 -2.034133	 -0.038433	 0.813963
C	 -1.083277	 0.139568	 0.115197
C	 0.323299	 -0.082943	 0.642902
C	 -1.225237	 0.616549	 -1.313147
C	 1.355627	 -0.005344	 -0.493127
H	 0.396251	 -1.044647	 1.143147
H	 0.528637	 0.693580	 1.371677
C	 2.786168	 -0.195604	 0.007473
H	 1.132807	 -0.760304	 -1.243899
H	 1.259610	 0.958506	 -0.981915
H	 3.495561	 -0.130713	 -0.811210
H	 2.912696	 -1.165395	 0.480041
H	 3.049284	 0.565503	 0.735850
H	 -0.594448	 1.481860	 -1.494833
H	 -2.257120	 0.864224	 -1.519572
H	 -0.899203	 -0.165992	 -1.993245

	symmetry c1
}
set optking {
	frozen_dihedral = ("
		4 2 3 5
	")
}

ee = optimize('scf')
oeprop('DIPOLE', 'QUADRUPOLE', 'MULLIKEN_CHARGES')
f=open( 'psi4out.xyz', 'w' )
f.write( "16  " )
f.write( str(ee) + "\n" )
f.write( MOL.save_string_xyz() )
f.close()
--------------------------------------------------------------------------

    Molecular point group: c1
  Charge       = 0
  Multiplicity = 1
  Basis Set: 6-31G*
  Basis Set:
  @DF-RHF Final Energy:  -270.02271035916232
    Total Energy =                       -270.0227103591621471
    Molecular point group: c1
  Basis Set: 6-31G*
  Basis Set:
  Basis Set: 6-31G*
  Basis Set:
  @DF-RHF Final Energy:  -270.02527314797743
    Total Energy =                       -270.0252731479774866
  Basis Set: 6-31G*
  Basis Set:
  Basis Set: 6-31G*
  Basis Set:
  @DF-RHF Final Energy:  -270.02755628175919
    Total Energy =                       -270.0275562817593595
  Basis Set: 6-31G*
  Basis Set:
  Basis Set: 6-31G*
  Basis Set:
  @DF-RHF Final Energy:  -270.02784799314009
    Total Energy =                       -270.0278479931401421
  Basis Set: 6-31G*
  Basis Set:
  @DF-RHF Final Energy:  -270.02694737426941
    Total Energy =                       -270.0269473742697528
  @DF-RHF Final Energy:  -270.02789418317639
    Total Energy =                       -270.0278941831764996
  @DF-RHF Final Energy:  -270.02652753596419
    Total Energy =                       -270.0265275359643056
  Basis Set: 6-31G*
  Basis Set:
  @DF-RHF Final Energy:  -270.02780650901167
    Total Energy =                       -270.0278065090117252
  Basis Set: 6-31G*
  Basis Set:
  Basis Set: 6-31G*
  Basis Set:
  @DF-RHF Final Energy:  -270.02793833746375
    Total Energy =                       -270.0279383374639792
  Basis Set: 6-31G*
  Basis Set:
  Basis Set: 6-31G*
  Basis Set:
  @DF-RHF Final Energy:  -270.02793962623832
    Total Energy =                       -270.0279396262382079
  Basis Set: 6-31G*
  Basis Set:
  Charge       = 0
  Multiplicity = 1
  Basis Set: 6-31G*
  Basis Set:

    Orbital Energies (a.u.)
    -----------------------

    Doubly Occupied:

       1A    -20.545612     2A    -11.326487     3A    -11.233862
       4A    -11.231429     5A    -11.228057     6A    -11.221384
       7A     -1.392838     8A     -1.084876     9A     -1.008734
      10A     -0.952350    11A     -0.834926    12A     -0.733403
      13A     -0.656086    14A     -0.652511    15A     -0.623832
      16A     -0.597862    17A     -0.576838    18A     -0.553629
      19A     -0.539181    20A     -0.520808    21A     -0.503986
      22A     -0.490431    23A     -0.468541    24A     -0.397844

  @DF-RHF Final Energy:  -270.02793986869233

   => Energetics <=

    Nuclear Repulsion Energy =            236.5693743818033283
    One-Electron Energy =                -834.4436092948968735
    Two-Electron Energy =                 327.8462950444010175
    DFT Exchange-Correlation Energy =       0.0000000000000000
    Empirical Dispersion Energy =           0.0000000000000000
    PCM Polarization Energy =               0.0000000000000000
    EFP Energy =                            0.0000000000000000
    Total Energy =                       -270.0279398686925560
    Molecular point group: c1
  Basis Set: 6-31G*
  Basis Set:

  -Total Gradient:
     Atom            X                  Y                   Z
    ------   -----------------  -----------------  -----------------
       1        0.000000796214     0.000001932350    -0.000001173515
       2        0.000078894526     0.001335506729     0.000374670273
       3       -0.000116198280    -0.001351212536    -0.000242905516
       4       -0.000027180250    -0.000622096898    -0.000203912995
       5        0.000068182989     0.000669471211     0.000095041954
       6        0.000009495907    -0.000002200123    -0.000007065991
       7       -0.000003310996     0.000006237562     0.000003114206
       8       -0.000004300473     0.000008952830    -0.000000479842
       9       -0.000001687356    -0.000003369352    -0.000001895148
      10        0.000003103109    -0.000000046571     0.000003193781
      11       -0.000001793863     0.000007808553     0.000001572381
      12        0.000002061753    -0.000003412794    -0.000007820323
      13       -0.000003741248    -0.000003061620     0.000006007174
      14       -0.000006503487    -0.000018484330    -0.000014836726
      15        0.000001396629    -0.000007364579    -0.000006397457
      16        0.000000784825    -0.000018660432     0.000002887743

  **** Optimization is complete! (in 11 steps) ****
    Final optimized geometry and variables:
    Molecular point group: c1

    Geometry (in Angstrom), charge = 0, multiplicity = 1:

    O           -2.015544281646    -0.108624844004     0.911688671505
    C           -1.128405676371     0.085820547107     0.137296629417
    C            0.313458280278    -0.128797060022     0.586049967246
    C           -1.418932671790     0.553015144788    -1.272608876836
    C            1.412763014487    -0.087309326241    -0.477147821212
    H            0.330062418240    -1.077662952417     1.113252901219
    H            0.506016138935     0.630722011674     1.341259113038
    C            2.797285414891    -0.316586597744     0.128836960353
    H            1.226898730812    -0.844451154598    -1.234551292802
    H            1.403309103121     0.870632775522    -0.989235335760
    H            3.567268262779    -0.284249040567    -0.635048822086
    H            2.855636987830    -1.284152314322     0.618352666469
    H            3.031831915471     0.442829636710     0.868983268510
    H           -0.933665803885     1.503918706526    -1.470951917725
    H           -2.487466769870     0.661360909298    -1.394078939634
    H           -1.041638719722    -0.158816515229    -1.999892832846

  Mulliken Charges: (a.u.)
   Center  Symbol    Alpha    Beta     Spin     Total
       1     O     4.26333  4.26333  0.00000 -0.52666
       2     C     2.73727  2.73727  0.00000  0.52546
       3     C     3.20348  3.20348  0.00000 -0.40696
       4     C     3.29192  3.29192  0.00000 -0.58384
       5     C     3.16154  3.16154  0.00000 -0.32309
       6     H     0.39936  0.39936  0.00000  0.20128
       7     H     0.40187  0.40187  0.00000  0.19626
       8     C     3.24025  3.24025  0.00000 -0.48049
       9     H     0.41868  0.41868  0.00000  0.16265
      10     H     0.41894  0.41894  0.00000  0.16211
      11     H     0.41561  0.41561  0.00000  0.16879
      12     H     0.41820  0.41820  0.00000  0.16360
      13     H     0.41895  0.41895  0.00000  0.16209
      14     H     0.40807  0.40807  0.00000  0.18386
      15     H     0.39534  0.39534  0.00000  0.20932
      16     H     0.40720  0.40720  0.00000  0.18561

   Total alpha = 24.00000, Total beta = 24.00000, Total charge = -0.00000
