  ==> Input File <==

--------------------------------------------------------------------------
set {
	reference rhf
	basis cc-pvtz
}

set_num_threads( 4 )
memory 2 gb

molecule MOL {
0 1

H	 1.166964	 -1.062386	 0.758429
O	 1.324748	 -0.612467	 -0.052206
C	 0.706474	 0.636793	 -0.025501
C	 -0.644764	 0.652387	 0.631421
H	 0.604818	 0.950807	 -1.057665
H	 1.342402	 1.373902	 0.461290
C	 -1.301002	 -0.400646	 1.065909
H	 -1.081992	 1.631788	 0.735596
H	 -0.906463	 -1.393659	 0.964731
H	 -2.265112	 -0.301500	 1.527128

	symmetry c1
}
set optking {
	frozen_dihedral = ("
		5 3 2 1
	")
}

ee = optimize('scf')
oeprop('DIPOLE', 'QUADRUPOLE', 'MULLIKEN_CHARGES')
f=open( 'psi4out.xyz', 'w' )
f.write( "10  " )
f.write( str(ee) + "\n" )
f.write( MOL.save_string_xyz() )
f.close()
--------------------------------------------------------------------------

    Molecular point group: c1
  Charge       = 0
  Multiplicity = 1
  Basis Set: CC-PVTZ
  Basis Set:
  @DF-RHF Final Energy:  -191.99758845842916
    Total Energy =                       -191.9975884584291634
    Molecular point group: c1
  Basis Set: CC-PVTZ
  Basis Set:
  Basis Set: CC-PVTZ
  Basis Set:
  @DF-RHF Final Energy:  -191.99774774035927
    Total Energy =                       -191.9977477403592161
  Basis Set: CC-PVTZ
  Basis Set:
  Basis Set: CC-PVTZ
  Basis Set:
  @DF-RHF Final Energy:  -191.99779833181407
    Total Energy =                       -191.9977983318143231
  Basis Set: CC-PVTZ
  Basis Set:
  Basis Set: CC-PVTZ
  Basis Set:
  @DF-RHF Final Energy:  -191.99779958257906
    Total Energy =                       -191.9977995825790344
  Basis Set: CC-PVTZ
  Basis Set:
  Charge       = 0
  Multiplicity = 1
  Basis Set: CC-PVTZ
  Basis Set:

    Orbital Energies (a.u.)
    -----------------------

    Doubly Occupied:

       1A    -20.552983     2A    -11.278277     3A    -11.235827
       4A    -11.221894     5A     -1.374104     6A     -1.065766
       7A     -0.935241     8A     -0.775838     9A     -0.689624
      10A     -0.665630    11A     -0.626841    12A     -0.573410
      13A     -0.551805    14A     -0.488520    15A     -0.456530
      16A     -0.372943

  @DF-RHF Final Energy:  -191.99779984963027

   => Energetics <=

    Nuclear Repulsion Energy =            119.6144593900758650
    One-Electron Energy =                -497.4940548810999417
    Two-Electron Energy =                 185.8817956413938077
    DFT Exchange-Correlation Energy =       0.0000000000000000
    Empirical Dispersion Energy =           0.0000000000000000
    PCM Polarization Energy =               0.0000000000000000
    EFP Energy =                            0.0000000000000000
    Total Energy =                       -191.9977998496302689
    Molecular point group: c1
  Basis Set: CC-PVTZ
  Basis Set:

  -Total Gradient:
     Atom            X                  Y                   Z
    ------   -----------------  -----------------  -----------------
       1       -0.002282927429    -0.001195214375    -0.000923144466
       2        0.002350841274     0.001211525213     0.001138789667
       3        0.002036774737     0.001029468930    -0.000193724476
       4       -0.000052856753    -0.000051126633    -0.000018285424
       5       -0.002064813676    -0.001053155761     0.000008544799
       6        0.000004593966    -0.000004064684    -0.000026347633
       7        0.000029968059     0.000047345868    -0.000011325716
       8       -0.000019804213     0.000019945852     0.000016083643
       9        0.000005523811    -0.000002189978    -0.000001340517
      10       -0.000007299780    -0.000002534429     0.000010750124

  **** Optimization is complete! (in 5 steps) ****
    Final optimized geometry and variables:
    Molecular point group: c1

    Geometry (in Angstrom), charge = 0, multiplicity = 1:

    H            1.129536800153    -1.065112090478     0.405595392581
    O            1.253481315850    -0.642196788218    -0.424890476063
    C            0.613054837180     0.596020262840    -0.424784085079
    C           -0.728689595083     0.613318387193     0.252331686179
    H            0.471686678346     0.874385772254    -1.463119753683
    H            1.244859810670     1.355395498461     0.030341781806
    C           -1.410848762402    -0.436839966563     0.653800424133
    H           -1.141947751209     1.597276919101     0.398919174893
    H           -1.056343693362    -1.440304002088     0.509337851373
    H           -2.365872191361    -0.327522519952     1.130917269900

  Mulliken Charges: (a.u.)
   Center  Symbol    Alpha    Beta     Spin     Total
       1     H     0.39065  0.39065  0.00000  0.21870
       2     O     4.20100  4.20100  0.00000 -0.40200
       3     C     2.94331  2.94331  0.00000  0.11338
       4     C     3.08275  3.08275  0.00000 -0.16550
       5     H     0.45676  0.45676  0.00000  0.08648
       6     H     0.46979  0.46979  0.00000  0.06042
       7     C     3.17697  3.17697  0.00000 -0.35395
       8     H     0.42259  0.42259  0.00000  0.15482
       9     H     0.42862  0.42862  0.00000  0.14277
      10     H     0.42756  0.42756  0.00000  0.14488

   Total alpha = 16.00000, Total beta = 16.00000, Total charge =  0.00000
