                              Psi4 1.0.54 Driver

  ==> Input File <==

--------------------------------------------------------------------------
set {
	reference rhf
	basis cc-pvtz
}

set_num_threads( 4 )
memory 2 gb

molecule MOL {
0 1

H	 -0.000105	 1.988529	 0.748933
O	 -0.000098	 1.879786	 -0.188206
C	 -0.000014	 0.545691	 -0.532416
C	 -0.337874	 -0.314303	 0.686616
C	 1.315355	 0.178030	 -1.221187
H	 -0.787393	 0.389325	 -1.255082
F	 -1.520898	 0.021317	 1.139024
F	 -0.363754	 -1.591948	 0.402599
F	 0.528849	 -0.128041	 1.658970
F	 1.458692	 0.908630	 -2.299397
F	 1.354440	 -1.080274	 -1.580151
F	 2.347253	 0.413497	 -0.439447

	symmetry c1
}
set optking {
	frozen_dihedral = ("
		6 3 2 1
	")
}

ee,wfn = optimize('scf', return_wfn=True)
oeprop( wfn, 'DIPOLE', 'QUADRUPOLE', 'MULLIKEN_CHARGES')
f=open( 'psi4out.xyz', 'w' )
f.write( "12  " )
f.write( str(ee) + "\n" )
f.write( MOL.save_string_xyz() )
f.close()
--------------------------------------------------------------------------

    Molecular point group: c1
  Charge       = 0
  Multiplicity = 1
  Basis Set: CC-PVTZ
  Basis Set:
  @DF-RHF Final Energy:  -786.58542814195403
    Total Energy =                       -786.5854281419539120
    Molecular point group: c1
  Basis Set: CC-PVTZ
  Basis Set:
  Basis Set: CC-PVTZ
  Basis Set:
  @DF-RHF Final Energy:  -786.58599235127235
    Total Energy =                       -786.5859923512728074
  Basis Set: CC-PVTZ
  Basis Set:
  Basis Set: CC-PVTZ
  Basis Set:
  @DF-RHF Final Energy:  -786.58610895081335
    Total Energy =                       -786.5861089508132409
  Basis Set: CC-PVTZ
  Basis Set:
  Basis Set: CC-PVTZ
  Basis Set:
  @DF-RHF Final Energy:  -786.58612216536892
    Total Energy =                       -786.5861221653689199
  Basis Set: CC-PVTZ
  Basis Set:
  Basis Set: CC-PVTZ
  Basis Set:
  @DF-RHF Final Energy:  -786.58612385839081
    Total Energy =                       -786.5861238583904651
  Basis Set: CC-PVTZ
  Basis Set:
  Charge       = 0
  Multiplicity = 1
  Basis Set: CC-PVTZ
  Basis Set:

    Orbital Energies (a.u.)
    -----------------------

    Doubly Occupied:

       1A    -26.364258     2A    -26.363820     3A    -26.361774
       4A    -26.351492     5A    -26.350674     6A    -26.348170
       7A    -20.607860     8A    -11.527168     9A    -11.514286
      10A    -11.351896    11A     -1.776797    12A     -1.762618
      13A     -1.672860    14A     -1.668802    15A     -1.658243
      16A     -1.656419    17A     -1.437172    18A     -1.104824
      19A     -1.003088    20A     -0.944751    21A     -0.875519
      22A     -0.869469    23A     -0.862922    24A     -0.849751
      25A     -0.839013    26A     -0.811854    27A     -0.752116
      28A     -0.739497    29A     -0.727456    30A     -0.724913
      31A     -0.704218    32A     -0.696809    33A     -0.691910
      34A     -0.678241    35A     -0.674228    36A     -0.673196
      37A     -0.659810    38A     -0.657511    39A     -0.622239
      40A     -0.551147    41A     -0.508063

  @DF-RHF Final Energy:  -786.58612412810839

   => Energetics <=

    Nuclear Repulsion Energy =            670.9836476369550837
    One-Electron Energy =               -2429.1458369762708571
    Two-Electron Energy =                 971.5760652112071512
    DFT Exchange-Correlation Energy =       0.0000000000000000
    Empirical Dispersion Energy =           0.0000000000000000
    PCM Polarization Energy =               0.0000000000000000
    EFP Energy =                            0.0000000000000000
    Total Energy =                       -786.5861241281086222
    Molecular point group: c1
  Basis Set: CC-PVTZ
  Basis Set:

  -Total Gradient:
     Atom            X                  Y                   Z
    ------   -----------------  -----------------  -----------------
       1       -0.002507157273    -0.000048736836    -0.000076373063
       2        0.002786243512    -0.000068687985     0.000505359357
       3        0.001154491871     0.000511438303    -0.001989175985
       4        0.000045654217    -0.000001066919     0.000006018858
       5        0.000011612894     0.000077661999     0.000051279412
       6       -0.001421568355    -0.000394930169     0.001544323020
       7       -0.000093877724    -0.000003024219     0.000009481254
       8        0.000014940850     0.000016047789     0.000015806370
       9        0.000010277778    -0.000029059935    -0.000010706370
      10        0.000017883346    -0.000011404145    -0.000005526333
      11        0.000000328428    -0.000024461953     0.000016843778
      12       -0.000018829543    -0.000023775926    -0.000067330297

  **** Optimization is complete! (in 6 steps) ****
    Final optimized geometry and variables:
    Molecular point group: c1

    Geometry (in Angstrom), charge = 0, multiplicity = 1:

    H           -0.580885061379     1.964654401375     0.899163626964
    O           -0.541718227416     1.810124087208    -0.028261264157
    C           -0.500250564351     0.464603833386    -0.339113498905
    C           -0.858566774219    -0.394410913263     0.872378436057
    C            0.863064185338     0.142700263423    -0.951353364050
    H           -1.248423168828     0.242639861579    -1.088963947860
    F           -2.092064650527    -0.121334601069     1.238537513872
    F           -0.787185975527    -1.672259873764     0.614782153549
    F           -0.082821622168    -0.134292801778     1.901731088635
    F            1.075771496853     0.935719503266    -1.971684347406
    F            0.910761727446    -1.093780452529    -1.389547600941
    F            1.841790627591     0.310427175927    -0.095878866243

  Mulliken Charges: (a.u.)
   Center  Symbol    Alpha    Beta     Spin     Total
       1     H     0.38189  0.38189  0.00000  0.23623
       2     O     4.19009  4.19009  0.00000 -0.38018
       3     C     2.99851  2.99851  0.00000  0.00298
       4     C     2.68783  2.68783  0.00000  0.62433
       5     C     2.68009  2.68009  0.00000  0.63983
       6     H     0.43457  0.43457  0.00000  0.13085
       7     F     4.60653  4.60653  0.00000 -0.21307
       8     F     4.59798  4.59798  0.00000 -0.19596
       9     F     4.60860  4.60860  0.00000 -0.21720
      10     F     4.60174  4.60174  0.00000 -0.20348
      11     F     4.60602  4.60602  0.00000 -0.21205
      12     F     4.60614  4.60614  0.00000 -0.21229

   Total alpha = 41.00000, Total beta = 41.00000, Total charge =  0.00000

*** Psi4 exiting successfully. Buy a developer a beer!
