                              Psi4 1.0.54 Driver

  ==> Input File <==

--------------------------------------------------------------------------
set {
	reference rhf
	basis cc-pvtz
}

set_num_threads( 4 )
memory 2 gb

molecule MOL {
0 1

H	 5.269878	 0.195679	 1.068175
C	 4.673900	 -0.208485	 0.258034
C	 3.190199	 -0.204714	 0.610086
H	 4.865136	 0.391893	 -0.624684
H	 5.027838	 -1.214511	 0.056939
C	 2.319208	 -0.778154	 -0.505491
H	 2.876954	 0.809861	 0.827925
H	 3.035335	 -0.782733	 1.518235
C	 2.335851	 -2.301687	 -0.579364
H	 1.297665	 -0.442570	 -0.376410
H	 2.662350	 -0.387118	 -1.458973
C	 1.592199	 -2.999671	 0.546817
H	 1.864703	 -2.631174	 -1.501982
H	 3.353868	 -2.678011	 -0.618621
C	 1.885391	 -4.470234	 0.772326
O	 0.794080	 -2.427244	 1.216599
C	 1.491711	 -5.365984	 -0.407085
H	 1.347471	 -4.767761	 1.662246
H	 2.948191	 -4.581695	 0.970389
C	 1.710550	 -6.847310	 -0.111361
H	 0.445491	 -5.198923	 -0.648146
H	 2.061261	 -5.092738	 -1.289666
C	 1.315632	 -7.750710	 -1.274561
H	 1.140513	 -7.123589	 0.770569
H	 2.755550	 -7.012513	 0.136140
H	 0.266999	 -7.630467	 -1.524744
H	 1.895198	 -7.522503	 -2.162867
H	 1.479873	 -8.794066	 -1.032191

	symmetry c1
}
set optking {
	frozen_dihedral = ("
		10 6 3 2
	")
}

ee,wfn = optimize('scf', return_wfn=True)
oeprop( wfn, 'DIPOLE', 'QUADRUPOLE', 'MULLIKEN_CHARGES')
f=open( 'psi4out.xyz', 'w' )
f.write( "28  " )
f.write( str(ee) + "\n" )
f.write( MOL.save_string_xyz() )
f.close()
--------------------------------------------------------------------------

    Molecular point group: c1
  Charge       = 0
  Multiplicity = 1
  Basis Set: CC-PVTZ
  Basis Set:
  @DF-RHF Final Energy:  -426.31732411895416
    Total Energy =                       -426.3173241189541613
    Molecular point group: c1
  Basis Set: CC-PVTZ
  Basis Set:
  Basis Set: CC-PVTZ
  Basis Set:
  @DF-RHF Final Energy:  -426.31756413346329
    Total Energy =                       -426.3175641334637476
  Basis Set: CC-PVTZ
  Basis Set:
  Basis Set: CC-PVTZ
  Basis Set:
  @DF-RHF Final Energy:  -426.31749849040102
    Total Energy =                       -426.3174984904012490
  Basis Set: CC-PVTZ
  Basis Set:
  Basis Set: CC-PVTZ
  Basis Set:
  @DF-RHF Final Energy:  -426.31756675690383
    Total Energy =                       -426.3175667569034886
  Basis Set: CC-PVTZ
  Basis Set:
  @DF-RHF Final Energy:  -426.31764064770880
    Total Energy =                       -426.3176406477089131
  Basis Set: CC-PVTZ
  Basis Set:
  @DF-RHF Final Energy:  -426.31764198427175
    Total Energy =                       -426.3176419842716314
  Basis Set: CC-PVTZ
  Basis Set:
  Basis Set: CC-PVTZ
  Basis Set:
  @DF-RHF Final Energy:  -426.31764561810587
    Total Energy =                       -426.3176456181065532
  Basis Set: CC-PVTZ
  Basis Set:
  Basis Set: CC-PVTZ
  Basis Set:
  @DF-RHF Final Energy:  -426.31764666429285
    Total Energy =                       -426.3176466642929654
  Basis Set: CC-PVTZ
  Basis Set:
  Charge       = 0
  Multiplicity = 1
  Basis Set: CC-PVTZ
  Basis Set:

    Orbital Energies (a.u.)
    -----------------------

    Doubly Occupied:

       1A    -20.536542     2A    -11.316304     3A    -11.229778
       4A    -11.228032     5A    -11.226825     6A    -11.223756
       7A    -11.214786     8A    -11.214187     9A    -11.211314
      10A    -11.207680    11A     -1.396432    12A     -1.096105
      13A     -1.078750    14A     -1.022982    15A     -0.990610
      16A     -0.910734    17A     -0.879328    18A     -0.809220
      19A     -0.797491    20A     -0.721540    21A     -0.667308
      22A     -0.652721    23A     -0.641339    24A     -0.621899
      25A     -0.605601    26A     -0.598446    27A     -0.577427
      28A     -0.564919    29A     -0.542029    30A     -0.539365
      31A     -0.526799    32A     -0.510167    33A     -0.502890
      34A     -0.485601    35A     -0.480289    36A     -0.476583
      37A     -0.470020    38A     -0.461207    39A     -0.458920
      40A     -0.394089

  @DF-RHF Final Energy:  -426.31764679642458

   => Energetics <=

    Nuclear Repulsion Energy =            535.8286751725038357
    One-Electron Energy =               -1640.1126110403261009
    Two-Electron Energy =                 677.9662890713976822
    DFT Exchange-Correlation Energy =       0.0000000000000000
    Empirical Dispersion Energy =           0.0000000000000000
    PCM Polarization Energy =               0.0000000000000000
    EFP Energy =                            0.0000000000000000
    Total Energy =                       -426.3176467964245830
    Molecular point group: c1
  Basis Set: CC-PVTZ
  Basis Set:

  -Total Gradient:
     Atom            X                  Y                   Z
    ------   -----------------  -----------------  -----------------
       1        0.000000064661     0.000000466853     0.000003333447
       2       -0.000174788350     0.001202567500    -0.000529547690
       3        0.000319521619    -0.001349879240     0.000493764527
       4        0.000006798014     0.000003056761    -0.000003423091
       5       -0.000004280869    -0.000004682435    -0.000000664392
       6       -0.000422883649    -0.001286760230     0.001065684963
       7        0.000004550619    -0.000002613090    -0.000008886276
       8       -0.000007711614     0.000002575352     0.000016005511
       9        0.000027224618    -0.000005771838     0.000000469728
      10        0.000271513761     0.001445492138    -0.001032853680
      11       -0.000003752554    -0.000006016329     0.000002948981
      12        0.000006490224    -0.000003602864     0.000011409550
      13       -0.000008844349     0.000003081442    -0.000002550484
      14        0.000000816576    -0.000002481154    -0.000003088131
      15       -0.000025574747    -0.000005433600    -0.000019545993
      16       -0.000004033986    -0.000002375590    -0.000000366623
      17        0.000011551681    -0.000006804835     0.000006074510
      18        0.000004761886     0.000004609725    -0.000000012403
      19        0.000007037763     0.000013580063     0.000006336134
      20       -0.000007302323     0.000004519661     0.000003337428
      21        0.000003686479    -0.000004879484    -0.000002851708
      22       -0.000005975864    -0.000008467780     0.000004594772
      23        0.000002509404    -0.000003872977    -0.000007442485
      24        0.000003917266     0.000005294069    -0.000004994043
      25       -0.000006372888     0.000004865242     0.000000604620
      26        0.000007207678    -0.000001536936     0.000001111693
      27       -0.000005270557    -0.000003398266     0.000003470402
      28       -0.000000860505     0.000008467846    -0.000002919265

  **** Optimization is complete! (in 9 steps) ****
    Final optimized geometry and variables:
    Molecular point group: c1

    Geometry (in Angstrom), charge = 0, multiplicity = 1:

    H            3.121181615271     3.649457403412     0.970992969646
    C            2.530867658583     3.205355656049     0.177714515038
    C            1.052419677529     3.161917127386     0.557393408230
    H            2.684075227594     3.796764232487    -0.718885415289
    H            2.934162605566     2.215685967904    -0.009269623764
    C            0.148802177589     2.559479124496    -0.523373628381
    H            0.719968514060     4.176123178738     0.752648201794
    H            0.921891781797     2.622107051273     1.488441285439
    C            0.189992429500     1.036675726302    -0.616896052795
    H           -0.872478453755     2.872883935580    -0.354055777793
    H            0.437960117658     2.967216708805    -1.487982779365
    C           -0.498357708243     0.315454300021     0.529763580486
    H           -0.313097199383     0.712499308050    -1.524303201777
    H            1.207368144998     0.669487392294    -0.703157433488
    C           -0.198559367086    -1.160626424212     0.706843741196
    O           -1.259248125266     0.873413364032     1.252764042948
    C           -0.670727249092    -2.030202104951    -0.463368535445
    H           -0.681825379263    -1.474144449820     1.622259189779
    H            0.873782124768    -1.281367856659     0.835701742806
    C           -0.443654299626    -3.518277163194    -0.211377923502
    H           -1.728761644861    -1.852662342003    -0.635182053665
    H           -0.155427995071    -1.742274001091    -1.374136414061
    C           -0.911389353058    -4.395301645020    -1.367687914127
    H           -0.962594749111    -3.810171258407     0.696658379633
    H            0.613072877389    -3.693446762027    -0.029231691951
    H           -1.972386510669    -4.265832899254    -1.552500111033
    H           -0.384431689820    -4.150503750724    -2.283882962351
    H           -0.738256303898    -5.444136217186    -1.157352484397

  Mulliken Charges: (a.u.)
   Center  Symbol    Alpha    Beta     Spin     Total
       1     H     0.44640  0.44640  0.00000  0.10720
       2     C     3.14945  3.14945  0.00000 -0.29890
       3     C     3.09252  3.09252  0.00000 -0.18505
       4     H     0.45531  0.45531  0.00000  0.08938
       5     H     0.45895  0.45895  0.00000  0.08211
       6     C     3.09438  3.09438  0.00000 -0.18875
       7     H     0.44760  0.44760  0.00000  0.10481
       8     H     0.44654  0.44654  0.00000  0.10692
       9     C     3.13160  3.13160  0.00000 -0.26321
      10     H     0.43852  0.43852  0.00000  0.12296
      11     H     0.44865  0.44865  0.00000  0.10270
      12     C     2.86457  2.86457  0.00000  0.27086
      13     H     0.43302  0.43302  0.00000  0.13396
      14     H     0.44134  0.44134  0.00000  0.11732
      15     C     3.09371  3.09371  0.00000 -0.18742
      16     O     4.17787  4.17787  0.00000 -0.35574
      17     C     3.10083  3.10083  0.00000 -0.20165
      18     H     0.43776  0.43776  0.00000  0.12449
      19     H     0.44949  0.44949  0.00000  0.10103
      20     C     3.08729  3.08729  0.00000 -0.17458
      21     H     0.44558  0.44558  0.00000  0.10884
      22     H     0.45059  0.45059  0.00000  0.09881
      23     C     3.14921  3.14921  0.00000 -0.29841
      24     H     0.44979  0.44979  0.00000  0.10042
      25     H     0.45364  0.45364  0.00000  0.09272
      26     H     0.45341  0.45341  0.00000  0.09318
      27     H     0.45520  0.45520  0.00000  0.08959
      28     H     0.44680  0.44680  0.00000  0.10640

   Total alpha = 40.00000, Total beta = 40.00000, Total charge = -0.00000

*** Psi4 exiting successfully. Buy a developer a beer!
