                              Psi4 1.0.54 Driver

  ==> Input File <==

--------------------------------------------------------------------------
set {
	reference rhf
	basis cc-pvtz
}

set_num_threads( 4 )
memory 2 gb

molecule MOL {
0 1

H	 -4.230259	 0.539112	 0.036360
O	 -3.515113	 -0.019339	 -0.206321
C	 -2.302264	 0.528872	 0.237390
C	 -1.175688	 -0.398187	 -0.171891
H	 -2.148018	 1.514076	 -0.197759
H	 -2.310727	 0.646384	 1.319032
C	 0.196029	 0.106276	 0.266738
H	 -1.201873	 -0.515469	 -1.250677
H	 -1.365975	 -1.378728	 0.252664
C	 1.330220	 -0.826136	 -0.155230
H	 0.359542	 1.097229	 -0.145561
H	 0.212134	 0.218135	 1.348778
C	 2.719700	 -0.407669	 0.328325
H	 1.339388	 -0.911200	 -1.239363
H	 1.119001	 -1.821953	 0.224128
C	 2.935734	 1.100911	 0.422522
H	 3.457791	 -0.822338	 -0.351365
H	 2.913499	 -0.860578	 1.297216
H	 2.742211	 1.582142	 -0.530907
H	 2.288594	 1.558626	 1.161030
H	 3.958406	 1.325812	 0.703115

	symmetry c1
}
set optking {
	frozen_dihedral = ("
		16 13 10 14
	")
}

ee,wfn = optimize('scf', return_wfn=True)
oeprop( wfn, 'DIPOLE', 'QUADRUPOLE', 'MULLIKEN_CHARGES')
f=open( 'psi4out.xyz', 'w' )
f.write( "21  " )
f.write( str(ee) + "\n" )
f.write( MOL.save_string_xyz() )
f.close()
--------------------------------------------------------------------------

    Molecular point group: c1
  Charge       = 0
  Multiplicity = 1
  Basis Set: CC-PVTZ
  Basis Set:
  @DF-RHF Final Energy:  -310.32865598516736
    Total Energy =                       -310.3286559851671313
    Molecular point group: c1
  Basis Set: CC-PVTZ
  Basis Set:
  Basis Set: CC-PVTZ
  Basis Set:
  @DF-RHF Final Energy:  -310.32514810562486
    Total Energy =                       -310.3251481056248053
  Basis Set: CC-PVTZ
  Basis Set:
  Basis Set: CC-PVTZ
  Basis Set:
  @DF-RHF Final Energy:  -310.32934789574011
    Total Energy =                       -310.3293478957399429
  Basis Set: CC-PVTZ
  Basis Set:
  Basis Set: CC-PVTZ
  Basis Set:
  @DF-RHF Final Energy:  -310.32945377535538
    Total Energy =                       -310.3294537753554323
  Basis Set: CC-PVTZ
  Basis Set:
  Basis Set: CC-PVTZ
  Basis Set:
  @DF-RHF Final Energy:  -310.32944456917994
    Total Energy =                       -310.3294445691802821
  Basis Set: CC-PVTZ
  Basis Set:
  Basis Set: CC-PVTZ
  Basis Set:
  @DF-RHF Final Energy:  -310.32947247082137
    Total Energy =                       -310.3294724708214289
  Basis Set: CC-PVTZ
  Basis Set:
  Charge       = 0
  Multiplicity = 1
  Basis Set: CC-PVTZ
  Basis Set:

    Orbital Energies (a.u.)
    -----------------------

    Doubly Occupied:

       1A    -20.545437     2A    -11.265007     3A    -11.213619
       4A    -11.213284     5A    -11.211206     6A    -11.208980
       7A    -11.206007     8A     -1.363280     9A     -1.086583
      10A     -1.033346    11A     -0.955056    12A     -0.879721
      13A     -0.809480    14A     -0.773912    15A     -0.695980
      16A     -0.663555    17A     -0.627789    18A     -0.601099
      19A     -0.587139    20A     -0.575272    21A     -0.535464
      22A     -0.524943    23A     -0.509126    24A     -0.487163
      25A     -0.483879    26A     -0.457917    27A     -0.450562
      28A     -0.446075    29A     -0.437303

  @DF-RHF Final Energy:  -310.32947248161145

   => Energetics <=

    Nuclear Repulsion Energy =            313.6460944845077847
    One-Electron Energy =               -1042.2547664059177350
    Two-Electron Energy =                 418.2791994397983331
    DFT Exchange-Correlation Energy =       0.0000000000000000
    Empirical Dispersion Energy =           0.0000000000000000
    PCM Polarization Energy =               0.0000000000000000
    EFP Energy =                            0.0000000000000000
    Total Energy =                       -310.3294724816116172
    Molecular point group: c1
  Basis Set: CC-PVTZ
  Basis Set:

  -Total Gradient:
     Atom            X                  Y                   Z
    ------   -----------------  -----------------  -----------------
       1        0.000003346193     0.000002443705     0.000002424430
       2       -0.000003035011    -0.000011614506    -0.000001836881
       3        0.000015654168     0.000008406203     0.000003010796
       4       -0.000015939187    -0.000007240352     0.000012652685
       5       -0.000000347946    -0.000012958397     0.000002666755
       6       -0.000002383072    -0.000000824792    -0.000007179119
       7        0.000004757144     0.000025169926    -0.000024512487
       8        0.000003774039     0.000006711312     0.000011706074
       9        0.000000725158     0.000003809974    -0.000005765880
      10       -0.001552396963     0.007100824596     0.002097276765
      11       -0.000006780585    -0.000012086710     0.000001692868
      12        0.000007125835     0.000006230640    -0.000009211173
      13        0.002427464978    -0.000903026342    -0.005966434979
      14        0.000707007215    -0.005856337028    -0.000217145900
      15       -0.000007425811     0.000002427664    -0.000004311890
      16       -0.001576098110    -0.000361016459     0.004105155421
      17       -0.000003396444    -0.000006410738    -0.000003296159
      18        0.000009179761     0.000003602042    -0.000009131074
      19        0.000012650119    -0.000002322763    -0.000001432569
      20       -0.000021841424     0.000012089612     0.000003503206
      21       -0.000002040058     0.000002122413     0.000010169110

  **** Optimization is complete! (in 7 steps) ****
    Final optimized geometry and variables:
    Molecular point group: c1

    Geometry (in Angstrom), charge = 0, multiplicity = 1:

    H           -4.137548931325     0.921199957836    -0.032234199687
    O           -3.470238589760     0.338922248574    -0.344914470428
    C           -2.223478283864     0.704266131227     0.184685799280
    C           -1.175813332491    -0.255252595499    -0.342434427878
    H           -1.971394881593     1.722781789431    -0.102987346653
    H           -2.246145540391     0.667195578404     1.271864141734
    C            0.224831282337     0.053024568122     0.178529956537
    H           -1.186680362364    -0.214236971985    -1.427010738876
    H           -1.463744449870    -1.264362528305    -0.065928427034
    C            1.273491910791    -0.911094559297    -0.367204100724
    H            0.486467237190     1.073456186864    -0.082664998978
    H            0.223630975217     0.005679731059     1.265335136260
    C            2.699224724984    -0.761807153157     0.190993585452
    H            1.300312293855    -0.866422042561    -1.452870224243
    H            0.944950739879    -1.924751399423    -0.151747850942
    C            3.158436012722     0.664554419173     0.486542036741
    H            3.392784975354    -1.230753011606    -0.498436993633
    H            2.769685255935    -1.327916649448     1.115869860265
    H            3.104747868532     1.296242215118    -0.394764344342
    H            2.558601128152     1.125912232966     1.260807107307
    H            4.187880858423     0.665569656497     0.826307849906

  Mulliken Charges: (a.u.)
   Center  Symbol    Alpha    Beta     Spin     Total
       1     H     0.39765  0.39765  0.00000  0.20470
       2     O     4.19406  4.19406  0.00000 -0.38812
       3     C     2.96323  2.96323  0.00000  0.07355
       4     C     3.08488  3.08488  0.00000 -0.16977
       5     H     0.47497  0.47497  0.00000  0.05005
       6     H     0.47514  0.47514  0.00000  0.04972
       7     C     3.10459  3.10459  0.00000 -0.20918
       8     H     0.45095  0.45095  0.00000  0.09810
       9     H     0.45027  0.45027  0.00000  0.09946
      10     C     3.09476  3.09476  0.00000 -0.18953
      11     H     0.45151  0.45151  0.00000  0.09698
      12     H     0.45418  0.45418  0.00000  0.09164
      13     C     3.08842  3.08842  0.00000 -0.17685
      14     H     0.45150  0.45150  0.00000  0.09699
      15     H     0.45185  0.45185  0.00000  0.09630
      16     C     3.15680  3.15680  0.00000 -0.31359
      17     H     0.44923  0.44923  0.00000  0.10154
      18     H     0.45438  0.45438  0.00000  0.09124
      19     H     0.45408  0.45408  0.00000  0.09185
      20     H     0.45226  0.45226  0.00000  0.09549
      21     H     0.44529  0.44529  0.00000  0.10942

   Total alpha = 29.00000, Total beta = 29.00000, Total charge = -0.00000

*** Psi4 exiting successfully. Buy a developer a beer!
