                              Psi4 1.0.54 Driver

  ==> Input File <==

--------------------------------------------------------------------------
set {
	reference rhf
	basis cc-pvtz
}

set_num_threads( 4 )
memory 2 gb

molecule MOL {
0 1

H	 2.462485	 -2.216993	 0.000000
O	 2.777472	 -1.330706	 0.000000
C	 1.763288	 -0.447523	 0.000000
C	 1.140158	 -0.188332	 -1.212291
C	 1.337321	 0.191139	 1.144998
H	 1.487163	 -0.695843	 -2.090457
C	 0.096477	 0.706305	 -1.273161
H	 1.799541	 0.010310	 2.093129
C	 0.287325	 1.082572	 1.046901
H	 -0.379060	 0.900338	 -2.214417
C	 -0.349316	 1.360240	 -0.136683
N	 -0.160751	 1.758650	 2.269582
H	 -1.158102	 2.057060	 -0.168742
O	 0.406622	 1.500537	 3.278809
O	 -1.061864	 2.521507	 2.176083

	symmetry c1
}
set optking {
	frozen_dihedral = ("
		4 3 2 1
	")
}

ee,wfn = optimize('scf', return_wfn=True)
oeprop( wfn, 'DIPOLE', 'QUADRUPOLE', 'MULLIKEN_CHARGES')
f=open( 'psi4out.xyz', 'w' )
f.write( "15  " )
f.write( str(ee) + "\n" )
f.write( MOL.save_string_xyz() )
f.close()
--------------------------------------------------------------------------

    Molecular point group: c1
  Charge       = 0
  Multiplicity = 1
  Basis Set: CC-PVTZ
  Basis Set:
  @DF-RHF Final Energy:  -509.21350384938734
    Total Energy =                       -509.2135038493879620
    Molecular point group: c1
  Basis Set: CC-PVTZ
  Basis Set:
  Basis Set: CC-PVTZ
  Basis Set:
  @DF-RHF Final Energy:  -509.21451675896515
    Total Energy =                       -509.2145167589652601
  Basis Set: CC-PVTZ
  Basis Set:
  Basis Set: CC-PVTZ
  Basis Set:
  @DF-RHF Final Energy:  -509.19757580482013
    Total Energy =                       -509.1975758048199623
  Basis Set: CC-PVTZ
  Basis Set:
  Basis Set: CC-PVTZ
  Basis Set:
  @DF-RHF Final Energy:  -509.21399417623422
    Total Energy =                       -509.2139941762341095
  Basis Set: CC-PVTZ
  Basis Set:
  @DF-RHF Final Energy:  -509.21460918733260
    Total Energy =                       -509.2146091873323712
  Basis Set: CC-PVTZ
  Basis Set:
  @DF-RHF Final Energy:  -509.21377279903385
    Total Energy =                       -509.2137727990337908
  Basis Set: CC-PVTZ
  Basis Set:
  Basis Set: CC-PVTZ
  Basis Set:
  @DF-RHF Final Energy:  -509.21471678843943
    Total Energy =                       -509.2147167884392047
  Basis Set: CC-PVTZ
  Basis Set:
  Basis Set: CC-PVTZ
  Basis Set:
  @DF-RHF Final Energy:  -509.21472434729196
    Total Energy =                       -509.2147243472923037
  Basis Set: CC-PVTZ
  Basis Set:
  Charge       = 0
  Multiplicity = 1
  Basis Set: CC-PVTZ
  Basis Set:

    Orbital Energies (a.u.)
    -----------------------

    Doubly Occupied:

       1A    -20.594742     2A    -20.593450     3A    -20.593269
       4A    -15.849439     5A    -11.319104     6A    -11.306969
       7A    -11.264623     8A    -11.263143     9A    -11.263065
      10A    -11.261600    11A     -1.643030    12A     -1.425483
      13A     -1.423692    14A     -1.202940    15A     -1.095136
      16A     -1.048702    17A     -0.964807    18A     -0.869021
      19A     -0.838605    20A     -0.797827    21A     -0.742619
      22A     -0.739627    23A     -0.723731    24A     -0.712333
      25A     -0.685524    26A     -0.645151    27A     -0.628098
      28A     -0.570228    29A     -0.559260    30A     -0.532732
      31A     -0.515880    32A     -0.493667    33A     -0.487985
      34A     -0.458959    35A     -0.380259    36A     -0.360847

  @DF-RHF Final Energy:  -509.21472706691748

   => Energetics <=

    Nuclear Repulsion Energy =            504.0278286198727073
    One-Electron Energy =               -1694.7740134254981967
    Two-Electron Energy =                 681.5314577387078998
    DFT Exchange-Correlation Energy =       0.0000000000000000
    Empirical Dispersion Energy =           0.0000000000000000
    PCM Polarization Energy =               0.0000000000000000
    EFP Energy =                            0.0000000000000000
    Total Energy =                       -509.2147270669175896
    Molecular point group: c1
  Basis Set: CC-PVTZ
  Basis Set:

  -Total Gradient:
     Atom            X                  Y                   Z
    ------   -----------------  -----------------  -----------------
       1       -0.000039135773     0.000007120470     0.000635994191
       2        0.000220284975     0.000191435194    -0.000854278323
       3       -0.000481466990    -0.000547045126     0.000482519197
       4        0.000165378865     0.000470992107    -0.000177564479
       5        0.000113142765    -0.000121544524    -0.000092958824
       6        0.000010787286    -0.000008905145     0.000004293420
       7        0.000124138928    -0.000137240937    -0.000092760589
       8       -0.000000846325     0.000006365312     0.000004990165
       9       -0.000135643307     0.000122849370    -0.000104621350
      10       -0.000008208001     0.000010500435     0.000013162459
      11        0.000043077596     0.000019244455     0.000207753217
      12       -0.000065346148    -0.000003239209    -0.000047035362
      13       -0.000006871975     0.000002327513    -0.000012608672
      14        0.000040430534    -0.000011378937     0.000033769614
      15        0.000020277560    -0.000001480974    -0.000000654665

  **** Optimization is complete! (in 9 steps) ****
    Final optimized geometry and variables:
    Molecular point group: c1

    Geometry (in Angstrom), charge = 0, multiplicity = 1:

    H            1.882934791120    -2.934839466925    -0.764996725108
    O            2.171956694274    -2.038742133356    -0.755699299726
    C            1.113542266302    -1.183215263401    -0.814802738881
    C            0.497985085400    -0.910507627942    -2.023134293375
    C            0.700211240283    -0.543167535441     0.334185694762
    H            0.847693904301    -1.403249098260    -2.909557340764
    C           -0.544461064168    -0.006953171450    -2.082842981914
    H            1.181323221661    -0.737915473910     1.268154558552
    C           -0.339403212211     0.357821615639     0.243619627244
    H           -1.018352404239     0.199066462400    -3.022215685294
    C           -0.977090908044     0.641384275904    -0.942919787172
    N           -0.781831862428     1.038520656566     1.464557805247
    H           -1.778635333409     1.347280833810    -0.969514835850
    O           -0.223885365754     0.770757179130     2.475384038331
    O           -1.672048615473     1.815061790779     1.366959935423

  Mulliken Charges: (a.u.)
   Center  Symbol    Alpha    Beta     Spin     Total
       1     H     0.38578  0.38578  0.00000  0.22843
       2     O     4.18521  4.18521  0.00000 -0.37043
       3     C     2.86783  2.86783  0.00000  0.26434
       4     C     3.10057  3.10057  0.00000 -0.20115
       5     C     3.10859  3.10859  0.00000 -0.21717
       6     H     0.41255  0.41255  0.00000  0.17490
       7     C     3.06679  3.06679  0.00000 -0.13358
       8     H     0.39136  0.39136  0.00000  0.21729
       9     C     2.97913  2.97913  0.00000  0.04173
      10     H     0.41524  0.41524  0.00000  0.16953
      11     C     3.08584  3.08584  0.00000 -0.17167
      12     N     3.25033  3.25033  0.00000  0.49934
      13     H     0.39867  0.39867  0.00000  0.20266
      14     O     4.17554  4.17554  0.00000 -0.35109
      15     O     4.17657  4.17657  0.00000 -0.35314

   Total alpha = 36.00000, Total beta = 36.00000, Total charge =  0.00000

*** Psi4 exiting successfully. Buy a developer a beer!
