  ==> Input File <==

--------------------------------------------------------------------------
set {
	reference rhf
	basis 6-31G*
}

set_num_threads( 4 )
memory 2 gb

molecule MOL {
0 1

O	 -1.276010	 1.052711	 -0.768302
C	 -1.204840	 0.067374	 -0.106123
C	 -2.388195	 -0.672128	 0.458071
O	 -0.067104	 -0.527208	 0.221609
H	 -2.388023	 -1.694060	 0.097175
H	 -3.300579	 -0.174919	 0.164318
H	 -2.315377	 -0.706351	 1.539059
C	 1.170111	 0.034140	 -0.238951
C	 0.947851	 1.534719	 -0.305662
C	 1.541159	 -0.573328	 -1.582808
H	 1.931985	 -0.198989	 0.490230
H	 0.670350	 1.924317	 0.667197
H	 1.856094	 2.033108	 -0.628206
H	 0.156898	 1.774346	 -1.008247
H	 2.464932	 -0.135769	 -1.947777
H	 1.686038	 -1.642486	 -1.493995
H	 0.761023	 -0.383414	 -2.313102

	symmetry c1
}
set optking {
	frozen_dihedral = ("
		11 8 4 2
	")
}

ee = optimize('scf')
oeprop('DIPOLE', 'QUADRUPOLE', 'MULLIKEN_CHARGES')
f=open( 'psi4out.xyz', 'w' )
f.write( "17  " )
f.write( str(ee) + "\n" )
f.write( MOL.save_string_xyz() )
f.close()
--------------------------------------------------------------------------

    Molecular point group: c1
  Charge       = 0
  Multiplicity = 1
  Basis Set: 6-31G*
  Basis Set:
  @DF-RHF Final Energy:  -344.86890335991455
    Total Energy =                       -344.8689033599147251
    Molecular point group: c1
  Basis Set: 6-31G*
  Basis Set:
  Basis Set: 6-31G*
  Basis Set:
  @DF-RHF Final Energy:  -344.89802221504726
    Total Energy =                       -344.8980222150472059
  Basis Set: 6-31G*
  Basis Set:
  Basis Set: 6-31G*
  Basis Set:
  @DF-RHF Final Energy:  -344.90433140848660
    Total Energy =                       -344.9043314084864846
  Basis Set: 6-31G*
  Basis Set:
  Basis Set: 6-31G*
  Basis Set:
  @DF-RHF Final Energy:  -344.90452557341160
    Total Energy =                       -344.9045255734117745
  Basis Set: 6-31G*
  Basis Set:
  @DF-RHF Final Energy:  -344.90566800148110
    Total Energy =                       -344.9056680014809331
  @DF-RHF Final Energy:  -344.90672988309439
    Total Energy =                       -344.9067298830940445
  Basis Set: 6-31G*
  Basis Set:
  @DF-RHF Final Energy:  -344.90679644564062
    Total Energy =                       -344.9067964456405662
  Basis Set: 6-31G*
  Basis Set:
  Basis Set: 6-31G*
  Basis Set:
  @DF-RHF Final Energy:  -344.90680210422187
    Total Energy =                       -344.9068021042220380
  Basis Set: 6-31G*
  Basis Set:
  Basis Set: 6-31G*
  Basis Set:
  @DF-RHF Final Energy:  -344.90680332296984
    Total Energy =                       -344.9068033229701769
  Basis Set: 6-31G*
  Basis Set:
  Charge       = 0
  Multiplicity = 1
  Basis Set: 6-31G*
  Basis Set:

    Orbital Energies (a.u.)
    -----------------------

    Doubly Occupied:

       1A    -20.596203     2A    -20.540534     3A    -11.374490
       4A    -11.295412     5A    -11.230363     6A    -11.217794
       7A    -11.213300     8A     -1.460523     9A     -1.360517
      10A     -1.077429    11A     -1.002779    12A     -0.946369
      13A     -0.866786    14A     -0.733246    15A     -0.692459
      16A     -0.670908    17A     -0.658592    18A     -0.616441
      19A     -0.583904    20A     -0.580069    21A     -0.568086
      22A     -0.551355    23A     -0.529623    24A     -0.517890
      25A     -0.501793    26A     -0.481256    27A     -0.443083
      28A     -0.427972

  @DF-RHF Final Energy:  -344.90680352620740

   => Energetics <=

    Nuclear Repulsion Energy =            325.7107269763845920
    One-Electron Energy =               -1115.7567140570126867
    Two-Electron Energy =                 445.1391835544207538
    DFT Exchange-Correlation Energy =       0.0000000000000000
    Empirical Dispersion Energy =           0.0000000000000000
    PCM Polarization Energy =               0.0000000000000000
    EFP Energy =                            0.0000000000000000
    Total Energy =                       -344.9068035262072840
    Molecular point group: c1
  Basis Set: 6-31G*
  Basis Set:

  -Total Gradient:
     Atom            X                  Y                   Z
    ------   -----------------  -----------------  -----------------
       1        0.000001636738    -0.000037996441     0.000014419060
       2        0.000087084575     0.002843268736     0.004494577080
       3        0.000008141708     0.000029569019     0.000036936551
       4       -0.000352372366    -0.003579717343    -0.006394182251
       5       -0.000001480199    -0.000004010249    -0.000018890441
       6       -0.000000807310    -0.000002199969    -0.000004044507
       7        0.000002030101    -0.000016576661    -0.000005314073
       8        0.001528551189    -0.003799676046    -0.000909333616
       9       -0.000036369057     0.000022791570    -0.000006549281
      10        0.000037808456     0.000001672558     0.000015670152
      11       -0.001311951368     0.004541147344     0.002773618319
      12        0.000004751187     0.000004532715    -0.000012330526
      13        0.000008840887    -0.000002817070     0.000001565499
      14        0.000023341420    -0.000002897188     0.000018637264
      15        0.000003064246     0.000000255231    -0.000006962496
      16        0.000000050065     0.000000835275    -0.000000856670
      17       -0.000002320274     0.000001818520     0.000003039938

  **** Optimization is complete! (in 10 steps) ****
    Final optimized geometry and variables:
    Molecular point group: c1

    Geometry (in Angstrom), charge = 0, multiplicity = 1:

    O           -1.300455749713     0.755027136176    -0.565337635295
    C           -1.094511203840    -0.130442785532     0.200484291044
    C           -2.172181934572    -0.866088835443     0.953962442801
    O            0.098191197298    -0.625235002053     0.491038994677
    H           -2.116832637042    -1.925411155644     0.731915202970
    H           -3.139969887465    -0.478154749160     0.672976798574
    H           -2.019412467293    -0.746611622112     2.020479862124
    C            1.344334769302    -0.025914108025     0.091533181620
    C            1.353074591528     1.500326628888     0.085022085891
    C            1.788837884074    -0.634618308200    -1.227033047638
    H            2.001829160918    -0.327596871702     0.895786891339
    H            0.915112111691     1.893527771985     0.995923226299
    H            2.389109360485     1.824600057615     0.049489769558
    H            0.825798229152     1.918668848907    -0.757608834415
    H            2.785392744629    -0.289698777888    -1.483638586175
    H            1.807404851189    -1.716504968274    -1.161021746207
    H            1.111357625967    -0.346468421001    -2.023069760592

  Mulliken Charges: (a.u.)
   Center  Symbol    Alpha    Beta     Spin     Total
       1     O     4.28530  4.28530  0.00000 -0.57060
       2     C     2.61593  2.61593  0.00000  0.76815
       3     C     3.28058  3.28058  0.00000 -0.56115
       4     O     4.32182  4.32182  0.00000 -0.64364
       5     H     0.40091  0.40091  0.00000  0.19818
       6     H     0.39816  0.39816  0.00000  0.20368
       7     H     0.40230  0.40230  0.00000  0.19539
       8     C     2.91397  2.91397  0.00000  0.17206
       9     C     3.25574  3.25574  0.00000 -0.51148
      10     C     3.24790  3.24790  0.00000 -0.49581
      11     H     0.41040  0.41040  0.00000  0.17920
      12     H     0.41499  0.41499  0.00000  0.17002
      13     H     0.42052  0.42052  0.00000  0.15896
      14     H     0.39421  0.39421  0.00000  0.21159
      15     H     0.41863  0.41863  0.00000  0.16275
      16     H     0.41223  0.41223  0.00000  0.17555
      17     H     0.40642  0.40642  0.00000  0.18715

   Total alpha = 28.00000, Total beta = 28.00000, Total charge = -0.00000
