  ==> Input File <==

--------------------------------------------------------------------------
set {
	reference rhf
	basis 6-31G*
}

set_num_threads( 4 )
memory 2 gb

molecule MOL {
0 1

H	 -2.172150	 0.880146	 0.502514
C	 -2.018062	 -0.000025	 -0.114509
O	 -0.774054	 0.001095	 -0.743181
H	 -2.760490	 0.003458	 -0.901350
H	 -2.173624	 -0.884374	 0.496163
C	 0.143254	 1.048151	 -0.480973
C	 1.355842	 0.688624	 -1.336767
C	 -0.423309	 2.402082	 -0.920366
C	 0.538733	 1.079040	 0.998810
H	 1.073455	 0.639692	 -2.382374
H	 1.742786	 -0.281755	 -1.046916
H	 2.145475	 1.424549	 -1.224711
H	 -0.766728	 2.349634	 -1.948151
H	 0.341714	 3.168926	 -0.854861
H	 -1.253822	 2.719288	 -0.298930
H	 0.871519	 0.097363	 1.319146
H	 1.349770	 1.782514	 1.156526
H	 -0.284024	 1.385162	 1.635985

	symmetry c1
}
set optking {
	frozen_dihedral = ("
		6 3 2 5
	")
}

ee = optimize('scf')
oeprop('DIPOLE', 'QUADRUPOLE', 'MULLIKEN_CHARGES')
f=open( 'psi4out.xyz', 'w' )
f.write( "18  " )
f.write( str(ee) + "\n" )
f.write( MOL.save_string_xyz() )
f.close()
--------------------------------------------------------------------------

    Molecular point group: c1
  Charge       = 0
  Multiplicity = 1
  Basis Set: 6-31G*
  Basis Set:
  @DF-RHF Final Energy:  -271.17237403474843
    Total Energy =                       -271.1723740347483727
    Molecular point group: c1
  Basis Set: 6-31G*
  Basis Set:
  Basis Set: 6-31G*
  Basis Set:
  @DF-RHF Final Energy:  -271.17295396734755
    Total Energy =                       -271.1729539673477234
  Basis Set: 6-31G*
  Basis Set:
  Basis Set: 6-31G*
  Basis Set:
  @DF-RHF Final Energy:  -271.17262710997744
    Total Energy =                       -271.1726271099775545
  Basis Set: 6-31G*
  Basis Set:
  Basis Set: 6-31G*
  Basis Set:
  @DF-RHF Final Energy:  -271.17312852401074
    Total Energy =                       -271.1731285240109059
  Basis Set: 6-31G*
  Basis Set:
  Basis Set: 6-31G*
  Basis Set:
  @DF-RHF Final Energy:  -271.17307807310419
    Total Energy =                       -271.1730780731044774
  Basis Set: 6-31G*
  Basis Set:
  Basis Set: 6-31G*
  Basis Set:
  @DF-RHF Final Energy:  -271.17313953611557
    Total Energy =                       -271.1731395361155705
  Basis Set: 6-31G*
  Basis Set:
  Charge       = 0
  Multiplicity = 1
  Basis Set: 6-31G*
  Basis Set:

    Orbital Energies (a.u.)
    -----------------------

    Doubly Occupied:

       1A    -20.544171     2A    -11.282004     3A    -11.260945
       4A    -11.208635     5A    -11.208608     6A    -11.203165
       7A     -1.367540     8A     -1.072529     9A     -0.945520
      10A     -0.939979    11A     -0.912864    12A     -0.752646
      13A     -0.654902    14A     -0.643158    15A     -0.638533
      16A     -0.589933    17A     -0.570899    18A     -0.551768
      19A     -0.539150    20A     -0.523624    21A     -0.514912
      22A     -0.490041    23A     -0.487118    24A     -0.437527
      25A     -0.400820

  @DF-RHF Final Energy:  -271.17313916580918

   => Energetics <=

    Nuclear Repulsion Energy =            272.1110164869149912
    One-Electron Energy =                -907.0863262197194672
    Two-Electron Energy =                 363.8021705669951871
    DFT Exchange-Correlation Energy =       0.0000000000000000
    Empirical Dispersion Energy =           0.0000000000000000
    PCM Polarization Energy =               0.0000000000000000
    EFP Energy =                            0.0000000000000000
    Total Energy =                       -271.1731391658092889
    Molecular point group: c1
  Basis Set: 6-31G*
  Basis Set:

  -Total Gradient:
     Atom            X                  Y                   Z
    ------   -----------------  -----------------  -----------------
       1       -0.000039715689    -0.000053119724    -0.000067684199
       2       -0.000004028814     0.000059717523     0.000084709595
       3        0.000041180763    -0.000091516538     0.000106751183
       4       -0.000008694471     0.000069956618    -0.000039018817
       5        0.000042770615    -0.000045068924    -0.000035883836
       6       -0.000083941438     0.000034095988    -0.000023554705
       7       -0.000020058277     0.000009486535     0.000039419888
       8        0.000029523469     0.000001066269    -0.000026537857
       9        0.000097613842     0.000000196092    -0.000075076401
      10       -0.000015150954     0.000038934618     0.000009301078
      11       -0.000009311288     0.000004582715    -0.000026065788
      12        0.000017663042    -0.000000497177     0.000037742198
      13       -0.000014444101    -0.000013258982     0.000008696077
      14       -0.000016056775     0.000005610624    -0.000021932544
      15       -0.000036414558    -0.000006873431     0.000013622383
      16       -0.000088738125    -0.000002259193     0.000062031193
      17        0.000066821964    -0.000030802029     0.000023561162
      18        0.000040980797     0.000019749016    -0.000070080610

  **** Optimization is complete! (in 7 steps) ****
    Final optimized geometry and variables:
    Molecular point group: c1

    Geometry (in Angstrom), charge = 0, multiplicity = 1:

    H           -1.968877426556    -0.007275181414     0.964460196089
    C           -1.812420740527    -0.857995287239     0.313502787090
    O           -0.561404532802    -0.854266749900    -0.310259782961
    H           -2.590298930944    -0.850723331795    -0.442636756905
    H           -1.916565458926    -1.760444971837     0.906582341701
    C            0.363404505022     0.186397062132    -0.052962716764
    C            1.574191928841    -0.182062681318    -0.907040400600
    C           -0.197531617422     1.539499116949    -0.501692831272
    C            0.759229993278     0.213261043772     1.426728429490
    H            1.293195147601    -0.229204280853    -1.952994487145
    H            1.954562963229    -1.154653216868    -0.616252881834
    H            2.368260788294     0.549060904426    -0.793726861892
    H           -0.504537564268     1.488993204103    -1.540846320816
    H            0.555540960847     2.315001508390    -0.404892788380
    H           -1.054619030911     1.843035724044     0.090059201689
    H            1.108053724932    -0.765934822167     1.736838140968
    H            1.557145216544     0.929521853863     1.594741605932
    H           -0.070454922178     0.495035066591     2.066244798387

  Mulliken Charges: (a.u.)
   Center  Symbol    Alpha    Beta     Spin     Total
       1     H     0.42966  0.42966  0.00000  0.14067
       2     C     3.07636  3.07636  0.00000 -0.15271
       3     O     4.32231  4.32231  0.00000 -0.64461
       4     H     0.42064  0.42064  0.00000  0.15872
       5     H     0.42090  0.42090  0.00000  0.15819
       6     C     2.84394  2.84394  0.00000  0.31213
       7     C     3.23299  3.23299  0.00000 -0.46598
       8     C     3.24496  3.24496  0.00000 -0.48992
       9     C     3.24525  3.24525  0.00000 -0.49049
      10     H     0.41414  0.41414  0.00000  0.17172
      11     H     0.41406  0.41406  0.00000  0.17189
      12     H     0.42511  0.42511  0.00000  0.14978
      13     H     0.41356  0.41356  0.00000  0.17289
      14     H     0.42032  0.42032  0.00000  0.15937
      15     H     0.42105  0.42105  0.00000  0.15789
      16     H     0.41348  0.41348  0.00000  0.17304
      17     H     0.42021  0.42021  0.00000  0.15958
      18     H     0.42108  0.42108  0.00000  0.15784

   Total alpha = 25.00000, Total beta = 25.00000, Total charge =  0.00000
