  ==> Input File <==

--------------------------------------------------------------------------
set {
	reference rhf
	basis cc-pvtz
}

set_num_threads( 4 )
memory 2 gb

molecule MOL {
0 1

H	 -2.816458	 -0.841657	 -0.064679
N	 -1.878861	 -0.711874	 0.250184
C	 -1.341419	 0.551458	 -0.220231
H	 -1.333674	 -1.468530	 -0.105118
C	 0.082190	 0.731516	 0.254705
H	 -1.357065	 0.652078	 -1.304747
H	 -1.939897	 1.357530	 0.189797
O	 0.082964	 0.832586	 1.646643
H	 0.686703	 -0.118406	 -0.058933
H	 0.503853	 1.631390	 -0.187286
C	 1.331693	 1.070689	 2.206289
H	 1.210371	 1.126111	 3.278480
H	 2.030474	 0.269504	 1.974982
H	 1.754098	 2.008168	 1.852354

	symmetry c1
}
set optking {
	frozen_dihedral = ("
		8 5 3 6
	")
}

ee = optimize('scf')
oeprop('DIPOLE', 'QUADRUPOLE', 'MULLIKEN_CHARGES')
f=open( 'psi4out.xyz', 'w' )
f.write( "14  " )
f.write( str(ee) + "\n" )
f.write( MOL.save_string_xyz() )
f.close()
--------------------------------------------------------------------------

    Molecular point group: c1
  Charge       = 0
  Multiplicity = 1
  Basis Set: CC-PVTZ
  Basis Set:
  @DF-RHF Final Energy:  -248.22083591378075
    Total Energy =                       -248.2208359137804337
    Molecular point group: c1
  Basis Set: CC-PVTZ
  Basis Set:
  Basis Set: CC-PVTZ
  Basis Set:
  @DF-RHF Final Energy:  -248.22127459742509
    Total Energy =                       -248.2212745974251220
  Basis Set: CC-PVTZ
  Basis Set:
  Basis Set: CC-PVTZ
  Basis Set:
  @DF-RHF Final Energy:  -248.22134872825094
    Total Energy =                       -248.2213487282511437
  Basis Set: CC-PVTZ
  Basis Set:
  Basis Set: CC-PVTZ
  Basis Set:
  @DF-RHF Final Energy:  -248.22136494051955
    Total Energy =                       -248.2213649405196634
  Basis Set: CC-PVTZ
  Basis Set:
  Basis Set: CC-PVTZ
  Basis Set:
  @DF-RHF Final Energy:  -248.22136927482194
    Total Energy =                       -248.2213692748219955
  Basis Set: CC-PVTZ
  Basis Set:
  Basis Set: CC-PVTZ
  Basis Set:
  @DF-RHF Final Energy:  -248.22137104296510
    Total Energy =                       -248.2213710429649609
  Basis Set: CC-PVTZ
  Basis Set:
  Charge       = 0
  Multiplicity = 1
  Basis Set: CC-PVTZ
  Basis Set:

    Orbital Energies (a.u.)
    -----------------------

    Doubly Occupied:

       1A    -20.543693     2A    -15.525562     3A    -11.265004
       4A    -11.259268     5A    -11.241858     6A     -1.380369
       7A     -1.177443     8A     -0.999849     9A     -0.904174
      10A     -0.818065    11A     -0.683885    12A     -0.667446
      13A     -0.650103    14A     -0.618945    15A     -0.593633
      16A     -0.557072    17A     -0.519550    18A     -0.502390
      19A     -0.465060    20A     -0.415600    21A     -0.383037

  @DF-RHF Final Energy:  -248.22137125104356

   => Energetics <=

    Nuclear Repulsion Energy =            193.6585605331118529
    One-Electron Energy =                -721.4158510799802571
    Two-Electron Energy =                 279.5359192958248400
    DFT Exchange-Correlation Energy =       0.0000000000000000
    Empirical Dispersion Energy =           0.0000000000000000
    PCM Polarization Energy =               0.0000000000000000
    EFP Energy =                            0.0000000000000000
    Total Energy =                       -248.2213712510435357
    Molecular point group: c1
  Basis Set: CC-PVTZ
  Basis Set:

  -Total Gradient:
     Atom            X                  Y                   Z
    ------   -----------------  -----------------  -----------------
       1        0.000003502048    -0.000006082435    -0.000007024503
       2       -0.000006561276     0.000011931236    -0.000007269489
       3       -0.000264386990     0.001174844671     0.000152012825
       4        0.000007427680    -0.000002430818     0.000011081197
       5       -0.000129865843     0.001070749505    -0.000103863725
       6        0.000241174019    -0.001241507949    -0.000096825413
       7        0.000005055803     0.000007811658     0.000004045232
       8        0.000130207812    -0.001014630568     0.000052194758
       9        0.000002655488    -0.000004384874    -0.000003854177
      10        0.000004578348     0.000001686726    -0.000001868491
      11        0.000005697159     0.000001558414     0.000001711788
      12       -0.000001781747    -0.000000082984    -0.000002788180
      13        0.000001083457     0.000000606883     0.000001093823
      14        0.000001214040    -0.000000069463     0.000001354359

  **** Optimization is complete! (in 7 steps) ****
    Final optimized geometry and variables:
    Molecular point group: c1

    Geometry (in Angstrom), charge = 0, multiplicity = 1:

    H           -2.495778461114    -1.327122110542    -0.845283753372
    N           -1.532577809653    -1.234092698078    -0.604263023832
    C           -1.003438529831     0.040096213478    -1.054451615123
    H           -1.044135090650    -1.996505304477    -1.024864239001
    C            0.406505463724     0.277384910682    -0.554939401042
    H           -0.981463060172     0.129275694137    -2.141547771231
    H           -1.640569825597     0.828942549108    -0.674303889904
    O            0.418535995999     0.402513967289     0.827412664036
    H            1.049713305589    -0.548555416508    -0.864423371951
    H            0.799220933696     1.181555377874    -1.020320651149
    C            1.680901189793     0.574883368730     1.376277905630
    H            1.566822104486     0.666091026900     2.446655932823
    H            2.327472090786    -0.274673198554     1.165495022334
    H            2.163798175856     1.474487694439     0.998433283003

  Mulliken Charges: (a.u.)
   Center  Symbol    Alpha    Beta     Spin     Total
       1     H     0.42915  0.42915  0.00000  0.14170
       2     N     3.68274  3.68274  0.00000 -0.36548
       3     C     3.02485  3.02485  0.00000 -0.04970
       4     H     0.43332  0.43332  0.00000  0.13336
       5     C     2.96440  2.96440  0.00000  0.07121
       6     H     0.46949  0.46949  0.00000  0.06103
       7     H     0.45430  0.45430  0.00000  0.09141
       8     O     4.16497  4.16497  0.00000 -0.32993
       9     H     0.47942  0.47942  0.00000  0.04117
      10     H     0.47208  0.47208  0.00000  0.05584
      11     C     3.03203  3.03203  0.00000 -0.06406
      12     H     0.44643  0.44643  0.00000  0.10713
      13     H     0.47287  0.47287  0.00000  0.05426
      14     H     0.47397  0.47397  0.00000  0.05207

   Total alpha = 21.00000, Total beta = 21.00000, Total charge = -0.00000
