  ==> Input File <==

--------------------------------------------------------------------------
set {
	reference rhf
	basis 6-31G*
}

set_num_threads( 1 )
memory 2 gb

molecule MOL {
0 1

H	 -0.155821	 1.757906	 4.181218
O	 0.771119	 1.733751	 4.369022
C	 1.214957	 0.400894	 4.392544
C	 1.288202	 -0.232819	 3.007708
H	 2.202438	 0.427296	 4.835104
H	 0.583677	 -0.199464	 5.046635
C	 -0.067989	 -0.362122	 2.309930
H	 1.960191	 0.359799	 2.392400
H	 1.738011	 -1.219060	 3.109526
C	 0.032096	 -1.050730	 0.945885
H	 -0.501692	 0.626318	 2.186423
H	 -0.750009	 -0.926738	 2.945854
C	 -1.309753	 -1.282496	 0.241564
H	 0.682922	 -0.467228	 0.297195
H	 0.521642	 -2.013165	 1.079168
C	 -2.037799	 -0.007733	 -0.193645
H	 -1.132177	 -1.897739	 -0.638072
H	 -1.960620	 -1.865745	 0.891203
C	 -3.489788	 0.042957	 0.286558
H	 -2.017067	 0.064384	 -1.280144
H	 -1.513726	 0.868678	 0.179924
C	 -4.216917	 1.317354	 -0.141063
H	 -4.025645	 -0.823308	 -0.095450
H	 -3.513059	 -0.038752	 1.371301
H	 -4.239342	 1.411634	 -1.223113
H	 -5.243387	 1.322503	 0.212445
H	 -3.726170	 2.201406	 0.256408

	symmetry c1
}
set optking {
	frozen_dihedral = ("
		14 10 7 4,
		14 10 13 16,
		10 7 4 8,
		8 4 3 2,
		20 16 19 22,
		4 3 2 1
	")
}

ee = energy('scf')
oeprop('DIPOLE', 'QUADRUPOLE', 'MULLIKEN_CHARGES')
f=open( 'psi4out.xyz', 'w' )
f.write( "27  " )
f.write( str(ee) + "\n" )
f.write( MOL.save_string_xyz() )
f.close()
--------------------------------------------------------------------------

    Molecular point group: c1

    Geometry (in Angstrom), charge = 0, multiplicity = 1:

       Center              X                  Y                   Z               Mass
    ------------   -----------------  -----------------  -----------------  -----------------
           H          0.704547953082     1.656316971369     2.444374868210     1.007825032070
           O          1.631487953082     1.632161971369     2.632178868210    15.994914619560
           C          2.075325953082     0.299304971369     2.655700868210    12.000000000000
           C          2.148570953082    -0.334408028631     1.270864868210    12.000000000000
           H          3.062806953082     0.325706971369     3.098260868210     1.007825032070
           H          1.444045953082    -0.301053028631     3.309791868210     1.007825032070
           C          0.792379953082    -0.463711028631     0.573086868210    12.000000000000
           H          2.820559953082     0.258209971369     0.655556868210     1.007825032070
           H          2.598379953082    -1.320649028631     1.372682868210     1.007825032070
           C          0.892464953082    -1.152319028631    -0.790958131790    12.000000000000
           H          0.358676953082     0.524728971369     0.449579868210     1.007825032070
           H          0.110359953082    -1.028327028631     1.209010868210     1.007825032070
           C         -0.449384046918    -1.384085028631    -1.495279131790    12.000000000000
           H          1.543290953082    -0.568817028631    -1.439648131790     1.007825032070
           H          1.382010953082    -2.114754028631    -0.657675131790     1.007825032070
           C         -1.177430046918    -0.109322028631    -1.930488131790    12.000000000000
           H         -0.271808046918    -1.999328028631    -2.374915131790     1.007825032070
           H         -1.100251046918    -1.967334028631    -0.845640131790     1.007825032070
           C         -2.629419046918    -0.058632028631    -1.450285131790    12.000000000000
           H         -1.156698046918    -0.037205028631    -3.016987131790     1.007825032070
           H         -0.653357046918     0.767088971369    -1.556919131790     1.007825032070
           C         -3.356548046918     1.215764971369    -1.877906131790    12.000000000000
           H         -3.165276046918    -0.924897028631    -1.832293131790     1.007825032070
           H         -2.652690046918    -0.140341028631    -0.365542131790     1.007825032070
           H         -3.378973046918     1.310044971369    -2.959956131790     1.007825032070
           H         -4.383018046918     1.220913971369    -1.524398131790     1.007825032070
           H         -2.865801046918     2.099816971369    -1.480435131790     1.007825032070

  Charge       = 0
  Multiplicity = 1
  Basis Set: 6-31G*
  Basis Set:

    Orbital Energies (a.u.)
    -----------------------

    Doubly Occupied:

       1A    -20.552590     2A    -11.267335     3A    -11.220275
       4A    -11.217424     5A    -11.216895     6A    -11.215637
       7A    -11.214169     8A    -11.212880     9A    -11.209357
      10A     -1.359332    11A     -1.095835    12A     -1.061363
      13A     -1.011444    14A     -0.948866    15A     -0.888324
      16A     -0.822287    17A     -0.799504    18A     -0.779217
      19A     -0.693970    20A     -0.649180    21A     -0.640955
      22A     -0.612494    23A     -0.598557    24A     -0.588429
      25A     -0.579198    26A     -0.555983    27A     -0.545913
      28A     -0.522755    29A     -0.505846    30A     -0.493649
      31A     -0.487574    32A     -0.478172    33A     -0.469135
      34A     -0.459408    35A     -0.448332    36A     -0.440614
      37A     -0.423457

  @DF-RHF Final Energy:  -388.27648340540202

   => Energetics <=

    Nuclear Repulsion Energy =            465.5529347111146308
    One-Electron Energy =               -1449.0862561591131907
    Two-Electron Energy =                 595.2568380425987016
    DFT Exchange-Correlation Energy =       0.0000000000000000
    Empirical Dispersion Energy =           0.0000000000000000
    PCM Polarization Energy =               0.0000000000000000
    EFP Energy =                            0.0000000000000000
    Total Energy =                       -388.2764834053998584

  Mulliken Charges: (a.u.)
   Center  Symbol    Alpha    Beta     Spin     Total
       1     H     0.27986  0.27986  0.00000  0.44028
       2     O     4.37094  4.37094  0.00000 -0.74189
       3     C     2.99743  2.99743  0.00000  0.00515
       4     C     3.16088  3.16088  0.00000 -0.32176
       5     H     0.41436  0.41436  0.00000  0.17128
       6     H     0.43195  0.43195  0.00000  0.13610
       7     C     3.16269  3.16269  0.00000 -0.32538
       8     H     0.41496  0.41496  0.00000  0.17007
       9     H     0.42405  0.42405  0.00000  0.15191
      10     C     3.15347  3.15347  0.00000 -0.30694
      11     H     0.42386  0.42386  0.00000  0.15228
      12     H     0.42531  0.42531  0.00000  0.14938
      13     C     3.15680  3.15680  0.00000 -0.31360
      14     H     0.42142  0.42142  0.00000  0.15715
      15     H     0.42220  0.42220  0.00000  0.15561
      16     C     3.15451  3.15451  0.00000 -0.30902
      17     H     0.41902  0.41902  0.00000  0.16196
      18     H     0.42147  0.42147  0.00000  0.15707
      19     C     3.15383  3.15383  0.00000 -0.30766
      20     H     0.42051  0.42051  0.00000  0.15897
      21     H     0.42118  0.42118  0.00000  0.15763
      22     C     3.23977  3.23977  0.00000 -0.47954
      23     H     0.42208  0.42208  0.00000  0.15585
      24     H     0.42435  0.42435  0.00000  0.15129
      25     H     0.42125  0.42125  0.00000  0.15749
      26     H     0.41954  0.41954  0.00000  0.16092
      27     H     0.42231  0.42231  0.00000  0.15538

   Total alpha = 37.00000, Total beta = 37.00000, Total charge = -0.00000
