  ==> Input File <==

--------------------------------------------------------------------------
set {
	reference rhf
	basis 6-31G*
}

set_num_threads( 4 )
memory 2 gb

molecule MOL {
0 1

H	 2.226918	 -0.658147	 -0.111350
C	 1.630924	 -0.913237	 -0.995954
C	 0.341299	 -0.147609	 -1.142988
O	 2.015866	 -1.741328	 -1.756358
C	 -0.558097	 -0.297372	 0.091132
H	 -0.158392	 -0.492801	 -2.040558
H	 0.592971	 0.903396	 -1.280389
C	 -1.850991	 0.512573	 -0.019058
H	 -0.801081	 -1.348002	 0.232230
H	 -0.012570	 0.015304	 0.979666
C	 -3.096943	 -0.368295	 -0.099594
H	 -1.800724	 1.150330	 -0.898172
H	 -1.931651	 1.177355	 0.838044
H	 -3.060452	 -1.020287	 -0.967456
H	 -3.996858	 0.233488	 -0.175704
H	 -3.191959	 -0.995686	 0.782074

	symmetry c1
}
set optking {
	frozen_dihedral = ("
		9 5 8 12
	")
}

ee = optimize('scf')
oeprop('DIPOLE', 'QUADRUPOLE', 'MULLIKEN_CHARGES')
f=open( 'psi4out.xyz', 'w' )
f.write( "16  " )
f.write( str(ee) + "\n" )
f.write( MOL.save_string_xyz() )
f.close()
--------------------------------------------------------------------------

    Molecular point group: c1
  Charge       = 0
  Multiplicity = 1
  Basis Set: 6-31G*
  Basis Set:
  @DF-RHF Final Energy:  -270.01392605173589
    Total Energy =                       -270.0139260517358935
    Molecular point group: c1
  Basis Set: 6-31G*
  Basis Set:
  Basis Set: 6-31G*
  Basis Set:
  @DF-RHF Final Energy:  -270.01410452020667
    Total Energy =                       -270.0141045202065015
  Basis Set: 6-31G*
  Basis Set:
  Basis Set: 6-31G*
  Basis Set:
  @DF-RHF Final Energy:  -270.01405012421537
    Total Energy =                       -270.0140501242150890
  Basis Set: 6-31G*
  Basis Set:
  Basis Set: 6-31G*
  Basis Set:
  @DF-RHF Final Energy:  -270.01426892039711
    Total Energy =                       -270.0142689203970576
  Basis Set: 6-31G*
  Basis Set:
  Basis Set: 6-31G*
  Basis Set:
  @DF-RHF Final Energy:  -270.01427396433758
    Total Energy =                       -270.0142739643376331
  Basis Set: 6-31G*
  Basis Set:
  Charge       = 0
  Multiplicity = 1
  Basis Set: 6-31G*
  Basis Set:

    Orbital Energies (a.u.)
    -----------------------

    Doubly Occupied:

       1A    -20.562496     2A    -11.326235     3A    -11.236433
       4A    -11.235439     5A    -11.229002     6A    -11.217865
       7A     -1.402162     8A     -1.093920     9A     -1.017266
      10A     -0.905813    11A     -0.812093    12A     -0.794098
      13A     -0.675006    14A     -0.648774    15A     -0.622418
      16A     -0.607004    17A     -0.585543    18A     -0.547479
      19A     -0.527890    20A     -0.511427    21A     -0.487842
      22A     -0.476944    23A     -0.475089    24A     -0.408656

  @DF-RHF Final Energy:  -270.01427489612377

   => Energetics <=

    Nuclear Repulsion Energy =            229.8665245527271281
    One-Electron Energy =                -820.9478102895926668
    Two-Electron Energy =                 321.0670108407417160
    DFT Exchange-Correlation Energy =       0.0000000000000000
    Empirical Dispersion Energy =           0.0000000000000000
    PCM Polarization Energy =               0.0000000000000000
    EFP Energy =                            0.0000000000000000
    Total Energy =                       -270.0142748961238226
    Molecular point group: c1
  Basis Set: 6-31G*
  Basis Set:

  -Total Gradient:
     Atom            X                  Y                   Z
    ------   -----------------  -----------------  -----------------
       1        0.000017308742     0.000008032563    -0.000006181657
       2       -0.000071383615    -0.000060425037     0.000117424214
       3        0.000000949915     0.000021202052    -0.000035098296
       4        0.000000004658     0.000057784743    -0.000036312857
       5        0.000103631477    -0.000143265917     0.001775148538
       6        0.000007427018    -0.000009175217    -0.000020776724
       7       -0.000022702828     0.000054959689    -0.000081756336
       8        0.000579262862     0.001525374938     0.000658951916
       9       -0.000040790845    -0.000199580907    -0.001398788768
      10       -0.000024621826    -0.000055468334    -0.000087598806
      11       -0.000024681384    -0.000086309766     0.000007973709
      12       -0.000560218834    -0.001030500167    -0.000791358901
      13        0.000015869116    -0.000060323653    -0.000086479570
      14       -0.000015327090    -0.000024564237    -0.000007881569
      15        0.000046892157     0.000040702796     0.000007291416
      16       -0.000011619524    -0.000038443542    -0.000014556306

  **** Optimization is complete! (in 6 steps) ****
    Final optimized geometry and variables:
    Molecular point group: c1

    Geometry (in Angstrom), charge = 0, multiplicity = 1:

    H            2.502999655225    -0.158791529065     0.529851447285
    C            1.892893921813    -0.414732695306    -0.344788138644
    C            0.609384172488     0.362316124463    -0.481444844696
    O            2.258312756085    -1.254902931380    -1.101766415187
    C           -0.281553939161     0.220931350130     0.761948975312
    H            0.097351720623     0.020033743261    -1.373517136197
    H            0.867808043306     1.410992076951    -0.622678488983
    C           -1.596725021165     1.026171466726     0.652020837972
    H           -0.508904415130    -0.832479649754     0.901474332249
    H            0.278716651250     0.533670656101     1.638571492263
    C           -2.837504735119     0.137436279807     0.550662725906
    H           -1.559491471219     1.667685444512    -0.224056764513
    H           -1.699953707301     1.685009784364     1.508277499875
    H           -2.778669446152    -0.519933821985    -0.312291960386
    H           -3.738694633761     0.734355194109     0.452046179596
    H           -2.946392669876    -0.485676417493     1.433427454908

  Mulliken Charges: (a.u.)
   Center  Symbol    Alpha    Beta     Spin     Total
       1     H     0.43224  0.43224  0.00000  0.13551
       2     C     2.83056  2.83056  0.00000  0.33888
       3     C     3.20974  3.20974  0.00000 -0.41948
       4     O     4.23700  4.23700  0.00000 -0.47401
       5     C     3.16839  3.16839  0.00000 -0.33678
       6     H     0.39952  0.39952  0.00000  0.20097
       7     H     0.40940  0.40940  0.00000  0.18120
       8     C     3.15515  3.15515  0.00000 -0.31030
       9     H     0.41024  0.41024  0.00000  0.17952
      10     H     0.41622  0.41622  0.00000  0.16755
      11     C     3.24116  3.24116  0.00000 -0.48233
      12     H     0.41748  0.41748  0.00000  0.16503
      13     H     0.41649  0.41649  0.00000  0.16702
      14     H     0.41916  0.41916  0.00000  0.16169
      15     H     0.41781  0.41781  0.00000  0.16439
      16     H     0.41944  0.41944  0.00000  0.16113

   Total alpha = 24.00000, Total beta = 24.00000, Total charge = -0.00000
