  ==> Input File <==

--------------------------------------------------------------------------
set {
	reference rhf
	basis 6-31G*
}

set_num_threads( 1 )
memory 2 gb

molecule MOL {
0 1

H	 -0.525791	 -1.610206	 -0.297752
N	 -0.626943	 -0.667432	 -0.000092
C	 -1.937071	 -0.217586	 0.412122
C	 0.469286	 0.129090	 0.000148
H	 -2.652453	 -0.310617	 -0.398174
H	 -1.863209	 0.819454	 0.696411
H	 -2.295861	 -0.790603	 1.260623
C	 1.788933	 -0.616240	 -0.000037
O	 0.411098	 1.327768	 -0.000049
H	 1.872803	 -1.245775	 -0.880381
H	 2.595421	 0.101576	 0.003713
H	 1.870096	 -1.252171	 0.875943

	symmetry c1
}
set optking {
	frozen_dihedral = ("
		4 2 3 5
	")
}

ee = energy('scf')
oeprop('DIPOLE', 'QUADRUPOLE', 'MULLIKEN_CHARGES')
f=open( 'psi4out.xyz', 'w' )
f.write( "12  " )
f.write( str(ee) + "\n" )
f.write( MOL.save_string_xyz() )
f.close()
--------------------------------------------------------------------------

    Molecular point group: c1

    Geometry (in Angstrom), charge = 0, multiplicity = 1:

       Center              X                  Y                   Z               Mass
    ------------   -----------------  -----------------  -----------------  -----------------
           H         -0.534597142171    -1.598060062441    -0.382827076922     1.007825032070
           N         -0.635749142171    -0.655286062441    -0.085167076922    14.003074004780
           C         -1.945877142171    -0.205440062441     0.327046923078    12.000000000000
           C          0.460479857829     0.141235937559    -0.084927076922    12.000000000000
           H         -2.661259142171    -0.298471062441    -0.483249076922     1.007825032070
           H         -1.872015142171     0.831599937559     0.611335923078     1.007825032070
           H         -2.304667142171    -0.778457062441     1.175547923078     1.007825032070
           C          1.780126857829    -0.604094062441    -0.085112076922    12.000000000000
           O          0.402291857829     1.339913937559    -0.085124076922    15.994914619560
           H          1.863996857829    -1.233629062441    -0.965456076922     1.007825032070
           H          2.586614857829     0.113721937559    -0.081362076922     1.007825032070
           H          1.861289857829    -1.240025062441     0.790867923078     1.007825032070

  Charge       = 0
  Multiplicity = 1
  Basis Set: 6-31G*
  Basis Set:

    Orbital Energies (a.u.)
    -----------------------

    Doubly Occupied:

       1A    -20.518498     2A    -15.578095     3A    -11.343510
       4A    -11.254685     5A    -11.229069     6A     -1.385098
       7A     -1.227341     8A     -1.014798     9A     -0.931984
      10A     -0.786144    11A     -0.688654    12A     -0.647788
      13A     -0.632761    14A     -0.585728    15A     -0.580421
      16A     -0.555815    17A     -0.545491    18A     -0.504518
      19A     -0.413992    20A     -0.382529

  @DF-RHF Final Energy:  -247.00107398974242

   => Energetics <=

    Nuclear Repulsion Energy =            181.1955299648888911
    One-Electron Energy =                -694.7791892643654137
    Two-Electron Energy =                 266.5825853097337017
    DFT Exchange-Correlation Energy =       0.0000000000000000
    Empirical Dispersion Energy =           0.0000000000000000
    PCM Polarization Energy =               0.0000000000000000
    EFP Energy =                            0.0000000000000000
    Total Energy =                       -247.0010739897427925

  Mulliken Charges: (a.u.)
   Center  Symbol    Alpha    Beta     Spin     Total
       1     H     0.31139  0.31139  0.00000  0.37723
       2     N     3.89153  3.89153  0.00000 -0.78306
       3     C     3.14085  3.14085  0.00000 -0.28170
       4     C     2.63445  2.63445  0.00000  0.73111
       5     H     0.41609  0.41609  0.00000  0.16782
       6     H     0.38847  0.38847  0.00000  0.22306
       7     H     0.41741  0.41741  0.00000  0.16518
       8     C     3.29254  3.29254  0.00000 -0.58509
       9     O     4.29767  4.29767  0.00000 -0.59534
      10     H     0.41063  0.41063  0.00000  0.17874
      11     H     0.39301  0.39301  0.00000  0.21398
      12     H     0.40596  0.40596  0.00000  0.18808

   Total alpha = 20.00000, Total beta = 20.00000, Total charge =  0.00000
