                              Psi4 1.0.54 Driver

  ==> Input File <==

--------------------------------------------------------------------------
set {
	reference rhf
	basis cc-pvtz
}

set_num_threads( 4 )
memory 2 gb

molecule MOL {
0 1

H	 -2.437173	 -0.159173	 0.905935
O	 -2.313989	 -0.142475	 -0.025864
C	 -0.943808	 -0.065018	 -0.330000
H	 -0.812293	 -0.225641	 -1.398673
C	 -0.231030	 -1.182113	 0.407592
C	 -0.353797	 1.300461	 0.050970
H	 -0.312800	 -0.992012	 1.473041
H	 -0.738841	 -2.119564	 0.220514
C	 1.246176	 -1.268044	 -0.015480
H	 -0.539537	 2.008579	 -0.751815
H	 -0.889989	 1.662858	 0.920677
C	 1.153605	 1.231851	 0.356834
H	 1.823096	 -1.684665	 0.802361
H	 1.352335	 -1.958223	 -0.845114
C	 1.826409	 0.100723	 -0.416008
H	 1.622968	 2.181508	 0.128734
H	 1.301983	 1.066493	 1.419367
H	 2.897299	 0.112407	 -0.249665
H	 1.683458	 0.265621	 -1.480024

	symmetry c1
}
set optking {
	frozen_dihedral = ("
		1 2 3 4
	")
}

ee,wfn = optimize('scf', return_wfn=True)
oeprop( wfn, 'DIPOLE', 'QUADRUPOLE', 'MULLIKEN_CHARGES')
f=open( 'psi4out.xyz', 'w' )
f.write( "19  " )
f.write( str(ee) + "\n" )
f.write( MOL.save_string_xyz() )
f.close()
--------------------------------------------------------------------------

    Molecular point group: c1
  Charge       = 0
  Multiplicity = 1
  Basis Set: CC-PVTZ
  Basis Set:
  @DF-RHF Final Energy:  -309.16134591375146
    Total Energy =                       -309.1613459137512905
    Molecular point group: c1
  Basis Set: CC-PVTZ
  Basis Set:
  Basis Set: CC-PVTZ
  Basis Set:
  @DF-RHF Final Energy:  -309.16283429428455
    Total Energy =                       -309.1628342942844370
  Basis Set: CC-PVTZ
  Basis Set:
  Basis Set: CC-PVTZ
  Basis Set:
  @DF-RHF Final Energy:  -309.16317610771779
    Total Energy =                       -309.1631761077177316
  Basis Set: CC-PVTZ
  Basis Set:
  Basis Set: CC-PVTZ
  Basis Set:
  @DF-RHF Final Energy:  -309.16318036735117
    Total Energy =                       -309.1631803673511740
  Basis Set: CC-PVTZ
  Basis Set:
  Charge       = 0
  Multiplicity = 1
  Basis Set: CC-PVTZ
  Basis Set:

    Orbital Energies (a.u.)
    -----------------------

    Doubly Occupied:

       1A    -20.542865     2A    -11.267289     3A    -11.217141
       4A    -11.215731     5A    -11.215007     6A    -11.213291
       7A    -11.211330     8A     -1.363324     9A     -1.111457
      10A     -1.005207    11A     -0.989653    12A     -0.849567
      13A     -0.839496    14A     -0.753269    15A     -0.673763
      16A     -0.666471    17A     -0.620469    18A     -0.596153
      19A     -0.582104    20A     -0.563536    21A     -0.532741
      22A     -0.521392    23A     -0.502418    24A     -0.493499
      25A     -0.465993    26A     -0.450630    27A     -0.432323
      28A     -0.409845

  @DF-RHF Final Energy:  -309.16318082712382

   => Energetics <=

    Nuclear Repulsion Energy =            331.8239171653160611
    One-Electron Energy =               -1077.3622679367281307
    Two-Electron Energy =                 436.3751699442884728
    DFT Exchange-Correlation Energy =       0.0000000000000000
    Empirical Dispersion Energy =           0.0000000000000000
    PCM Polarization Energy =               0.0000000000000000
    EFP Energy =                            0.0000000000000000
    Total Energy =                       -309.1631808271235968
    Molecular point group: c1
  Basis Set: CC-PVTZ
  Basis Set:

  -Total Gradient:
     Atom            X                  Y                   Z
    ------   -----------------  -----------------  -----------------
       1        0.000032135160    -0.000858722948    -0.000023718127
       2       -0.000024855587     0.000895772273     0.000034709912
       3       -0.000040369980     0.000653855449    -0.000098401370
       4        0.000044909977    -0.000716419068     0.000124459441
       5       -0.000018008848    -0.000006780248    -0.000020385632
       6        0.000037587728    -0.000012519143     0.000012586102
       7       -0.000000232519    -0.000002844021    -0.000021718515
       8       -0.000000689483    -0.000008957639     0.000009705951
       9       -0.000020577068    -0.000013160915     0.000049398750
      10        0.000015271205     0.000023218195    -0.000007486079
      11        0.000009496215    -0.000009113245    -0.000009426472
      12       -0.000013969805     0.000033982181    -0.000031835192
      13        0.000013110619    -0.000025257992    -0.000002532741
      14       -0.000011973301     0.000004192403    -0.000001177925
      15       -0.000007584357     0.000022654691    -0.000022504642
      16        0.000000742979     0.000014268688     0.000014704726
      17       -0.000010174802     0.000000955072    -0.000001993483
      18       -0.000011401956    -0.000002377828     0.000001802504
      19        0.000006583820     0.000007254097    -0.000006187211

  **** Optimization is complete! (in 5 steps) ****
    Final optimized geometry and variables:
    Molecular point group: c1

    Geometry (in Angstrom), charge = 0, multiplicity = 1:

    H           -2.510779796471    -0.081881351632     0.850186271283
    O           -2.338832182841    -0.074933029460    -0.074662390254
    C           -0.952871262147    -0.059215941504    -0.301848416066
    H           -0.853361879964    -0.234507548573    -1.366238051271
    C           -0.229211340909    -1.179800110055     0.430403755129
    C           -0.340582617211     1.303026101155     0.050937654154
    H           -0.279134227368    -0.985650605720     1.500315094414
    H           -0.745448970782    -2.116463116512     0.259876944491
    C            1.240170117883    -1.280115097731    -0.019117017758
    H           -0.551908535622     2.001399756525    -0.750715430243
    H           -0.847320087389     1.687151821950     0.931006209404
    C            1.173829477637     1.225062527702     0.316995467926
    H            1.833483254757    -1.682416169982     0.794228984988
    H            1.324597880187    -1.987461724279    -0.836429777238
    C            1.814835351501     0.078231078597    -0.459639773158
    H            1.644722535680     2.167411277230     0.063425856095
    H            1.353546883225     1.071924249344     1.377032697705
    H            2.890565023392     0.084163145314    -0.328191746226
    H            1.638102585269     0.227432596194    -1.520678698577

  Mulliken Charges: (a.u.)
   Center  Symbol    Alpha    Beta     Spin     Total
       1     H     0.39529  0.39529  0.00000  0.20942
       2     O     4.20763  4.20763  0.00000 -0.41527
       3     C     2.93691  2.93691  0.00000  0.12618
       4     H     0.44168  0.44168  0.00000  0.11665
       5     C     3.10814  3.10814  0.00000 -0.21629
       6     C     3.11005  3.11005  0.00000 -0.22009
       7     H     0.46037  0.46037  0.00000  0.07925
       8     H     0.43919  0.43919  0.00000  0.12162
       9     C     3.11256  3.11256  0.00000 -0.22512
      10     H     0.44646  0.44646  0.00000  0.10708
      11     H     0.45330  0.45330  0.00000  0.09340
      12     C     3.10073  3.10073  0.00000 -0.20146
      13     H     0.44766  0.44766  0.00000  0.10467
      14     H     0.44565  0.44565  0.00000  0.10871
      15     C     3.10208  3.10208  0.00000 -0.20417
      16     H     0.44185  0.44185  0.00000  0.11631
      17     H     0.45468  0.45468  0.00000  0.09064
      18     H     0.44271  0.44271  0.00000  0.11458
      19     H     0.45306  0.45306  0.00000  0.09388

   Total alpha = 28.00000, Total beta = 28.00000, Total charge = -0.00000

*** Psi4 exiting successfully. Buy a developer a beer!
