  ==> Input File <==

--------------------------------------------------------------------------
set {
	reference rhf
	basis 6-31G*
}

set_num_threads( 4 )
memory 2 gb

molecule MOL {
0 1

H	 -0.156542	 0.816873	 -2.541053
C	 -0.917787	 0.927521	 -1.774617
O	 -0.774054	 0.001095	 -0.743181
H	 -1.882795	 0.738645	 -2.225633
H	 -0.904332	 1.952610	 -1.416561
C	 0.406953	 0.000033	 0.038965
C	 1.527284	 -0.003667	 -0.998752
C	 0.498933	 1.262172	 0.902524
C	 0.494271	 -1.259566	 0.906664
H	 1.452513	 0.873252	 -1.631882
H	 1.448863	 -0.881882	 -1.629595
H	 2.502020	 -0.005104	 -0.521731
H	 0.364280	 2.147110	 0.289513
H	 1.472180	 1.321775	 1.378800
H	 -0.247853	 1.275162	 1.689097
H	 0.356778	 -2.146106	 0.296587
H	 1.467182	 -1.320941	 1.383330
H	 -0.252763	 -1.267328	 1.693119

	symmetry c1
}
set optking {
	frozen_dihedral = ("
		2 3 6 7
	")
}

ee = optimize('scf')
oeprop('DIPOLE', 'QUADRUPOLE', 'MULLIKEN_CHARGES')
f=open( 'psi4out.xyz', 'w' )
f.write( "18  " )
f.write( str(ee) + "\n" )
f.write( MOL.save_string_xyz() )
f.close()
--------------------------------------------------------------------------

    Molecular point group: c1
  Charge       = 0
  Multiplicity = 1
  Basis Set: 6-31G*
  Basis Set:
  @DF-RHF Final Energy:  -271.16471118581643
    Total Energy =                       -271.1647111858164294
    Molecular point group: c1
  Basis Set: 6-31G*
  Basis Set:
  Basis Set: 6-31G*
  Basis Set:
  @DF-RHF Final Energy:  -271.17026340915822
    Total Energy =                       -271.1702634091582809
  Basis Set: 6-31G*
  Basis Set:
  Basis Set: 6-31G*
  Basis Set:
  @DF-RHF Final Energy:  -271.17472685260424
    Total Energy =                       -271.1747268526041239
  Basis Set: 6-31G*
  Basis Set:
  Basis Set: 6-31G*
  Basis Set:
  @DF-RHF Final Energy:  -271.17519805118314
    Total Energy =                       -271.1751980511832585
  Basis Set: 6-31G*
  Basis Set:
  @DF-RHF Final Energy:  -271.17530042455621
    Total Energy =                       -271.1753004245562693
  @DF-RHF Final Energy:  -271.17537140777188
    Total Energy =                       -271.1753714077719906
  Basis Set: 6-31G*
  Basis Set:
  @DF-RHF Final Energy:  -271.17537042136382
    Total Energy =                       -271.1753704213639935
  Basis Set: 6-31G*
  Basis Set:
  Basis Set: 6-31G*
  Basis Set:
  @DF-RHF Final Energy:  -271.17538030211261
    Total Energy =                       -271.1753803021125577
  Basis Set: 6-31G*
  Basis Set:
  Basis Set: 6-31G*
  Basis Set:
  @DF-RHF Final Energy:  -271.17538152850449
    Total Energy =                       -271.1753815285042037
  Basis Set: 6-31G*
  Basis Set:
  Charge       = 0
  Multiplicity = 1
  Basis Set: 6-31G*
  Basis Set:

    Orbital Energies (a.u.)
    -----------------------

    Doubly Occupied:

       1A    -20.546674     2A    -11.281312     3A    -11.260828
       4A    -11.210309     5A    -11.207088     6A    -11.203360
       7A     -1.369979     8A     -1.073006     9A     -0.946944
      10A     -0.938730    11A     -0.912468    12A     -0.752284
      13A     -0.655464    14A     -0.644602    15A     -0.637648
      16A     -0.591817    17A     -0.574260    18A     -0.552550
      19A     -0.534294    20A     -0.524318    21A     -0.514777
      22A     -0.488665    23A     -0.486067    24A     -0.439479
      25A     -0.403469

  @DF-RHF Final Energy:  -271.17538244839790

   => Energetics <=

    Nuclear Repulsion Energy =            272.3382560855326915
    One-Electron Energy =                -907.5264920048780368
    Two-Electron Energy =                 364.0128534709471069
    DFT Exchange-Correlation Energy =       0.0000000000000000
    Empirical Dispersion Energy =           0.0000000000000000
    PCM Polarization Energy =               0.0000000000000000
    EFP Energy =                            0.0000000000000000
    Total Energy =                       -271.1753824483981816
    Molecular point group: c1
  Basis Set: 6-31G*
  Basis Set:

  -Total Gradient:
     Atom            X                  Y                   Z
    ------   -----------------  -----------------  -----------------
       1       -0.000000221554     0.000007619763    -0.000004907987
       2        0.000274289241    -0.000463544019    -0.000452873045
       3       -0.000372964551     0.000927473989     0.000721271301
       4        0.000003098742     0.000010710714    -0.000007561673
       5       -0.000001637316    -0.000000263987    -0.000006391368
       6        0.000164664797    -0.001072294725    -0.000198109250
       7       -0.000008741549     0.000603395968    -0.000060561653
       8       -0.000037139639     0.000002021804    -0.000002509093
       9       -0.000006173066    -0.000010887085     0.000023370705
      10        0.000006824296    -0.000003875726    -0.000010291924
      11        0.000009119951     0.000003318597    -0.000004446553
      12       -0.000004415900     0.000002053220    -0.000005260306
      13        0.000002683769     0.000003007975     0.000002020624
      14       -0.000012651404    -0.000012567698    -0.000013593399
      15       -0.000005321474     0.000012986486     0.000013624589
      16        0.000001600533    -0.000002515766     0.000000599929
      17       -0.000008922921     0.000000745707    -0.000002961186
      18       -0.000004091953    -0.000007385215     0.000008580286

  **** Optimization is complete! (in 10 steps) ****
    Final optimized geometry and variables:
    Molecular point group: c1

    Geometry (in Angstrom), charge = 0, multiplicity = 1:

    H           -0.626178860890     0.479583782283    -2.311405015277
    C           -1.232351944532     0.700517517043    -1.438078090633
    O           -0.984616989744    -0.181976666698    -0.388051975994
    H           -2.273247435445     0.577596110006    -1.706163599938
    H           -1.073266028356     1.738332441427    -1.159412420752
    C            0.259927077396    -0.132745180779     0.287697235371
    C            1.439705928521    -0.152057200320    -0.688975151410
    C            0.322749586047     1.106355764435     1.186717932170
    C            0.265520809832    -1.398546376243     1.141307083969
    H            1.505487628266     0.762160747146    -1.269096390249
    H            1.351652415026    -0.987422255097    -1.376043938017
    H            2.371687858343    -0.258993907497    -0.143924977538
    H            0.326521884478     2.025236130775     0.610143526129
    H            1.225736761963     1.096011621641     1.788901421638
    H           -0.533146098204     1.127508374250     1.852463625487
    H            0.211067722725    -2.277494329598     0.508768332016
    H            1.165991674673    -1.459621097959     1.743984765064
    H           -0.593991744871    -1.405581206790     1.801952954085

  Mulliken Charges: (a.u.)
   Center  Symbol    Alpha    Beta     Spin     Total
       1     H     0.42798  0.42798  0.00000  0.14403
       2     C     3.07930  3.07930  0.00000 -0.15860
       3     O     4.31896  4.31896  0.00000 -0.63791
       4     H     0.41277  0.41277  0.00000  0.17446
       5     H     0.43112  0.43112  0.00000  0.13776
       6     C     2.84259  2.84259  0.00000  0.31482
       7     C     3.25149  3.25149  0.00000 -0.50297
       8     C     3.24239  3.24239  0.00000 -0.48478
       9     C     3.23296  3.23296  0.00000 -0.46592
      10     H     0.41928  0.41928  0.00000  0.16144
      11     H     0.41363  0.41363  0.00000  0.17275
      12     H     0.41789  0.41789  0.00000  0.16422
      13     H     0.42096  0.42096  0.00000  0.15808
      14     H     0.42170  0.42170  0.00000  0.15659
      15     H     0.41341  0.41341  0.00000  0.17319
      16     H     0.41509  0.41509  0.00000  0.16983
      17     H     0.42511  0.42511  0.00000  0.14978
      18     H     0.41338  0.41338  0.00000  0.17325

   Total alpha = 25.00000, Total beta = 25.00000, Total charge =  0.00000
