                              Psi4 1.0.54 Driver

  ==> Input File <==

--------------------------------------------------------------------------
set {
	reference rhf
	basis cc-pvtz
}

set_num_threads( 4 )
memory 2 gb

molecule MOL {
0 1

O	 1.847685	 1.294399	 -0.000190
C	 1.704209	 0.119472	 -0.000093
C	 0.380337	 -0.600947	 -0.000234
O	 2.715427	 -0.733672	 0.000025
C	 -0.824290	 0.329213	 -0.000115
H	 0.371455	 -1.255476	 -0.865660
H	 0.371410	 -1.255787	 0.864952
C	 -2.146151	 -0.432825	 -0.000068
H	 -0.773936	 0.979158	 -0.866319
H	 -0.773838	 0.979034	 0.866186
C	 -3.366283	 0.483552	 0.000557
H	 -2.189286	 -1.084450	 -0.869996
H	 -2.188867	 -1.085083	 0.869399
C	 -3.782265	 0.926255	 1.399265
H	 -4.197283	 -0.026669	 -0.478265
H	 -3.156579	 1.359101	 -0.607388
H	 -4.032030	 0.073551	 2.021959
H	 -4.650175	 1.574486	 1.363726
H	 -2.983244	 1.470623	 1.891671
C	 4.020999	 -0.192556	 0.000019
H	 4.182809	 0.412891	 -0.879449
H	 4.692590	 -1.035653	 0.000152
H	 4.182726	 0.413087	 0.879368

	symmetry c1
}
set optking {
	frozen_dihedral = ("
		15 11 8 12
	")
}

ee,wfn = optimize('scf', return_wfn=True)
oeprop( wfn, 'DIPOLE', 'QUADRUPOLE', 'MULLIKEN_CHARGES')
f=open( 'psi4out.xyz', 'w' )
f.write( "23  " )
f.write( str(ee) + "\n" )
f.write( MOL.save_string_xyz() )
f.close()
--------------------------------------------------------------------------

    Molecular point group: c1
  Charge       = 0
  Multiplicity = 1
  Basis Set: CC-PVTZ
  Basis Set:
  @DF-RHF Final Energy:  -423.12815282720891
    Total Energy =                       -423.1281528272090782
    Molecular point group: c1
  Basis Set: CC-PVTZ
  Basis Set:
  Basis Set: CC-PVTZ
  Basis Set:
  @DF-RHF Final Energy:  -423.12833439866108
    Total Energy =                       -423.1283343986611953
  Basis Set: CC-PVTZ
  Basis Set:
  Basis Set: CC-PVTZ
  Basis Set:
  @DF-RHF Final Energy:  -423.12837459975407
    Total Energy =                       -423.1283745997536698
  Basis Set: CC-PVTZ
  Basis Set:
  Basis Set: CC-PVTZ
  Basis Set:
  @DF-RHF Final Energy:  -423.12836033270213
    Total Energy =                       -423.1283603327026412
  Basis Set: CC-PVTZ
  Basis Set:
  Basis Set: CC-PVTZ
  Basis Set:
  @DF-RHF Final Energy:  -423.12837763237781
    Total Energy =                       -423.1283776323782604
  Basis Set: CC-PVTZ
  Basis Set:
  Charge       = 0
  Multiplicity = 1
  Basis Set: CC-PVTZ
  Basis Set:

    Orbital Energies (a.u.)
    -----------------------

    Doubly Occupied:

       1A    -20.596356     2A    -20.534183     3A    -11.364624
       4A    -11.278511     5A    -11.233739     6A    -11.217259
       7A    -11.215770     8A    -11.214506     9A    -11.207167
      10A     -1.472246    11A     -1.365824    12A     -1.094036
      13A     -1.043360    14A     -0.986835    15A     -0.932147
      16A     -0.852337    17A     -0.789063    18A     -0.769574
      19A     -0.698945    20A     -0.686567    21A     -0.676051
      22A     -0.643180    23A     -0.616617    24A     -0.598068
      25A     -0.587476    26A     -0.563753    27A     -0.534592
      28A     -0.531561    29A     -0.523086    30A     -0.508840
      31A     -0.493806    32A     -0.467622    33A     -0.463564
      34A     -0.461761    35A     -0.456418    36A     -0.438520

  @DF-RHF Final Energy:  -423.12837777125782

   => Energetics <=

    Nuclear Repulsion Energy =            456.6625935146740289
    One-Electron Energy =               -1481.3460154379322375
    Two-Electron Energy =                 601.5550441520000504
    DFT Exchange-Correlation Energy =       0.0000000000000000
    Empirical Dispersion Energy =           0.0000000000000000
    PCM Polarization Energy =               0.0000000000000000
    EFP Energy =                            0.0000000000000000
    Total Energy =                       -423.1283777712582150
    Molecular point group: c1
  Basis Set: CC-PVTZ
  Basis Set:

  -Total Gradient:
     Atom            X                  Y                   Z
    ------   -----------------  -----------------  -----------------
       1       -0.000018572572     0.000011936077    -0.000023134857
       2        0.000010815734     0.000001922205     0.000035808522
       3        0.000007720661     0.000003666742     0.000007014557
       4        0.000006791589    -0.000020247010    -0.000004776905
       5        0.000005374337    -0.000002402651     0.000002762074
       6        0.000002304189     0.000002772847    -0.000009287542
       7        0.000000120273     0.000001652152    -0.000012367280
       8        0.001804347518     0.002719989650    -0.002425196676
       9       -0.000003637617    -0.000006420621     0.000006734591
      10       -0.000003251754     0.000001651847     0.000002296169
      11       -0.001176496433    -0.001871761586     0.003419008282
      12       -0.001321806894    -0.001993911494     0.001490901784
      13        0.000002110431     0.000005793534    -0.000002809702
      14       -0.000002700211     0.000012346950     0.000002868679
      15        0.000691860904     0.001136048131    -0.002488764288
      16       -0.000001003687     0.000000187993     0.000005824274
      17        0.000001782859     0.000001286975    -0.000006804702
      18        0.000002402013    -0.000001118592     0.000003164721
      19       -0.000003525013    -0.000003066561    -0.000001990911
      20       -0.000002308097     0.000003705363     0.000000560320
      21       -0.000000064566    -0.000000438809    -0.000000290778
      22       -0.000002633280    -0.000002981895    -0.000000636283
      23        0.000000369617    -0.000000611251    -0.000000884047

  **** Optimization is complete! (in 6 steps) ****
    Final optimized geometry and variables:
    Molecular point group: c1

    Geometry (in Angstrom), charge = 0, multiplicity = 1:

    O            1.719006948223     1.197076245740    -0.163337417798
    C            1.601200819883     0.019243161255    -0.166375461295
    C            0.293311177678    -0.729683199736    -0.167015372617
    O            2.630787789913    -0.811638062768    -0.169136959781
    C           -0.930817895666     0.174554302488    -0.171987909262
    H            0.299817675047    -1.386970945008    -1.030392197417
    H            0.297015509643    -1.381716719661     0.700289341731
    C           -2.235156001466    -0.618103857971    -0.183089386917
    H           -0.891703883676     0.823939203293    -1.039014564235
    H           -0.894176614992     0.825853340496     0.693079553900
    C           -3.493550153184     0.256827870326    -0.135711349481
    H           -2.270357361991    -1.253736303920    -1.063276191247
    H           -2.248906032674    -1.301132968078     0.663954954450
    C           -3.898088984064     0.688448179710     1.270463975484
    H           -4.316013491770    -0.271861424997    -0.606100954600
    H           -3.332410829811     1.139985028940    -0.748295488865
    H           -4.133379410575    -0.171840485389     1.888191395833
    H           -4.773821162790     1.326704845205     1.245170685738
    H           -3.105198480992     1.240917028419     1.761988093288
    C            3.924221114923    -0.242288601651    -0.167948730397
    H            4.072533970496     0.369212071229    -1.045620282131
    H            4.614011829812    -1.070576819772    -0.170647475841
    H            4.073220604412     0.364045763266     0.713186495758

  Mulliken Charges: (a.u.)
   Center  Symbol    Alpha    Beta     Spin     Total
       1     O     4.19712  4.19712  0.00000 -0.39423
       2     C     2.80616  2.80616  0.00000  0.38768
       3     C     3.10213  3.10213  0.00000 -0.20425
       4     O     4.14644  4.14644  0.00000 -0.29288
       5     C     3.08416  3.08416  0.00000 -0.16832
       6     H     0.43957  0.43957  0.00000  0.12087
       7     H     0.43968  0.43968  0.00000  0.12064
       8     C     3.09760  3.09760  0.00000 -0.19521
       9     H     0.44614  0.44614  0.00000  0.10773
      10     H     0.44545  0.44545  0.00000  0.10910
      11     C     3.09061  3.09061  0.00000 -0.18121
      12     H     0.44847  0.44847  0.00000  0.10306
      13     H     0.45721  0.45721  0.00000  0.08559
      14     C     3.14814  3.14814  0.00000 -0.29629
      15     H     0.44769  0.44769  0.00000  0.10462
      16     H     0.45470  0.45470  0.00000  0.09059
      17     H     0.45572  0.45572  0.00000  0.08856
      18     H     0.44755  0.44755  0.00000  0.10489
      19     H     0.45370  0.45370  0.00000  0.09259
      20     C     3.03775  3.03775  0.00000 -0.07550
      21     H     0.45435  0.45435  0.00000  0.09130
      22     H     0.44533  0.44533  0.00000  0.10935
      23     H     0.45435  0.45435  0.00000  0.09131

   Total alpha = 36.00000, Total beta = 36.00000, Total charge = -0.00000

*** Psi4 exiting successfully. Buy a developer a beer!
