  ==> Input File <==

--------------------------------------------------------------------------
set {
	reference rhf
	basis 6-31G*
}

set_num_threads( 4 )
memory 2 gb

molecule MOL {
0 1

H	 -0.944757	 -0.000069	 1.678017
O	 -0.042387	 -0.000390	 1.388199
C	 -0.001487	 0.000018	 -0.026623
C	 0.733286	 -1.248704	 -0.517989
C	 -1.427026	 0.046206	 -0.580112
C	 0.766046	 1.262434	 -0.402947
H	 0.818816	 -1.257913	 -1.599884
H	 0.203230	 -2.150769	 -0.220963
H	 1.729909	 -1.289396	 -0.092426
H	 -1.429614	 0.087608	 -1.664718
H	 -1.985892	 -0.837970	 -0.282063
H	 -1.949053	 0.917371	 -0.200064
H	 0.854434	 1.357150	 -1.480426
H	 1.761856	 1.236936	 0.025071
H	 0.256419	 2.139004	 -0.019150

	symmetry c1
}
set optking {
	frozen_dihedral = ("
		4 3 2 1
	")
}

ee = optimize('scf')
oeprop('DIPOLE', 'QUADRUPOLE', 'MULLIKEN_CHARGES')
f=open( 'psi4out.xyz', 'w' )
f.write( "15  " )
f.write( str(ee) + "\n" )
f.write( MOL.save_string_xyz() )
f.close()
--------------------------------------------------------------------------

    Molecular point group: c1
  Charge       = 0
  Multiplicity = 1
  Basis Set: 6-31G*
  Basis Set:
  @DF-RHF Final Energy:  -232.15018743904935
    Total Energy =                       -232.1501874390492617
    Molecular point group: c1
  Basis Set: 6-31G*
  Basis Set:
  Basis Set: 6-31G*
  Basis Set:
  @DF-RHF Final Energy:  -232.15072392192167
    Total Energy =                       -232.1507239219216672
  Basis Set: 6-31G*
  Basis Set:
  Basis Set: 6-31G*
  Basis Set:
  @DF-RHF Final Energy:  -232.15085784523905
    Total Energy =                       -232.1508578452389884
  Basis Set: 6-31G*
  Basis Set:
  Basis Set: 6-31G*
  Basis Set:
  @DF-RHF Final Energy:  -232.15084417438251
    Total Energy =                       -232.1508441743823141
  Basis Set: 6-31G*
  Basis Set:
  Basis Set: 6-31G*
  Basis Set:
  @DF-RHF Final Energy:  -232.15086164787630
    Total Energy =                       -232.1508616478760132
  Basis Set: 6-31G*
  Basis Set:
  Charge       = 0
  Multiplicity = 1
  Basis Set: 6-31G*
  Basis Set:

    Orbital Energies (a.u.)
    -----------------------

    Doubly Occupied:

       1A    -20.546559     2A    -11.282043     3A    -11.218889
       4A    -11.204387     5A    -11.204361     6A     -1.357902
       7A     -1.063820     8A     -0.945829     9A     -0.935152
      10A     -0.775648    11A     -0.669124    12A     -0.622646
      13A     -0.621021    14A     -0.575160    15A     -0.556344
      16A     -0.533389    17A     -0.516740    18A     -0.508646
      19A     -0.501464    20A     -0.456743    21A     -0.422341

  @DF-RHF Final Energy:  -232.15086176578134

   => Energetics <=

    Nuclear Repulsion Energy =            200.2383209138019140
    One-Electron Energy =                -711.7419494697631990
    Two-Electron Energy =                 279.3527667901800555
    DFT Exchange-Correlation Energy =       0.0000000000000000
    Empirical Dispersion Energy =           0.0000000000000000
    PCM Polarization Energy =               0.0000000000000000
    EFP Energy =                            0.0000000000000000
    Total Energy =                       -232.1508617657812579
    Molecular point group: c1
  Basis Set: 6-31G*
  Basis Set:

  -Total Gradient:
     Atom            X                  Y                   Z
    ------   -----------------  -----------------  -----------------
       1       -0.000015533737     0.000060945834    -0.000011459385
       2        0.000043748411    -0.000072102022    -0.000052627231
       3       -0.000061086906     0.000007178148     0.000004454257
       4        0.000036755104     0.000015777341     0.000003312656
       5       -0.000012366663    -0.000015613534     0.000020539649
       6        0.000011924640     0.000008009469     0.000024872854
       7       -0.000003391345     0.000004375970     0.000014746669
       8       -0.000004880072    -0.000008318256    -0.000004698294
       9        0.000008760209    -0.000004382674     0.000000610152
      10        0.000003682909    -0.000004955775    -0.000001887824
      11       -0.000011688944     0.000010995538     0.000004030014
      12        0.000004022999    -0.000000044081    -0.000001910910
      13        0.000001531350    -0.000007804857     0.000001562560
      14        0.000001484458     0.000014228655     0.000002131585
      15       -0.000002962411    -0.000008289754    -0.000003676752

  **** Optimization is complete! (in 6 steps) ****
    Final optimized geometry and variables:
    Molecular point group: c1

    Geometry (in Angstrom), charge = 0, multiplicity = 1:

    H           -0.917493399093    -0.057234645441     1.706670684666
    O           -0.025712940023    -0.051776650968     1.392745591048
    C            0.003013289479     0.000821018170    -0.025998647300
    C            0.732613204818    -1.250463069265    -0.511679729372
    C           -1.421544423524     0.044312654913    -0.579317636168
    C            0.771916964123     1.261886249517    -0.416143287459
    H            0.835940568269    -1.254182540462    -1.592633433392
    H            0.191978253857    -2.143009325675    -0.214204193255
    H            1.722482104423    -1.297154967647    -0.071554211460
    H           -1.419322918728     0.084635813887    -1.662968317148
    H           -1.977892522012    -0.840271306829    -0.280221275984
    H           -1.949417661065     0.921514811382    -0.214332929558
    H            0.877665905844     1.343659638029    -1.493782085961
    H            1.761803551988     1.244721795510     0.026067536475
    H            0.258363358626     2.145640987938    -0.052097998001

  Mulliken Charges: (a.u.)
   Center  Symbol    Alpha    Beta     Spin     Total
       1     H     0.27926  0.27926  0.00000  0.44149
       2     O     4.38409  4.38409  0.00000 -0.76817
       3     C     2.84399  2.84399  0.00000  0.31203
       4     C     3.23157  3.23157  0.00000 -0.46314
       5     C     3.26119  3.26119  0.00000 -0.52238
       6     C     3.23157  3.23157  0.00000 -0.46315
       7     H     0.42591  0.42591  0.00000  0.14817
       8     H     0.42020  0.42020  0.00000  0.15960
       9     H     0.41311  0.41311  0.00000  0.17377
      10     H     0.41402  0.41402  0.00000  0.17197
      11     H     0.41813  0.41813  0.00000  0.16375
      12     H     0.41791  0.41791  0.00000  0.16419
      13     H     0.42591  0.42591  0.00000  0.14819
      14     H     0.41310  0.41310  0.00000  0.17380
      15     H     0.42006  0.42006  0.00000  0.15989

   Total alpha = 21.00000, Total beta = 21.00000, Total charge =  0.00000
