  ==> Input File <==

--------------------------------------------------------------------------
set {
	reference rhf
	basis 6-31G*
}

set_num_threads( 4 )
memory 2 gb

molecule MOL {
0 1

H	 4.119436	 -0.538148	 -2.436573
C	 3.383749	 -0.969417	 -1.765363
C	 2.107749	 -0.129274	 -1.734621
H	 3.179764	 -1.980645	 -2.106001
H	 3.836239	 -1.037824	 -0.780060
C	 1.046160	 -0.701159	 -0.800612
H	 1.685616	 -0.052138	 -2.731738
H	 2.351897	 0.884694	 -1.422127
N	 -0.158700	 0.104680	 -0.820508
H	 0.783291	 -1.703557	 -1.127815
H	 1.462085	 -0.804046	 0.207257
C	 -1.217365	 -0.386708	 0.039277
H	 0.067105	 1.047407	 -0.564936
C	 -2.452633	 0.504241	 -0.042481
H	 -1.476459	 -1.389611	 -0.289377
H	 -0.898699	 -0.476150	 1.083229
C	 -3.758029	 -0.289423	 -0.010781
H	 -2.394220	 1.093569	 -0.952170
H	 -2.440793	 1.210787	 0.785871
H	 -3.816659	 -0.981993	 -0.845726
H	 -4.617837	 0.370165	 -0.069296
H	 -3.847478	 -0.867502	 0.904682

	symmetry c1
}
set optking {
	frozen_dihedral = ("
		15 12 14 18
	")
}

ee = optimize('scf')
oeprop('DIPOLE', 'QUADRUPOLE', 'MULLIKEN_CHARGES')
f=open( 'psi4out.xyz', 'w' )
f.write( "22  " )
f.write( str(ee) + "\n" )
f.write( MOL.save_string_xyz() )
f.close()
--------------------------------------------------------------------------

    Molecular point group: c1
  Charge       = 0
  Multiplicity = 1
  Basis Set: 6-31G*
  Basis Set:
  @DF-RHF Final Energy:  -290.37899606546358
    Total Energy =                       -290.3789960654638662
    Molecular point group: c1
  Basis Set: 6-31G*
  Basis Set:
  Basis Set: 6-31G*
  Basis Set:
  @DF-RHF Final Energy:  -290.37927437358417
    Total Energy =                       -290.3792743735841668
  Basis Set: 6-31G*
  Basis Set:
  Basis Set: 6-31G*
  Basis Set:
  @DF-RHF Final Energy:  -290.37934093878363
    Total Energy =                       -290.3793409387835709
  Basis Set: 6-31G*
  Basis Set:
  Basis Set: 6-31G*
  Basis Set:
  @DF-RHF Final Energy:  -290.37934203373550
    Total Energy =                       -290.3793420337356679
  Basis Set: 6-31G*
  Basis Set:
  Charge       = 0
  Multiplicity = 1
  Basis Set: 6-31G*
  Basis Set:

    Orbital Energies (a.u.)
    -----------------------

    Doubly Occupied:

       1A    -15.534397     2A    -11.237874     3A    -11.237765
       4A    -11.213569     5A    -11.213214     6A    -11.209731
       7A    -11.209501     8A     -1.205628     9A     -1.058041
      10A     -1.025321    11A     -0.927795    12A     -0.868471
      13A     -0.812013    14A     -0.794339    15A     -0.664782
      16A     -0.628072    17A     -0.615333    18A     -0.610676
      19A     -0.573485    20A     -0.563142    21A     -0.534575
      22A     -0.526532    23A     -0.513881    24A     -0.486672
      25A     -0.479451    26A     -0.474079    27A     -0.464054
      28A     -0.450203    29A     -0.358481

  @DF-RHF Final Energy:  -290.37934239674610

   => Energetics <=

    Nuclear Repulsion Energy =            313.2055536277997589
    One-Electron Energy =               -1012.1876398746402401
    Two-Electron Energy =                 408.6027438500943845
    DFT Exchange-Correlation Energy =       0.0000000000000000
    Empirical Dispersion Energy =           0.0000000000000000
    PCM Polarization Energy =               0.0000000000000000
    EFP Energy =                            0.0000000000000000
    Total Energy =                       -290.3793423967460967
    Molecular point group: c1
  Basis Set: 6-31G*
  Basis Set:

  -Total Gradient:
     Atom            X                  Y                   Z
    ------   -----------------  -----------------  -----------------
       1        0.000003746206    -0.000000775544     0.000001378529
       2        0.000006912504     0.000006662892    -0.000006027698
       3        0.000022494303    -0.000020034265    -0.000004390876
       4       -0.000000121921     0.000000400757    -0.000002379919
       5       -0.000001691283    -0.000001000892     0.000000686776
       6        0.000060926731     0.000008130672    -0.000006649870
       7       -0.000001021311    -0.000004645304     0.000000065169
       8       -0.000001222809    -0.000000276750     0.000000836273
       9       -0.000054673855    -0.000046902717     0.000050930850
      10       -0.000010204485     0.000013546012    -0.000002778849
      11       -0.000005797512    -0.000000233759    -0.000005901808
      12        0.001662291935     0.002178477048    -0.004781143840
      13       -0.000005284244     0.000004398073     0.000006419084
      14       -0.003031627252    -0.004207215420    -0.001675607099
      15       -0.000965686119    -0.001157525523     0.004208304924
      16        0.000037460711     0.000012613129     0.000009536144
      17        0.000009151602     0.000037633026    -0.000007040773
      18        0.002262644445     0.003159014390     0.002187653663
      19       -0.000007725858     0.000003220056     0.000017266136
      20        0.000021515646     0.000010770858     0.000016589160
      21       -0.000015113441    -0.000006761157    -0.000007511345
      22        0.000013026005     0.000010504420    -0.000000234631

  **** Optimization is complete! (in 5 steps) ****
    Final optimized geometry and variables:
    Molecular point group: c1

    Geometry (in Angstrom), charge = 0, multiplicity = 1:

    H            4.299160109076    -0.247149001874    -1.663319889183
    C            3.558114054653    -0.679140175047    -0.998472539558
    C            2.270153101049     0.143083834731    -1.001944953094
    H            3.374229888467    -1.697983223558    -1.327589614478
    H            3.994418625981    -0.726790708328    -0.004676408587
    C            1.200563878278    -0.430709794175    -0.078343508516
    H            1.864593627773     0.200050673502    -2.007214133869
    H            2.494445482150     1.164809658018    -0.699818654422
    N           -0.014759170613     0.357716015696    -0.129854714479
    H            0.956139991150    -1.440818319936    -0.396136058165
    H            1.599926317124    -0.514588888982     0.937905380709
    C           -1.080598554936    -0.142808439986     0.715223133059
    H            0.192374553405     1.305390077364     0.124557404725
    C           -2.314004834466     0.770889664296     0.680948755458
    H           -1.350193823751    -1.141877889355     0.383461717973
    H           -0.756044745423    -0.267587016603     1.753730376674
    C           -3.635237787593     0.011042500521     0.769995066606
    H           -2.275338768040     1.371740787365    -0.222518535031
    H           -2.256537985473     1.479893899276     1.504668812435
    H           -3.762197942545    -0.649871828509    -0.082089030423
    H           -4.479742044838     0.692452887462     0.792647273524
    H           -3.678136599066    -0.596720683172     1.669910525412

  Mulliken Charges: (a.u.)
   Center  Symbol    Alpha    Beta     Spin     Total
       1     H     0.41773  0.41773  0.00000  0.16454
       2     C     3.24327  3.24327  0.00000 -0.48654
       3     C     3.15534  3.15534  0.00000 -0.31068
       4     H     0.42067  0.42067  0.00000  0.15865
       5     H     0.42168  0.42168  0.00000  0.15663
       6     C     3.04779  3.04779  0.00000 -0.09559
       7     H     0.41296  0.41296  0.00000  0.17407
       8     H     0.42669  0.42669  0.00000  0.14662
       9     N     3.85698  3.85698  0.00000 -0.71395
      10     H     0.42152  0.42152  0.00000  0.15696
      11     H     0.43611  0.43611  0.00000  0.12778
      12     C     3.04898  3.04898  0.00000 -0.09796
      13     H     0.33496  0.33496  0.00000  0.33008
      14     C     3.16214  3.16214  0.00000 -0.32427
      15     H     0.42047  0.42047  0.00000  0.15906
      16     H     0.43535  0.43535  0.00000  0.12929
      17     C     3.24219  3.24219  0.00000 -0.48438
      18     H     0.41175  0.41175  0.00000  0.17649
      19     H     0.42383  0.42383  0.00000  0.15234
      20     H     0.41844  0.41844  0.00000  0.16311
      21     H     0.41908  0.41908  0.00000  0.16184
      22     H     0.42205  0.42205  0.00000  0.15591

   Total alpha = 29.00000, Total beta = 29.00000, Total charge = -0.00000
