                              Psi4 1.0.54 Driver

  ==> Input File <==

--------------------------------------------------------------------------
set {
	reference rhf
	basis cc-pvtz
}

set_num_threads( 4 )
memory 2 gb

molecule MOL {
0 1

H	 -2.499060	 -0.741154	 -0.729152
O	 -2.346354	 -0.289206	 0.080369
C	 -1.184032	 0.486043	 -0.009834
C	 0.062756	 -0.375306	 0.027454
H	 -1.178978	 1.094530	 -0.908637
H	 -1.184503	 1.155160	 0.838673
O	 1.171996	 0.457959	 -0.054441
H	 0.052379	 -1.081298	 -0.804630
H	 0.076226	 -0.955654	 0.947557
C	 2.395381	 -0.199024	 -0.000369
H	 2.505849	 -0.901706	 -0.823357
H	 3.174519	 0.545645	 -0.071771
H	 2.513633	 -0.742237	 0.934220

	symmetry c1
}
ee,wfn = energy('scf', return_wfn=True)
oeprop( wfn, 'DIPOLE', 'QUADRUPOLE', 'MULLIKEN_CHARGES')
oeprop( wfn, 'GRID_ESP')
f=open( 'psi4out.xyz', 'w' )
f.write( "13  " )
f.write( str(ee) + "\n" )
f.write( MOL.save_string_xyz() )
f.close()
--------------------------------------------------------------------------

    Molecular point group: c1

    Geometry (in Angstrom), charge = 0, multiplicity = 1:

       Center              X                  Y                   Z               Mass
    ------------   -----------------  -----------------  -----------------  -----------------
           H         -2.498963279576    -0.741157980643    -0.729149401036     1.007825032070
           O         -2.346257279576    -0.289209980643     0.080371598964    15.994914619560
           C         -1.183935279576     0.486039019357    -0.009831401036    12.000000000000
           C          0.062852720424    -0.375309980643     0.027456598964    12.000000000000
           H         -1.178881279576     1.094526019357    -0.908634401036     1.007825032070
           H         -1.184406279576     1.155156019357     0.838675598964     1.007825032070
           O          1.172092720424     0.457955019357    -0.054438401036    15.994914619560
           H          0.052475720424    -1.081301980643    -0.804627401036     1.007825032070
           H          0.076322720424    -0.955657980643     0.947559598964     1.007825032070
           C          2.395477720424    -0.199027980643    -0.000366401036    12.000000000000
           H          2.505945720424    -0.901709980643    -0.823354401036     1.007825032070
           H          3.174615720424     0.545641019357    -0.071768401036     1.007825032070
           H          2.513729720424    -0.742240980643     0.934222598964     1.007825032070

  Charge       = 0
  Multiplicity = 1
  Basis Set: CC-PVTZ
  Basis Set:

    Orbital Energies (a.u.)
    -----------------------

    Doubly Occupied:

       1A    -20.556083     2A    -20.552907     3A    -11.269339
       4A    -11.267815     5A    -11.267545     6A     -1.392072
       7A     -1.369292     8A     -1.019780     9A     -0.914045
      10A     -0.842868    11A     -0.712092    12A     -0.676567
      13A     -0.663171    14A     -0.639376    15A     -0.597856
      16A     -0.571104    17A     -0.546986    18A     -0.491369
      19A     -0.483509    20A     -0.441766    21A     -0.424822

  @DF-RHF Final Energy:  -268.06231177757593

   => Energetics <=

    Nuclear Repulsion Energy =            190.4964249590725558
    One-Electron Energy =                -743.7166957508092082
    Two-Electron Energy =                 285.1579590141608378
    DFT Exchange-Correlation Energy =       0.0000000000000000
    Empirical Dispersion Energy =           0.0000000000000000
    PCM Polarization Energy =               0.0000000000000000
    EFP Energy =                            0.0000000000000000
    Total Energy =                       -268.0623117775758146

  Mulliken Charges: (a.u.)
   Center  Symbol    Alpha    Beta     Spin     Total
       1     H     0.39407  0.39407  0.00000  0.21186
       2     O     4.20212  4.20212  0.00000 -0.40424
       3     C     2.97336  2.97336  0.00000  0.05328
       4     C     2.96510  2.96510  0.00000  0.06980
       5     H     0.46684  0.46684  0.00000  0.06633
       6     H     0.45268  0.45268  0.00000  0.09464
       7     O     4.17542  4.17542  0.00000 -0.35083
       8     H     0.48209  0.48209  0.00000  0.03582
       9     H     0.46956  0.46956  0.00000  0.06087
      10     C     3.03177  3.03177  0.00000 -0.06354
      11     H     0.47124  0.47124  0.00000  0.05751
      12     H     0.44593  0.44593  0.00000  0.10814
      13     H     0.46982  0.46982  0.00000  0.06036

   Total alpha = 21.00000, Total beta = 21.00000, Total charge =  0.00000

*** Psi4 exiting successfully. Buy a developer a beer!
