                              Psi4 1.0.54 Driver

  ==> Input File <==

--------------------------------------------------------------------------
set {
	reference rhf
	basis cc-pvtz
}

set_num_threads( 4 )
memory 2 gb

molecule MOL {
0 1

H	 2.828711	 -0.346904	 0.001083
C	 1.876752	 0.015931	 -0.363450
C	 0.776285	 -0.474665	 0.563092
H	 1.728113	 -0.357244	 -1.367440
H	 1.906171	 1.096574	 -0.386153
N	 -0.540022	 0.017605	 0.071630
H	 0.707111	 -1.548969	 0.573035
H	 0.886169	 -0.084184	 1.560432
O	 -0.538824	 0.680165	 -0.910820
O	 -1.496717	 -0.262790	 0.712340

	symmetry c1
}
set optking {
	frozen_dihedral = ("
		9 6 3 2
	")
}

ee,wfn = optimize('scf', return_wfn=True)
oeprop( wfn, 'DIPOLE', 'QUADRUPOLE', 'MULLIKEN_CHARGES')
f=open( 'psi4out.xyz', 'w' )
f.write( "10  " )
f.write( str(ee) + "\n" )
f.write( MOL.save_string_xyz() )
f.close()
--------------------------------------------------------------------------

    Molecular point group: c1
  Charge       = 0
  Multiplicity = 1
  Basis Set: CC-PVTZ
  Basis Set:
  @DF-RHF Final Energy:  -282.81097542212598
    Total Energy =                       -282.8109754221259209
    Molecular point group: c1
  Basis Set: CC-PVTZ
  Basis Set:
  Basis Set: CC-PVTZ
  Basis Set:
  @DF-RHF Final Energy:  -282.73230868006465
    Total Energy =                       -282.7323086800646479
  Basis Set: CC-PVTZ
  Basis Set:
  Basis Set: CC-PVTZ
  Basis Set:
  @DF-RHF Final Energy:  -282.80673545259162
    Total Energy =                       -282.8067354525917381
  Basis Set: CC-PVTZ
  Basis Set:
  Basis Set: CC-PVTZ
  Basis Set:
  @DF-RHF Final Energy:  -282.81249910419211
    Total Energy =                       -282.8124991041922272
  Basis Set: CC-PVTZ
  Basis Set:
  @DF-RHF Final Energy:  -282.80567144224534
    Total Energy =                       -282.8056714422454547
  Basis Set: CC-PVTZ
  Basis Set:
  @DF-RHF Final Energy:  -282.81208727741040
    Total Energy =                       -282.8120872774103418
  Basis Set: CC-PVTZ
  Basis Set:
  Basis Set: CC-PVTZ
  Basis Set:
  @DF-RHF Final Energy:  -282.81286057099874
    Total Energy =                       -282.8128605709986232
  Basis Set: CC-PVTZ
  Basis Set:
  Basis Set: CC-PVTZ
  Basis Set:
  @DF-RHF Final Energy:  -282.81287342087137
    Total Energy =                       -282.8128734208713126
  Basis Set: CC-PVTZ
  Basis Set:
  Charge       = 0
  Multiplicity = 1
  Basis Set: CC-PVTZ
  Basis Set:

    Orbital Energies (a.u.)
    -----------------------

    Doubly Occupied:

       1A    -20.595316     2A    -20.588419     3A    -15.839699
       4A    -11.303315     5A    -11.243457     6A     -1.638658
       7A     -1.422968     8A     -1.123818     9A     -0.966884
      10A     -0.834735    11A     -0.762114    12A     -0.754668
      13A     -0.732243    14A     -0.637615    15A     -0.595324
      16A     -0.564052    17A     -0.538770    18A     -0.490507
      19A     -0.479935    20A     -0.455085

  @DF-RHF Final Energy:  -282.81287764182042

   => Energetics <=

    Nuclear Repulsion Energy =            186.5715804488654612
    One-Electron Energy =                -755.6337510707228375
    Two-Electron Energy =                 286.2492929800369552
    DFT Exchange-Correlation Energy =       0.0000000000000000
    Empirical Dispersion Energy =           0.0000000000000000
    PCM Polarization Energy =               0.0000000000000000
    EFP Energy =                            0.0000000000000000
    Total Energy =                       -282.8128776418204211
    Molecular point group: c1
  Basis Set: CC-PVTZ
  Basis Set:

  -Total Gradient:
     Atom            X                  Y                   Z
    ------   -----------------  -----------------  -----------------
       1        0.000012188109    -0.000010312627     0.000012771463
       2        0.000058823124     0.000019559535    -0.000003352635
       3       -0.000022966168    -0.000022483286     0.000002302000
       4       -0.000010304865     0.000005446708     0.000009653995
       5        0.000008933014    -0.000001241576    -0.000006424521
       6       -0.000024793744     0.000078149163    -0.000073654689
       7       -0.000020544345     0.000006250506    -0.000000756785
       8        0.000003500396    -0.000003504528    -0.000011906184
       9        0.000017762466    -0.000034455416     0.000031757855
      10       -0.000022597990    -0.000037408479     0.000039609501

  **** Optimization is complete! (in 9 steps) ****
    Final optimized geometry and variables:
    Molecular point group: c1

    Geometry (in Angstrom), charge = 0, multiplicity = 1:

    H            2.508380826883    -0.913614842921     1.082593491580
    C            1.894038935716    -0.379445263271     0.367871300073
    C            0.447458381554    -0.557936482542     0.765322628451
    H            2.084969817239    -0.778426305933    -0.617453729625
    H            2.180604706567     0.661870576280     0.376779606300
    N           -0.516062988403     0.134304282103    -0.144948342623
    H            0.133185014944    -1.590231477779     0.753011839773
    H            0.228402753217    -0.156464276268     1.742746997874
    O           -0.091759040800     0.742328122624    -1.066486708345
    O           -1.662728509123     0.018320110416     0.132914959215

  Mulliken Charges: (a.u.)
   Center  Symbol    Alpha    Beta     Spin     Total
       1     H     0.44932  0.44932  0.00000  0.10136
       2     C     3.13815  3.13815  0.00000 -0.27629
       3     C     3.04400  3.04400  0.00000 -0.08801
       4     H     0.44171  0.44171  0.00000  0.11659
       5     H     0.44170  0.44170  0.00000  0.11659
       6     N     3.27610  3.27610  0.00000  0.44781
       7     H     0.43306  0.43306  0.00000  0.13388
       8     H     0.43307  0.43307  0.00000  0.13387
       9     O     4.16912  4.16912  0.00000 -0.33825
      10     O     4.17377  4.17377  0.00000 -0.34755

   Total alpha = 20.00000, Total beta = 20.00000, Total charge = -0.00000

*** Psi4 exiting successfully. Buy a developer a beer!
