  ==> Input File <==

--------------------------------------------------------------------------
set {
	reference rhf
	basis 6-31G*
}

set_num_threads( 4 )
memory 2 gb

molecule MOL {
0 1

H	 2.462501	 2.591893	 1.463803
O	 1.520370	 2.531132	 1.536643
C	 1.038836	 1.529315	 0.769259
C	 1.862970	 0.723809	 -0.006154
C	 -0.329030	 1.318707	 0.773572
H	 2.927214	 0.889390	 -0.008082
C	 1.319309	 -0.290796	 -0.776012
H	 -0.966733	 1.940172	 1.372063
C	 -0.865228	 0.300799	 0.000000
H	 1.967131	 -0.907645	 -1.372000
C	 -0.046627	 -0.508388	 -0.777740
C	 -2.333960	 0.069074	 0.000000
H	 -0.471047	 -1.295908	 -1.374973
O	 -2.847347	 -1.003763	 0.000000
H	 -2.943845	 0.977528	 0.000000

	symmetry c1
}
set optking {
	frozen_dihedral = ("
		11 9 12 14
	")
}

ee = optimize('scf')
oeprop('DIPOLE', 'QUADRUPOLE', 'MULLIKEN_CHARGES')
f=open( 'psi4out.xyz', 'w' )
f.write( "15  " )
f.write( str(ee) + "\n" )
f.write( MOL.save_string_xyz() )
f.close()
--------------------------------------------------------------------------

    Molecular point group: c1
  Charge       = 0
  Multiplicity = 1
  Basis Set: 6-31G*
  Basis Set:
  @DF-RHF Final Energy:  -418.28129352566305
    Total Energy =                       -418.2812935256628180
    Molecular point group: c1
  Basis Set: 6-31G*
  Basis Set:
  Basis Set: 6-31G*
  Basis Set:
  @DF-RHF Final Energy:  -418.27985695190648
    Total Energy =                       -418.2798569519067087
  Basis Set: 6-31G*
  Basis Set:
  Basis Set: 6-31G*
  Basis Set:
  @DF-RHF Final Energy:  -418.28167752872895
    Total Energy =                       -418.2816775287288920
  Basis Set: 6-31G*
  Basis Set:
  Basis Set: 6-31G*
  Basis Set:
  @DF-RHF Final Energy:  -418.28190415279641
    Total Energy =                       -418.2819041527963009
  Basis Set: 6-31G*
  Basis Set:
  Charge       = 0
  Multiplicity = 1
  Basis Set: 6-31G*
  Basis Set:

    Orbital Energies (a.u.)
    -----------------------

    Doubly Occupied:

       1A    -20.604314     2A    -20.567737     3A    -11.333937
       4A    -11.314617     5A    -11.254144     6A    -11.251325
       7A    -11.246866     8A    -11.244660     9A    -11.239645
      10A     -1.423796    11A     -1.407501    12A     -1.169055
      13A     -1.050243    14A     -1.024330    15A     -0.900779
      16A     -0.844847    17A     -0.814613    18A     -0.738205
      19A     -0.700751    20A     -0.672714    21A     -0.664722
      22A     -0.630457    23A     -0.612737    24A     -0.603008
      25A     -0.580485    26A     -0.541085    27A     -0.539695
      28A     -0.515177    29A     -0.487637    30A     -0.423766
      31A     -0.355002    32A     -0.324342

  @DF-RHF Final Energy:  -418.28190669592141

   => Energetics <=

    Nuclear Repulsion Energy =            402.0771433650243125
    One-Electron Energy =               -1366.5537179960406320
    Two-Electron Energy =                 546.1946679350951399
    DFT Exchange-Correlation Energy =       0.0000000000000000
    Empirical Dispersion Energy =           0.0000000000000000
    PCM Polarization Energy =               0.0000000000000000
    EFP Energy =                            0.0000000000000000
    Total Energy =                       -418.2819066959211796
    Molecular point group: c1
  Basis Set: 6-31G*
  Basis Set:

  -Total Gradient:
     Atom            X                  Y                   Z
    ------   -----------------  -----------------  -----------------
       1       -0.000004831266    -0.000007955544    -0.000001607962
       2        0.000039916149    -0.000002234105    -0.000032108218
       3       -0.000375081372     0.000074845225     0.000132118164
       4        0.000048219060    -0.000364781239    -0.000151653938
       5        0.000281743262     0.000207662720     0.000045322086
       6       -0.000000329574     0.000023530182    -0.000000707813
       7        0.000288402111     0.000281970196     0.000027123797
       8       -0.000021776009    -0.000041591116    -0.000004441438
       9        0.000565094219    -0.005459231269     0.008597559871
      10       -0.000009988759    -0.000024944133     0.000009382364
      11       -0.000739620256     0.003631264397    -0.003860120722
      12       -0.000015610497     0.002012428492    -0.011249372678
      13        0.000017294693    -0.000022782534     0.000004093924
      14       -0.000117349989    -0.000298726853     0.006507205843
      15        0.000043918233    -0.000009454416    -0.000022793281

  **** Optimization is complete! (in 5 steps) ****
    Final optimized geometry and variables:
    Molecular point group: c1

    Geometry (in Angstrom), charge = 0, multiplicity = 1:

    H            2.539565218960     2.054131094528     1.278444068462
    O            1.596721716439     1.991411556879     1.341322467982
    C            1.128308842814     0.982964730733     0.574121514140
    C            1.954684234863     0.183612819582    -0.199080111704
    C           -0.242371186909     0.770692413282     0.565948426190
    H            3.017597889163     0.356995953555    -0.206259946363
    C            1.410414039310    -0.832219487344    -0.971535053137
    H           -0.871378300267     1.415804980750     1.152861232814
    C           -0.771569518956    -0.269998000829    -0.177935355330
    H            2.059653710835    -1.437877799684    -1.577532816184
    C            0.049543483666    -1.067924939264    -0.967070790917
    C           -2.249375075778    -0.465387219440    -0.202335677173
    H           -0.378930816510    -1.859479164370    -1.552169329711
    O           -2.778739050543    -1.529271402916    -0.242428418579
    H           -2.843427408749     0.449983750537    -0.129324195609

  Mulliken Charges: (a.u.)
   Center  Symbol    Alpha    Beta     Spin     Total
       1     H     0.27006  0.27006  0.00000  0.45988
       2     O     4.37716  4.37716  0.00000 -0.75432
       3     C     2.79387  2.79387  0.00000  0.41227
       4     C     3.13752  3.13752  0.00000 -0.27504
       5     C     3.12917  3.12917  0.00000 -0.25834
       6     H     0.39961  0.39961  0.00000  0.20078
       7     C     3.09289  3.09289  0.00000 -0.18579
       8     H     0.38545  0.38545  0.00000  0.22909
       9     C     3.03191  3.03191  0.00000 -0.06383
      10     H     0.39276  0.39276  0.00000  0.21448
      11     C     3.10655  3.10655  0.00000 -0.21309
      12     C     2.84245  2.84245  0.00000  0.31510
      13     H     0.38314  0.38314  0.00000  0.23372
      14     O     4.23632  4.23632  0.00000 -0.47264
      15     H     0.42113  0.42113  0.00000  0.15774

   Total alpha = 32.00000, Total beta = 32.00000, Total charge =  0.00000
