                              Psi4 1.0.54 Driver

  ==> Input File <==

--------------------------------------------------------------------------
set {
	reference rhf
	basis cc-pvtz
}

set_num_threads( 4 )
memory 2 gb

molecule MOL {
0 1

H	 1.166964	 -1.062386	 0.758429
O	 1.324748	 -0.612467	 -0.052206
C	 0.706474	 0.636793	 -0.025501
C	 1.629635	 1.785820	 0.266291
H	 -0.054239	 0.586106	 0.744597
H	 0.186898	 0.832448	 -0.961695
C	 2.900149	 1.688732	 0.589827
H	 1.171728	 2.758729	 0.195451
H	 3.387330	 0.737327	 0.687069
H	 3.491763	 2.563590	 0.781334

	symmetry c1
}
set optking {
	frozen_dihedral = ("
		5 3 2 1
	")
}

ee,wfn = optimize('scf', return_wfn=True)
oeprop( wfn, 'DIPOLE', 'QUADRUPOLE', 'MULLIKEN_CHARGES')
f=open( 'psi4out.xyz', 'w' )
f.write( "10  " )
f.write( str(ee) + "\n" )
f.write( MOL.save_string_xyz() )
f.close()
--------------------------------------------------------------------------

    Molecular point group: c1
  Charge       = 0
  Multiplicity = 1
  Basis Set: CC-PVTZ
  Basis Set:
  @DF-RHF Final Energy:  -191.99596192343080
    Total Energy =                       -191.9959619234308548
    Molecular point group: c1
  Basis Set: CC-PVTZ
  Basis Set:
  Basis Set: CC-PVTZ
  Basis Set:
  @DF-RHF Final Energy:  -191.99706349547034
    Total Energy =                       -191.9970634954701723
  Basis Set: CC-PVTZ
  Basis Set:
  Basis Set: CC-PVTZ
  Basis Set:
  @DF-RHF Final Energy:  -191.99742014488314
    Total Energy =                       -191.9974201448829945
  Basis Set: CC-PVTZ
  Basis Set:
  Basis Set: CC-PVTZ
  Basis Set:
  @DF-RHF Final Energy:  -191.99743197476133
    Total Energy =                       -191.9974319747612981
  Basis Set: CC-PVTZ
  Basis Set:
  Basis Set: CC-PVTZ
  Basis Set:
  @DF-RHF Final Energy:  -191.99743334819030
    Total Energy =                       -191.9974333481902420
  Basis Set: CC-PVTZ
  Basis Set:
  Charge       = 0
  Multiplicity = 1
  Basis Set: CC-PVTZ
  Basis Set:

    Orbital Energies (a.u.)
    -----------------------

    Doubly Occupied:

       1A    -20.553856     2A    -11.278613     3A    -11.224788
       4A    -11.210289     5A     -1.373672     6A     -1.058864
       7A     -0.928946     8A     -0.763722     9A     -0.703777
      10A     -0.657460    11A     -0.616304    12A     -0.578294
      13A     -0.518540    14A     -0.508685    15A     -0.449550
      16A     -0.363694

  @DF-RHF Final Energy:  -191.99743341026905

   => Energetics <=

    Nuclear Repulsion Energy =            119.4035446044678395
    One-Electron Energy =                -497.2238461150049034
    Two-Electron Energy =                 185.8228681002680105
    DFT Exchange-Correlation Energy =       0.0000000000000000
    Empirical Dispersion Energy =           0.0000000000000000
    PCM Polarization Energy =               0.0000000000000000
    EFP Energy =                            0.0000000000000000
    Total Energy =                       -191.9974334102690818
    Molecular point group: c1
  Basis Set: CC-PVTZ
  Basis Set:

  -Total Gradient:
     Atom            X                  Y                   Z
    ------   -----------------  -----------------  -----------------
       1       -0.001230208558    -0.000615396891    -0.000685280128
       2        0.001760978802     0.000836324827     0.001120338838
       3       -0.001363885410    -0.000631823247    -0.001373938756
       4       -0.000015461366     0.000009124536    -0.000040617291
       5        0.000824715176     0.000393091382     0.000963530832
       6        0.000011382201     0.000016026259     0.000001940863
       7        0.000013242212     0.000004354656    -0.000025139332
       8        0.000005161813    -0.000007802898     0.000012594047
       9       -0.000001154298     0.000000848291     0.000011577016
      10       -0.000004770571    -0.000004746913     0.000014993910

  **** Optimization is complete! (in 6 steps) ****
    Final optimized geometry and variables:
    Molecular point group: c1

    Geometry (in Angstrom), charge = 0, multiplicity = 1:

    H           -0.477529619074    -1.871190821102     0.531760148084
    O           -0.281909767214    -1.392568784790    -0.250998134276
    C           -0.911130536365    -0.144444059169    -0.228394796927
    C            0.015974104943     0.988054870667     0.111432996418
    H           -1.736925085752    -0.138131611052     0.478872999130
    H           -1.338739095242     0.030472191230    -1.209908033740
    C            1.297778370975     0.874789429578     0.376419023356
    H           -0.449627148144     1.960107408898     0.123806274861
    H            1.789795173509    -0.078081273992     0.360555110295
    H            1.893187898720     1.737204002398     0.609123334000

  Mulliken Charges: (a.u.)
   Center  Symbol    Alpha    Beta     Spin     Total
       1     H     0.39038  0.39038  0.00000  0.21923
       2     O     4.19907  4.19907  0.00000 -0.39815
       3     C     2.95028  2.95028  0.00000  0.09945
       4     C     3.08088  3.08088  0.00000 -0.16175
       5     H     0.47044  0.47044  0.00000  0.05913
       6     H     0.45819  0.45819  0.00000  0.08362
       7     C     3.17635  3.17635  0.00000 -0.35270
       8     H     0.42412  0.42412  0.00000  0.15175
       9     H     0.42110  0.42110  0.00000  0.15780
      10     H     0.42919  0.42919  0.00000  0.14162

   Total alpha = 16.00000, Total beta = 16.00000, Total charge =  0.00000

*** Psi4 exiting successfully. Buy a developer a beer!
