  ==> Input File <==

--------------------------------------------------------------------------
set {
	reference rhf
	basis 6-31G*
}

set_num_threads( 4 )
memory 2 gb

molecule MOL {
0 1

O	 -2.460756	 1.140370	 0.025814
C	 -2.132779	 -0.007144	 0.034592
C	 -0.889235	 -0.467034	 -0.705952
C	 -2.912825	 -1.049930	 0.803682
C	 0.379448	 -0.143569	 0.099626
H	 -0.858808	 0.057294	 -1.654876
H	 -0.937986	 -1.532916	 -0.909781
C	 1.631333	 -0.777471	 -0.511575
H	 0.482768	 0.934507	 0.149241
H	 0.263088	 -0.495696	 1.123449
C	 2.915987	 -0.544314	 0.291766
H	 1.766672	 -0.399098	 -1.523130
H	 1.471257	 -1.849544	 -0.605828
C	 3.373361	 0.914346	 0.347591
H	 3.708709	 -1.142521	 -0.150311
H	 2.780642	 -0.921148	 1.303579
H	 3.506512	 1.320010	 -0.651625
H	 4.322697	 0.999599	 0.867103
H	 2.660624	 1.545032	 0.868198
H	 -3.363791	 -1.754286	 0.109581
H	 -3.688643	 -0.575437	 1.388274
H	 -2.255574	 -1.618773	 1.455021

	symmetry c1
}
set optking {
	frozen_dihedral = ("
		6 3 5 8
	")
}

ee = optimize('scf')
oeprop('DIPOLE', 'QUADRUPOLE', 'MULLIKEN_CHARGES')
f=open( 'psi4out.xyz', 'w' )
f.write( "22  " )
f.write( str(ee) + "\n" )
f.write( MOL.save_string_xyz() )
f.close()
--------------------------------------------------------------------------

    Molecular point group: c1
  Charge       = 0
  Multiplicity = 1
  Basis Set: 6-31G*
  Basis Set:
  @DF-RHF Final Energy:  -348.09793213855232
    Total Energy =                       -348.0979321385523235
    Molecular point group: c1
  Basis Set: 6-31G*
  Basis Set:
  Basis Set: 6-31G*
  Basis Set:
  @DF-RHF Final Energy:  -348.09787733747373
    Total Energy =                       -348.0978773374735056
  Basis Set: 6-31G*
  Basis Set:
  Basis Set: 6-31G*
  Basis Set:
  @DF-RHF Final Energy:  -348.09758070237814
    Total Energy =                       -348.0975807023784228
  Basis Set: 6-31G*
  Basis Set:
  Basis Set: 6-31G*
  Basis Set:
  @DF-RHF Final Energy:  -348.09797519447466
    Total Energy =                       -348.0979751944746567
  Basis Set: 6-31G*
  Basis Set:
  Basis Set: 6-31G*
  Basis Set:
  @DF-RHF Final Energy:  -348.09790485569494
    Total Energy =                       -348.0979048556951057
  Basis Set: 6-31G*
  Basis Set:
  Basis Set: 6-31G*
  Basis Set:
  @DF-RHF Final Energy:  -348.09798122559380
    Total Energy =                       -348.0979812255935144
  Basis Set: 6-31G*
  Basis Set:
  Basis Set: 6-31G*
  Basis Set:
  @DF-RHF Final Energy:  -348.09799160866760
    Total Energy =                       -348.0979916086679395
  Basis Set: 6-31G*
  Basis Set:
  Charge       = 0
  Multiplicity = 1
  Basis Set: 6-31G*
  Basis Set:

    Orbital Energies (a.u.)
    -----------------------

    Doubly Occupied:

       1A    -20.547179     2A    -11.324281     3A    -11.229980
       4A    -11.229115     5A    -11.228170     6A    -11.222870
       7A    -11.221016     8A    -11.211485     9A     -1.392954
      10A     -1.095967    11A     -1.044501    12A     -0.999268
      13A     -0.938210    14A     -0.857824    15A     -0.786998
      16A     -0.732673    17A     -0.662484    18A     -0.644465
      19A     -0.626031    20A     -0.621143    21A     -0.596556
      22A     -0.581028    23A     -0.564826    24A     -0.541852
      25A     -0.535336    26A     -0.518112    27A     -0.497489
      28A     -0.490049    29A     -0.471123    30A     -0.464911
      31A     -0.459285    32A     -0.395863

  @DF-RHF Final Energy:  -348.09799211766250

   => Energetics <=

    Nuclear Repulsion Energy =            372.9406121421941975
    One-Electron Energy =               -1210.6111264524606668
    Two-Electron Energy =                 489.5725221926035715
    DFT Exchange-Correlation Energy =       0.0000000000000000
    Empirical Dispersion Energy =           0.0000000000000000
    PCM Polarization Energy =               0.0000000000000000
    EFP Energy =                            0.0000000000000000
    Total Energy =                       -348.0979921176629546
    Molecular point group: c1
  Basis Set: 6-31G*
  Basis Set:

  -Total Gradient:
     Atom            X                  Y                   Z
    ------   -----------------  -----------------  -----------------
       1        0.000020081688     0.000010611616    -0.000002459277
       2        0.000002947710    -0.000010283769     0.000061254310
       3        0.001088642324    -0.002428456992    -0.000767547415
       4       -0.000059857671     0.000008801661    -0.000057185677
       5        0.000093012693     0.002098530678    -0.000903574826
       6       -0.000929878845     0.001553013063     0.000858842046
       7       -0.000008159878     0.000002145295    -0.000007935215
       8       -0.000227017643    -0.001215658937     0.000788594329
       9        0.000005029101     0.000001648850     0.000025059052
      10       -0.000013019675    -0.000013116389    -0.000014523902
      11       -0.000004113594    -0.000010055374     0.000002449349
      12       -0.000009373500     0.000003703599    -0.000001982831
      13        0.000015870147    -0.000004940690     0.000001095723
      14       -0.000002240397     0.000011532827     0.000001478035
      15       -0.000016026407    -0.000010359793    -0.000009100788
      16        0.000009638662    -0.000000384186     0.000004934878
      17        0.000014581146     0.000006141360    -0.000002894526
      18       -0.000008305660     0.000000655173     0.000005874865
      19       -0.000007290022    -0.000000016408    -0.000007914475
      20        0.000011346575    -0.000013989007     0.000014401095
      21        0.000003736973     0.000000070485     0.000005364695
      22        0.000020396275     0.000010406936     0.000005770556

  **** Optimization is complete! (in 8 steps) ****
    Final optimized geometry and variables:
    Molecular point group: c1

    Geometry (in Angstrom), charge = 0, multiplicity = 1:

    O           -2.454408385648     1.249393741021    -0.051017502522
    C           -2.120779052051     0.103746114993    -0.028164630691
    C           -0.879493246618    -0.361846569218    -0.769291298523
    C           -2.895082840510    -0.933334779387     0.754997277954
    C            0.384720705180    -0.058301287725     0.052589191318
    H           -0.843633804386     0.183888489802    -1.705594346041
    H           -0.940515473433    -1.423991977172    -0.987110533450
    C            1.642397102342    -0.677269629829    -0.562000435526
    H            0.481737836429     1.017541395894     0.140980230770
    H            0.264692208853    -0.443620891429     1.064253400916
    C            2.925420215931    -0.434159869060     0.240919068197
    H            1.774554954169    -0.297214997669    -1.573686754353
    H            1.490351313148    -1.750234257228    -0.657282291728
    C            3.376106777472     1.026857136029     0.289955678188
    H            3.721387012329    -1.030698134909    -0.197584191923
    H            2.791450629928    -0.806529311814     1.254592080168
    H            3.512962122457     1.426463389441    -0.711172851750
    H            4.322276074281     1.119502898754     0.813920587060
    H            2.657979989082     1.657867603549     0.802681325634
    H           -3.356075902440    -1.638629517117     0.068488463998
    H           -3.663232899509    -0.453649070430     1.345429860666
    H           -2.233455000612    -1.502093657105     1.401755450863

  Mulliken Charges: (a.u.)
   Center  Symbol    Alpha    Beta     Spin     Total
       1     O     4.26251  4.26251  0.00000 -0.52502
       2     C     2.73729  2.73729  0.00000  0.52542
       3     C     3.19968  3.19968  0.00000 -0.39937
       4     C     3.28955  3.28955  0.00000 -0.57909
       5     C     3.16366  3.16366  0.00000 -0.32732
       6     H     0.40081  0.40081  0.00000  0.19838
       7     H     0.41674  0.41674  0.00000  0.16651
       8     C     3.15270  3.15270  0.00000 -0.30541
       9     H     0.40392  0.40392  0.00000  0.19217
      10     H     0.42137  0.42137  0.00000  0.15727
      11     C     3.15340  3.15340  0.00000 -0.30680
      12     H     0.42098  0.42098  0.00000  0.15803
      13     H     0.42186  0.42186  0.00000  0.15629
      14     C     3.24198  3.24198  0.00000 -0.48396
      15     H     0.41951  0.41951  0.00000  0.16098
      16     H     0.42287  0.42287  0.00000  0.15426
      17     H     0.42095  0.42095  0.00000  0.15811
      18     H     0.41812  0.41812  0.00000  0.16375
      19     H     0.41831  0.41831  0.00000  0.16338
      20     H     0.40679  0.40679  0.00000  0.18643
      21     H     0.39706  0.39706  0.00000  0.20589
      22     H     0.40995  0.40995  0.00000  0.18010

   Total alpha = 32.00000, Total beta = 32.00000, Total charge =  0.00000
