  ==> Input File <==

--------------------------------------------------------------------------
set {
	reference rhf
	basis 6-31G*
}

set_num_threads( 1 )
memory 2 gb

molecule MOL {
0 1

H	 3.059819	 -0.034728	 -0.789111
N	 2.434251	 -0.367735	 -0.081097
C	 1.267428	 0.496480	 0.024474
H	 2.947433	 -0.371570	 0.780032
C	 -0.016086	 -0.325158	 -0.029487
H	 1.288818	 1.183521	 -0.816092
H	 1.267576	 1.109062	 0.929528
C	 -1.282277	 0.529072	 0.046735
H	 -0.012495	 -0.908639	 -0.945788
H	 -0.015903	 -1.041248	 0.791956
C	 -2.563920	 -0.301775	 -0.006060
H	 -1.284084	 1.244622	 -0.773004
H	 -1.271387	 1.115393	 0.963286
H	 -2.621848	 -0.873522	 -0.927727
H	 -3.445135	 0.329952	 0.047812
H	 -2.609542	 -1.004582	 0.821105

	symmetry c1
}
set optking {
	frozen_dihedral = ("
		6 3 5 9,
		12 8 5 9
	")
}

ee = energy('scf')
oeprop('DIPOLE', 'QUADRUPOLE', 'MULLIKEN_CHARGES')
f=open( 'psi4out.xyz', 'w' )
f.write( "16  " )
f.write( str(ee) + "\n" )
f.write( MOL.save_string_xyz() )
f.close()
--------------------------------------------------------------------------

    Molecular point group: c1

    Geometry (in Angstrom), charge = 0, multiplicity = 1:

       Center              X                  Y                   Z               Mass
    ------------   -----------------  -----------------  -----------------  -----------------
           H          3.056660025492    -0.040038278620    -0.780559461654     1.007825032070
           N          2.431092025492    -0.373045278620    -0.072545461654    14.003074004780
           C          1.264269025492     0.491169721380     0.033025538346    12.000000000000
           H          2.944274025492    -0.376880278620     0.788583538346     1.007825032070
           C         -0.019244974508    -0.330468278620    -0.020935461654    12.000000000000
           H          1.285659025492     1.178210721380    -0.807540461654     1.007825032070
           H          1.264417025492     1.103751721380     0.938079538346     1.007825032070
           C         -1.285435974508     0.523761721380     0.055286538346    12.000000000000
           H         -0.015653974508    -0.913949278620    -0.937236461654     1.007825032070
           H         -0.019061974508    -1.046558278620     0.800507538346     1.007825032070
           C         -2.567078974508    -0.307085278620     0.002491538346    12.000000000000
           H         -1.287242974508     1.239311721380    -0.764452461654     1.007825032070
           H         -1.274545974508     1.110082721380     0.971837538346     1.007825032070
           H         -2.625006974508    -0.878832278620    -0.919175461654     1.007825032070
           H         -3.448293974508     0.324641721380     0.056363538346     1.007825032070
           H         -2.612700974508    -1.009892278620     0.829656538346     1.007825032070

  Charge       = 0
  Multiplicity = 1
  Basis Set: 6-31G*
  Basis Set:

    Orbital Energies (a.u.)
    -----------------------

    Doubly Occupied:

       1A    -15.532090     2A    -11.240202     3A    -11.211094
       4A    -11.205196     5A    -11.202308     6A     -1.176368
       7A     -1.056264     8A     -0.956596     9A     -0.841394
      10A     -0.785859    11A     -0.676162    12A     -0.622237
      13A     -0.610782    14A     -0.575517    15A     -0.550044
      16A     -0.532514    17A     -0.487262    18A     -0.474933
      19A     -0.463665    20A     -0.457769    21A     -0.378724

  @DF-RHF Final Energy:  -212.31345013900213

   => Energetics <=

    Nuclear Repulsion Energy =            186.0728459614545329
    One-Electron Energy =                -654.6985717355910310
    Two-Electron Energy =                 256.3122756351343128
    DFT Exchange-Correlation Energy =       0.0000000000000000
    Empirical Dispersion Energy =           0.0000000000000000
    PCM Polarization Energy =               0.0000000000000000
    EFP Energy =                            0.0000000000000000
    Total Energy =                       -212.3134501390022137

  Mulliken Charges: (a.u.)
   Center  Symbol    Alpha    Beta     Spin     Total
       1     H     0.33148  0.33148  0.00000  0.33704
       2     N     3.92308  3.92308  0.00000 -0.84616
       3     C     3.06995  3.06995  0.00000 -0.13991
       4     H     0.33272  0.33272  0.00000  0.33455
       5     C     3.13729  3.13729  0.00000 -0.27457
       6     H     0.42566  0.42566  0.00000  0.14868
       7     H     0.42756  0.42756  0.00000  0.14487
       8     C     3.15756  3.15756  0.00000 -0.31512
       9     H     0.41938  0.41938  0.00000  0.16125
      10     H     0.42357  0.42357  0.00000  0.15287
      11     C     3.23794  3.23794  0.00000 -0.47588
      12     H     0.42496  0.42496  0.00000  0.15008
      13     H     0.42522  0.42522  0.00000  0.14957
      14     H     0.42128  0.42128  0.00000  0.15744
      15     H     0.42067  0.42067  0.00000  0.15867
      16     H     0.42169  0.42169  0.00000  0.15663

   Total alpha = 21.00000, Total beta = 21.00000, Total charge = -0.00000
