  ==> Input File <==

--------------------------------------------------------------------------
set {
	reference rhf
	basis 6-31G*
}

set_num_threads( 1 )
memory 2 gb

molecule MOL {
0 1

H	 -2.646374	 -0.642757	 1.268656
C	 -2.083525	 -0.384536	 0.393091
O	 -0.807605	 -0.127164	 0.768327
F	 -2.118945	 -1.383102	 -0.486752
F	 -2.621877	 0.670592	 -0.209486
C	 -0.374708	 -0.640888	 1.977200
C	 0.342857	 0.486521	 2.708096
Cl	 0.715155	 -2.014226	 1.725499
H	 -1.189157	 -0.979209	 2.593631
F	 0.774182	 0.072710	 3.880640
F	 -0.509526	 1.471481	 2.909931
F	 1.359796	 0.951161	 2.024052

	symmetry c1
}
set optking {
	frozen_dihedral = ("
		10 7 6 9,
		9 6 3 2
	")
}

ee = energy('scf')
oeprop('DIPOLE', 'QUADRUPOLE', 'MULLIKEN_CHARGES')
f=open( 'psi4out.xyz', 'w' )
f.write( "12  " )
f.write( str(ee) + "\n" )
f.write( MOL.save_string_xyz() )
f.close()
--------------------------------------------------------------------------

    Molecular point group: c1

    Geometry (in Angstrom), charge = 0, multiplicity = 1:

       Center              X                  Y                   Z               Mass
    ------------   -----------------  -----------------  -----------------  -----------------
           H         -2.231279483732    -0.388916001779    -0.316902936240     1.007825032070
           C         -1.668430483732    -0.130695001779    -1.192467936240    12.000000000000
           O         -0.392510483732     0.126676998221    -0.817231936240    15.994914619560
           F         -1.703850483732    -1.129261001779    -2.072310936240    18.998403224000
           F         -2.206782483732     0.924432998221    -1.795044936240    18.998403224000
           C          0.040386516268    -0.387047001779     0.391641063760    12.000000000000
           C          0.757951516268     0.740361998221     1.122537063760    12.000000000000
          CL          1.130249516268    -1.760385001779     0.139940063760    34.968852682000
           H         -0.774062483732    -0.725368001779     1.008072063760     1.007825032070
           F          1.189276516268     0.326550998221     2.295081063760    18.998403224000
           F         -0.094431483732     1.725321998221     1.324372063760    18.998403224000
           F          1.774890516268     1.205001998221     0.438493063760    18.998403224000

  Charge       = 0
  Multiplicity = 1
  Basis Set: 6-31G*
  Basis Set:

    Orbital Energies (a.u.)
    -----------------------

    Doubly Occupied:

       1A   -104.851695     2A    -26.366708     3A    -26.366349
       4A    -26.362429     5A    -26.343161     6A    -26.337631
       7A    -20.653009     8A    -11.534553     9A    -11.491273
      10A    -11.412793    11A    -10.586384    12A     -8.055737
      13A     -8.052168    14A     -8.052078    15A     -1.767406
      16A     -1.709229    17A     -1.664086    18A     -1.662279
      19A     -1.630743    20A     -1.492224    21A     -1.186524
      22A     -1.055980    23A     -0.985127    24A     -0.935938
      25A     -0.860226    26A     -0.859716    27A     -0.850302
      28A     -0.823910    29A     -0.808310    30A     -0.791309
      31A     -0.733584    32A     -0.729914    33A     -0.699827
      34A     -0.689997    35A     -0.684461    36A     -0.679555
      37A     -0.664090    38A     -0.655955    39A     -0.652873
      40A     -0.639097    41A     -0.616077    42A     -0.566490
      43A     -0.527187    44A     -0.484335    45A     -0.477144

  @DF-RHF Final Energy: -1146.30582236213672

   => Energetics <=

    Nuclear Repulsion Energy =            724.8977374116957435
    One-Electron Energy =               -3032.3072510298493398
    Two-Electron Energy =                1161.1036912560161909
    DFT Exchange-Correlation Energy =       0.0000000000000000
    Empirical Dispersion Energy =           0.0000000000000000
    PCM Polarization Energy =               0.0000000000000000
    EFP Energy =                            0.0000000000000000
    Total Energy =                      -1146.3058223621374054

  Mulliken Charges: (a.u.)
   Center  Symbol    Alpha    Beta     Spin     Total
       1     H     0.42805  0.42805  0.00000  0.14391
       2     C     2.56197  2.56197  0.00000  0.87607
       3     O     4.29542  4.29542  0.00000 -0.59085
       4     F     4.67786  4.67786  0.00000 -0.35572
       5     F     4.67483  4.67483  0.00000 -0.34965
       6     C     3.04408  3.04408  0.00000 -0.08815
       7     C     2.42997  2.42997  0.00000  1.14006
       8    CL     8.49364  8.49364  0.00000  0.01272
       9     H     0.37735  0.37735  0.00000  0.24529
      10     F     4.67366  4.67366  0.00000 -0.34733
      11     F     4.67648  4.67648  0.00000 -0.35296
      12     F     4.66669  4.66669  0.00000 -0.33339

   Total alpha = 45.00000, Total beta = 45.00000, Total charge =  0.00000
