  ==> Input File <==

--------------------------------------------------------------------------
set {
	reference rhf
	basis 6-31G*
}

set_num_threads( 1 )
memory 2 gb

molecule MOL {
0 1

O	 -2.821601	 1.309235	 -0.001213
C	 -2.668563	 0.129746	 -0.000350
C	 -3.801572	 -0.864014	 -0.000442
O	 -1.481751	 -0.454642	 0.000584
H	 -4.417280	 -0.689587	 -0.874708
H	 -3.443784	 -1.883046	 -0.000565
H	 -4.417179	 -0.689832	 0.873954
C	 -0.334255	 0.388708	 0.000906
C	 0.891947	 -0.504646	 0.000751
H	 -0.365390	 1.025305	 -0.873475
H	 -0.365484	 1.024911	 0.875569
C	 2.191998	 0.301789	 0.000897
H	 0.855148	 -1.151283	 -0.871571
H	 0.855132	 -1.151660	 0.872805
C	 3.206863	 -0.203586	 -1.026222
H	 1.970773	 1.348605	 -0.199901
H	 2.640091	 0.269363	 0.992484
C	 4.504814	 0.602757	 -1.026961
H	 2.760838	 -0.171523	 -2.017740
H	 3.430827	 -1.248898	 -0.825644
H	 4.317439	 1.647483	 -1.258157
H	 5.203446	 0.221066	 -1.764837
H	 4.992628	 0.561737	 -0.057237

	symmetry c1
}
set optking {
	frozen_dihedral = ("
		13 9 8 10,
		2 4 8 10,
		19 15 12 16,
		1 2 4 8
	")
}

ee = energy('scf')
oeprop('DIPOLE', 'QUADRUPOLE', 'MULLIKEN_CHARGES')
f=open( 'psi4out.xyz', 'w' )
f.write( "23  " )
f.write( str(ee) + "\n" )
f.write( MOL.save_string_xyz() )
f.close()
--------------------------------------------------------------------------

    Molecular point group: c1

    Geometry (in Angstrom), charge = 0, multiplicity = 1:

       Center              X                  Y                   Z               Mass
    ------------   -----------------  -----------------  -----------------  -----------------
           O         -2.769255833132     1.224808098940     0.227813999531    15.994914619560
           C         -2.616217833132     0.045319098940     0.228676999531    12.000000000000
           C         -3.749226833132    -0.948440901060     0.228584999531    12.000000000000
           O         -1.429405833132    -0.539068901060     0.229610999531    15.994914619560
           H         -4.364934833132    -0.774013901060    -0.645681000469     1.007825032070
           H         -3.391438833132    -1.967472901060     0.228461999531     1.007825032070
           H         -4.364833833132    -0.774258901060     1.102980999531     1.007825032070
           C         -0.281909833132     0.304281098940     0.229932999531    12.000000000000
           C          0.944292166868    -0.589072901060     0.229777999531    12.000000000000
           H         -0.313044833132     0.940878098940    -0.644448000469     1.007825032070
           H         -0.313138833132     0.940484098940     1.104595999531     1.007825032070
           C          2.244343166868     0.217362098940     0.229923999531    12.000000000000
           H          0.907493166868    -1.235709901060    -0.642544000469     1.007825032070
           H          0.907477166868    -1.236086901060     1.101831999531     1.007825032070
           C          3.259208166868    -0.288012901060    -0.797195000469    12.000000000000
           H          2.023118166868     1.264178098940     0.029125999531     1.007825032070
           H          2.692436166868     0.184936098940     1.221510999531     1.007825032070
           C          4.557159166868     0.518330098940    -0.797934000469    12.000000000000
           H          2.813183166868    -0.255949901060    -1.788713000469     1.007825032070
           H          3.483172166868    -1.333324901060    -0.596617000469     1.007825032070
           H          4.369784166868     1.563056098940    -1.029130000469     1.007825032070
           H          5.255791166868     0.136639098940    -1.535810000469     1.007825032070
           H          5.044973166868     0.477310098940     0.171789999531     1.007825032070

  Charge       = 0
  Multiplicity = 1
  Basis Set: 6-31G*
  Basis Set:

    Orbital Energies (a.u.)
    -----------------------

    Doubly Occupied:

       1A    -20.602789     2A    -20.540497     3A    -11.374046
       4A    -11.281998     5A    -11.232346     6A    -11.223172
       7A    -11.222585     8A    -11.221795     9A    -11.212461
      10A     -1.467919    11A     -1.360705    12A     -1.094512
      13A     -1.041835    14A     -1.003206    15A     -0.930721
      16A     -0.842550    17A     -0.802118    18A     -0.775821
      19A     -0.689940    20A     -0.684940    21A     -0.670691
      22A     -0.640485    23A     -0.610415    24A     -0.586800
      25A     -0.581318    26A     -0.570095    27A     -0.559443
      28A     -0.534407    29A     -0.524688    30A     -0.502446
      31A     -0.494737    32A     -0.478875    33A     -0.468024
      34A     -0.463294    35A     -0.450453    36A     -0.435278

  @DF-RHF Final Energy:  -422.97499761002837

   => Energetics <=

    Nuclear Repulsion Energy =            451.0753283409303549
    One-Electron Energy =               -1469.7459018990614368
    Two-Electron Energy =                 595.6955759481007817
    DFT Exchange-Correlation Energy =       0.0000000000000000
    Empirical Dispersion Energy =           0.0000000000000000
    PCM Polarization Energy =               0.0000000000000000
    EFP Energy =                            0.0000000000000000
    Total Energy =                       -422.9749976100303002

  Mulliken Charges: (a.u.)
   Center  Symbol    Alpha    Beta     Spin     Total
       1     O     4.28394  4.28394  0.00000 -0.56789
       2     C     2.61548  2.61548  0.00000  0.76904
       3     C     3.28778  3.28778  0.00000 -0.57556
       4     O     4.31244  4.31244  0.00000 -0.62488
       5     H     0.39753  0.39753  0.00000  0.20494
       6     H     0.39985  0.39985  0.00000  0.20031
       7     H     0.39751  0.39751  0.00000  0.20497
       8     C     3.00036  3.00036  0.00000 -0.00072
       9     C     3.16487  3.16487  0.00000 -0.32975
      10     H     0.41043  0.41043  0.00000  0.17914
      11     H     0.41006  0.41006  0.00000  0.17988
      12     C     3.16268  3.16268  0.00000 -0.32537
      13     H     0.41201  0.41201  0.00000  0.17597
      14     H     0.41212  0.41212  0.00000  0.17575
      15     C     3.15375  3.15375  0.00000 -0.30750
      16     H     0.41929  0.41929  0.00000  0.16142
      17     H     0.41742  0.41742  0.00000  0.16517
      18     C     3.24050  3.24050  0.00000 -0.48101
      19     H     0.42145  0.42145  0.00000  0.15710
      20     H     0.42074  0.42074  0.00000  0.15853
      21     H     0.42064  0.42064  0.00000  0.15872
      22     H     0.41812  0.41812  0.00000  0.16376
      23     H     0.42102  0.42102  0.00000  0.15797

   Total alpha = 36.00000, Total beta = 36.00000, Total charge =  0.00000
