  ==> Input File <==

--------------------------------------------------------------------------
set {
	reference rhf
	basis cc-pvtz
}

set_num_threads( 4 )
memory 2 gb

molecule MOL {
0 1

H	 -0.000342	 -0.223902	 -3.352295
C	 -0.027146	 0.371068	 -2.446756
C	 0.024493	 -0.518541	 -1.216015
H	 -0.932586	 0.964979	 -2.449855
H	 0.819708	 1.049865	 -2.473332
N	 -0.042516	 0.263377	 -0.000000
H	 -0.822211	 -1.197105	 -1.225584
H	 0.921114	 -1.142847	 -1.255206
C	 0.024493	 -0.518541	 1.216015
H	 0.682568	 0.950412	 -0.000000
C	 1.342113	 -0.299229	 1.940290
H	 -0.795198	 -0.211971	 1.857553
H	 -0.113921	 -1.586411	 1.027023
H	 1.476404	 0.748637	 2.177995
H	 1.373987	 -0.869912	 2.861166
H	 2.181186	 -0.614787	 1.327908

	symmetry c1
}
set optking {
	frozen_dihedral = ("
		12 9 6 3
	")
}

ee = optimize('scf')
oeprop('DIPOLE', 'QUADRUPOLE', 'MULLIKEN_CHARGES')
f=open( 'psi4out.xyz', 'w' )
f.write( "16  " )
f.write( str(ee) + "\n" )
f.write( MOL.save_string_xyz() )
f.close()
--------------------------------------------------------------------------

    Molecular point group: c1
  Charge       = 0
  Multiplicity = 1
  Basis Set: CC-PVTZ
  Basis Set:
  @DF-RHF Final Energy:  -212.38837991222022
    Total Energy =                       -212.3883799122201594
    Molecular point group: c1
  Basis Set: CC-PVTZ
  Basis Set:
  Basis Set: CC-PVTZ
  Basis Set:
  @DF-RHF Final Energy:  -212.38931248703355
    Total Energy =                       -212.3893124870335214
  Basis Set: CC-PVTZ
  Basis Set:
  Basis Set: CC-PVTZ
  Basis Set:
  @DF-RHF Final Energy:  -212.38947931468064
    Total Energy =                       -212.3894793146805569
  Basis Set: CC-PVTZ
  Basis Set:
  Basis Set: CC-PVTZ
  Basis Set:
  @DF-RHF Final Energy:  -212.38948999527392
    Total Energy =                       -212.3894899952738911
  Basis Set: CC-PVTZ
  Basis Set:
  Charge       = 0
  Multiplicity = 1
  Basis Set: CC-PVTZ
  Basis Set:

    Orbital Energies (a.u.)
    -----------------------

    Doubly Occupied:

       1A    -15.524797     2A    -11.239278     3A    -11.238589
       4A    -11.210233     5A    -11.206138     6A     -1.202683
       7A     -1.028207     8A     -0.964680     9A     -0.839413
      10A     -0.821697    11A     -0.643271    12A     -0.629315
      13A     -0.622797    14A     -0.575846    15A     -0.556083
      16A     -0.524745    17A     -0.507443    18A     -0.496292
      19A     -0.488680    20A     -0.473095    21A     -0.353466

  @DF-RHF Final Energy:  -212.38949160362208

   => Energetics <=

    Nuclear Repulsion Energy =            190.1728547938592158
    One-Electron Energy =                -662.8311960404868159
    Two-Electron Energy =                 260.2688496430055238
    DFT Exchange-Correlation Energy =       0.0000000000000000
    Empirical Dispersion Energy =           0.0000000000000000
    PCM Polarization Energy =               0.0000000000000000
    EFP Energy =                            0.0000000000000000
    Total Energy =                       -212.3894916036221048
    Molecular point group: c1
  Basis Set: CC-PVTZ
  Basis Set:

  -Total Gradient:
     Atom            X                  Y                   Z
    ------   -----------------  -----------------  -----------------
       1        0.000002185760     0.000007470429    -0.000003871055
       2        0.000009924686    -0.000004651543     0.000002417541
       3       -0.001198087548    -0.000194747137    -0.000019190473
       4       -0.000002312853    -0.000010301129     0.000008910577
       5        0.000007720000    -0.000000293378    -0.000001574026
       6        0.001456248152    -0.000018537133    -0.000217440374
       7       -0.000003501377     0.000005156706     0.000001652963
       8       -0.000013525936     0.000034758784     0.000012053883
       9        0.000677025641     0.001303046472     0.000853047297
      10       -0.000002511193    -0.000023058578     0.000038042709
      11       -0.000044980035    -0.000013239154    -0.000083549514
      12       -0.000840645089    -0.001082975038    -0.000619081555
      13       -0.000002145072    -0.000008980370    -0.000020869204
      14        0.000005333210    -0.000007861003    -0.000001437857
      15       -0.000006563665    -0.000012974226     0.000033109883
      16       -0.000044164679     0.000027186298     0.000017779206

  **** Optimization is complete! (in 5 steps) ****
    Final optimized geometry and variables:
    Molecular point group: c1

    Geometry (in Angstrom), charge = 0, multiplicity = 1:

    H           -0.276949153225    -0.084662320939    -3.260393711897
    C           -0.310360020305     0.506562754930    -2.352652412072
    C           -0.257708143508    -0.387695317628    -1.125606317745
    H           -1.219552938071     1.094919956483    -2.356040212679
    H            0.532637050844     1.190457139582    -2.373600255681
    N           -0.339924431459     0.393708363645     0.090319569832
    H           -1.099259472928    -1.071583190107    -1.145418734609
    H            0.644413217027    -1.003933890036    -1.167570698796
    C           -0.249966967789    -0.354319010533     1.335332359368
    H            0.327612790662     1.133530003240     0.074114820851
    C            1.073934348566    -0.174019223794     2.067136196495
    H           -1.067545415254    -0.069552650639     1.990425069931
    H           -0.395397469396    -1.407405105342     1.119195331082
    H            1.236177096094     0.869348615622     2.318818823248
    H            1.086842699018    -0.740712216988     2.991536847984
    H            1.907102574008    -0.505229617779     1.456421598409

  Mulliken Charges: (a.u.)
   Center  Symbol    Alpha    Beta     Spin     Total
       1     H     0.45372  0.45372  0.00000  0.09257
       2     C     3.14391  3.14391  0.00000 -0.28782
       3     C     3.01993  3.01993  0.00000 -0.03985
       4     H     0.44941  0.44941  0.00000  0.10118
       5     H     0.45963  0.45963  0.00000  0.08074
       6     N     3.64253  3.64253  0.00000 -0.28506
       7     H     0.45796  0.45796  0.00000  0.08409
       8     H     0.47578  0.47578  0.00000  0.04843
       9     C     3.02684  3.02684  0.00000 -0.05368
      10     H     0.44327  0.44327  0.00000  0.11345
      11     C     3.14872  3.14872  0.00000 -0.29744
      12     H     0.45457  0.45457  0.00000  0.09087
      13     H     0.46184  0.46184  0.00000  0.07631
      14     H     0.45628  0.45628  0.00000  0.08743
      15     H     0.45205  0.45205  0.00000  0.09589
      16     H     0.45356  0.45356  0.00000  0.09288

   Total alpha = 21.00000, Total beta = 21.00000, Total charge =  0.00000
