  ==> Input File <==

--------------------------------------------------------------------------
set {
	reference rhf
	basis 6-31G*
}

set_num_threads( 1 )
memory 2 gb

molecule MOL {
0 1

H	 -2.798360	 -0.862255	 -0.071053
N	 -1.863561	 -0.715187	 0.256814
C	 -1.344686	 0.554728	 -0.219830
H	 -1.300452	 -1.461917	 -0.101532
C	 0.081427	 0.741154	 0.254071
H	 -1.362155	 0.656231	 -1.305829
H	 -1.952773	 1.354456	 0.191809
O	 0.874168	 -0.245412	 -0.342030
H	 0.444037	 1.730782	 -0.023037
H	 0.121165	 0.653424	 1.337565
C	 2.027519	 0.236913	 -0.954169
H	 2.553068	 -0.608827	 -1.376330
H	 1.790897	 0.937734	 -1.752819
H	 2.678344	 0.735665	 -0.238989

	symmetry c1
}
set optking {
	frozen_dihedral = ("
		8 5 3 6,
		6 3 2 4,
		5 8 11 13
	")
}

ee = energy('scf')
oeprop('DIPOLE', 'QUADRUPOLE', 'MULLIKEN_CHARGES')
f=open( 'psi4out.xyz', 'w' )
f.write( "14  " )
f.write( str(ee) + "\n" )
f.write( MOL.save_string_xyz() )
f.close()
--------------------------------------------------------------------------

    Molecular point group: c1

    Geometry (in Angstrom), charge = 0, multiplicity = 1:

       Center              X                  Y                   Z               Mass
    ------------   -----------------  -----------------  -----------------  -----------------
           H         -2.761499099864    -0.963671906213     0.145816421382     1.007825032070
           N         -1.826700099864    -0.816603906213     0.473683421382    14.003074004780
           C         -1.307825099864     0.453311093787    -0.002960578618    12.000000000000
           H         -1.263591099864    -1.563333906213     0.115337421382     1.007825032070
           C          0.118287900136     0.639737093787     0.470940421382    12.000000000000
           H         -1.325294099864     0.554814093787    -1.088959578618     1.007825032070
           H         -1.915912099864     1.253039093787     0.408678421382     1.007825032070
           O          0.911028900136    -0.346828906213    -0.125160578618    15.994914619560
           H          0.480897900136     1.629365093787     0.193832421382     1.007825032070
           H          0.158025900136     0.552007093787     1.554434421382     1.007825032070
           C          2.064379900136     0.135496093787    -0.737299578618    12.000000000000
           H          2.589928900136    -0.710243906213    -1.159460578618     1.007825032070
           H          1.827757900136     0.836317093787    -1.535949578618     1.007825032070
           H          2.715204900136     0.634248093787    -0.022119578618     1.007825032070

  Charge       = 0
  Multiplicity = 1
  Basis Set: 6-31G*
  Basis Set:

    Orbital Energies (a.u.)
    -----------------------

    Doubly Occupied:

       1A    -20.555361     2A    -15.528115     3A    -11.268239
       4A    -11.265045     5A    -11.239463     6A     -1.381332
       7A     -1.173165     8A     -0.997600     9A     -0.911292
      10A     -0.814086    11A     -0.682074    12A     -0.676564
      13A     -0.642217    14A     -0.615010    15A     -0.602110
      16A     -0.540288    17A     -0.532420    18A     -0.499154
      19A     -0.474972    20A     -0.413125    21A     -0.378760

  @DF-RHF Final Energy:  -248.12080780939652

   => Energetics <=

    Nuclear Repulsion Energy =            195.0491957892329538
    One-Electron Energy =                -723.9592052365552490
    Two-Electron Energy =                 280.7892016379255438
    DFT Exchange-Correlation Energy =       0.0000000000000000
    Empirical Dispersion Energy =           0.0000000000000000
    PCM Polarization Energy =               0.0000000000000000
    EFP Energy =                            0.0000000000000000
    Total Energy =                       -248.1208078093967515

  Mulliken Charges: (a.u.)
   Center  Symbol    Alpha    Beta     Spin     Total
       1     H     0.33289  0.33289  0.00000  0.33423
       2     N     3.92492  3.92492  0.00000 -0.84983
       3     C     3.06434  3.06434  0.00000 -0.12868
       4     H     0.32346  0.32346  0.00000  0.35309
       5     C     2.99451  2.99451  0.00000  0.01098
       6     H     0.43159  0.43159  0.00000  0.13681
       7     H     0.42295  0.42295  0.00000  0.15410
       8     O     4.30907  4.30907  0.00000 -0.61815
       9     H     0.43020  0.43020  0.00000  0.13960
      10     H     0.41506  0.41506  0.00000  0.16988
      11     C     3.08044  3.08044  0.00000 -0.16087
      12     H     0.41289  0.41289  0.00000  0.17423
      13     H     0.42989  0.42989  0.00000  0.14022
      14     H     0.42780  0.42780  0.00000  0.14440

   Total alpha = 21.00000, Total beta = 21.00000, Total charge = -0.00000
