                              Psi4 1.0.54 Driver

  ==> Input File <==

--------------------------------------------------------------------------
set {
	reference rhf
	basis cc-pvtz
}

set_num_threads( 4 )
memory 2 gb

molecule MOL {
0 1

H	 -0.485477	 -1.631340	 -0.153906
N	 -0.625934	 -0.663929	 -0.000707
C	 -1.978635	 -0.158664	 0.001017
C	 0.462495	 0.112303	 0.197708
H	 -2.519057	 -0.493535	 -0.876362
H	 -1.938890	 0.917202	 -0.004137
H	 -2.514266	 -0.485137	 0.884506
C	 1.780699	 -0.629059	 0.158470
O	 0.401261	 1.289669	 0.395532
H	 1.919600	 -1.102718	 -0.806389
H	 2.580988	 0.070991	 0.333208
H	 1.804006	 -1.401373	 0.918474

	symmetry c1
}
set optking {
	frozen_dihedral = ("
		4 2 3 5
	")
}

ee,wfn = optimize('scf', return_wfn=True)
oeprop( wfn, 'DIPOLE', 'QUADRUPOLE', 'MULLIKEN_CHARGES')
f=open( 'psi4out.xyz', 'w' )
f.write( "12  " )
f.write( str(ee) + "\n" )
f.write( MOL.save_string_xyz() )
f.close()
--------------------------------------------------------------------------

    Molecular point group: c1
  Charge       = 0
  Multiplicity = 1
  Basis Set: CC-PVTZ
  Basis Set:
  @DF-RHF Final Energy:  -247.10097165071957
    Total Energy =                       -247.1009716507195435
    Molecular point group: c1
  Basis Set: CC-PVTZ
  Basis Set:
  Basis Set: CC-PVTZ
  Basis Set:
  @DF-RHF Final Energy:  -247.10094775416181
    Total Energy =                       -247.1009477541617798
  Basis Set: CC-PVTZ
  Basis Set:
  Basis Set: CC-PVTZ
  Basis Set:
  @DF-RHF Final Energy:  -247.10097510778536
    Total Energy =                       -247.1009751077852457
  Basis Set: CC-PVTZ
  Basis Set:
  Basis Set: CC-PVTZ
  Basis Set:
  @DF-RHF Final Energy:  -247.10100579981184
    Total Energy =                       -247.1010057998119009
  Basis Set: CC-PVTZ
  Basis Set:
  Basis Set: CC-PVTZ
  Basis Set:
  @DF-RHF Final Energy:  -247.10100822062054
    Total Energy =                       -247.1010082206203720
  Basis Set: CC-PVTZ
  Basis Set:
  Basis Set: CC-PVTZ
  Basis Set:
  @DF-RHF Final Energy:  -247.10101086536184
    Total Energy =                       -247.1010108653616726
  Basis Set: CC-PVTZ
  Basis Set:
  Charge       = 0
  Multiplicity = 1
  Basis Set: CC-PVTZ
  Basis Set:

    Orbital Energies (a.u.)
    -----------------------

    Doubly Occupied:

       1A    -20.506714     2A    -15.574866     3A    -11.336828
       4A    -11.252472     5A    -11.228076     6A     -1.388536
       7A     -1.231013     8A     -1.016693     9A     -0.932862
      10A     -0.788215    11A     -0.690950    12A     -0.651690
      13A     -0.635423    14A     -0.586809    15A     -0.582971
      16A     -0.555638    17A     -0.544928    18A     -0.511211
      19A     -0.417325    20A     -0.389401

  @DF-RHF Final Energy:  -247.10101104385376

   => Energetics <=

    Nuclear Repulsion Energy =            181.6488943383102423
    One-Electron Energy =                -695.8545656033072646
    Two-Electron Energy =                 267.1046602211430354
    DFT Exchange-Correlation Energy =       0.0000000000000000
    Empirical Dispersion Energy =           0.0000000000000000
    PCM Polarization Energy =               0.0000000000000000
    EFP Energy =                            0.0000000000000000
    Total Energy =                       -247.1010110438539868
    Molecular point group: c1
  Basis Set: CC-PVTZ
  Basis Set:

  -Total Gradient:
     Atom            X                  Y                   Z
    ------   -----------------  -----------------  -----------------
       1       -0.000003796130    -0.000001502611     0.000009981134
       2       -0.000000464537     0.000000657516     0.000171988757
       3       -0.000046686485    -0.000140927665    -0.000001927195
       4        0.000011461840     0.000038786254    -0.000143394218
       5        0.000036428059     0.000113083754    -0.000059173545
       6       -0.000000822309     0.000003827407     0.000003613818
       7        0.000007559996     0.000002002183     0.000003569982
       8       -0.000003533280    -0.000004765269     0.000034317621
       9       -0.000001373763    -0.000012487450    -0.000002633395
      10       -0.000006736067     0.000013172052    -0.000007854642
      11        0.000000164431    -0.000000350866     0.000002101333
      12        0.000007798248    -0.000011495304    -0.000010589649

  **** Optimization is complete! (in 7 steps) ****
    Final optimized geometry and variables:
    Molecular point group: c1

    Geometry (in Angstrom), charge = 0, multiplicity = 1:

    H           -0.485611250357    -1.619817316124    -0.292637603337
    N           -0.621776291899    -0.648162342918    -0.163934949273
    C           -1.973642912089    -0.141242945480    -0.142875572072
    C            0.467272945136     0.123375685332     0.049951671083
    H           -2.510262024457    -0.457028608701    -1.028869890003
    H           -1.934030041550     0.934689026830    -0.123532845939
    H           -2.513478368208    -0.484853523333     0.732237654950
    C            1.784723007507    -0.619621840280     0.008211353503
    O            0.406560142849     1.299847128710     0.252336377222
    H            1.920379276978    -1.096229424405    -0.955595025033
    H            2.586397022991     0.079793774492     0.179563670452
    H            1.809076504888    -1.389803007441     0.770500013081

  Mulliken Charges: (a.u.)
   Center  Symbol    Alpha    Beta     Spin     Total
       1     H     0.41044  0.41044  0.00000  0.17912
       2     N     3.62168  3.62168  0.00000 -0.24335
       3     C     3.08546  3.08546  0.00000 -0.17092
       4     C     2.83664  2.83664  0.00000  0.32671
       5     H     0.45520  0.45520  0.00000  0.08960
       6     H     0.43158  0.43158  0.00000  0.13683
       7     H     0.45630  0.45630  0.00000  0.08741
       8     C     3.15358  3.15358  0.00000 -0.30716
       9     O     4.21549  4.21549  0.00000 -0.43098
      10     H     0.44978  0.44978  0.00000  0.10043
      11     H     0.43354  0.43354  0.00000  0.13293
      12     H     0.45031  0.45031  0.00000  0.09938

   Total alpha = 20.00000, Total beta = 20.00000, Total charge =  0.00000

*** Psi4 exiting successfully. Buy a developer a beer!
