  ==> Input File <==

--------------------------------------------------------------------------
set {
	reference rhf
	basis cc-pvtz
}

set_num_threads( 4 )
memory 2 gb

molecule MOL {
0 1

H	 2.400946	 1.752951	 -1.349521
C	 1.682714	 1.579364	 -0.558768
C	 1.322304	 0.099773	 -0.484271
H	 2.121884	 1.925327	 0.370108
H	 0.809397	 2.187974	 -0.764322
C	 0.308557	 -0.162619	 0.622645
H	 2.209792	 -0.491166	 -0.294825
H	 0.905219	 -0.230360	 -1.427664
N	 -1.069352	 -0.004081	 0.085342
H	 0.371632	 -1.172932	 0.991288
H	 0.400391	 0.548875	 1.426218
O	 -1.584901	 -0.965470	 -0.377818
O	 -1.548033	 1.079343	 0.130056

	symmetry c1
}
set optking {
	frozen_dihedral = ("
		7 3 6 9
	")
}

ee = optimize('scf')
oeprop('DIPOLE', 'QUADRUPOLE', 'MULLIKEN_CHARGES')
f=open( 'psi4out.xyz', 'w' )
f.write( "13  " )
f.write( str(ee) + "\n" )
f.write( MOL.save_string_xyz() )
f.close()
--------------------------------------------------------------------------

    Molecular point group: c1
  Charge       = 0
  Multiplicity = 1
  Basis Set: CC-PVTZ
  Basis Set:
  @DF-RHF Final Energy:  -321.85823914801824
    Total Energy =                       -321.8582391480180149
    Molecular point group: c1
  Basis Set: CC-PVTZ
  Basis Set:
  Basis Set: CC-PVTZ
  Basis Set:
  @DF-RHF Final Energy:  -321.85860249603900
    Total Energy =                       -321.8586024960390546
  Basis Set: CC-PVTZ
  Basis Set:
  Basis Set: CC-PVTZ
  Basis Set:
  @DF-RHF Final Energy:  -321.84725781646983
    Total Energy =                       -321.8472578164698916
  Basis Set: CC-PVTZ
  Basis Set:
  Basis Set: CC-PVTZ
  Basis Set:
  @DF-RHF Final Energy:  -321.85827341410686
    Total Energy =                       -321.8582734141068613
  Basis Set: CC-PVTZ
  Basis Set:
  @DF-RHF Final Energy:  -321.85904662195787
    Total Energy =                       -321.8590466219577593
  @DF-RHF Final Energy:  -321.85906733916806
    Total Energy =                       -321.8590673391685186
  @DF-RHF Final Energy:  -321.85908162163622
    Total Energy =                       -321.8590816216361077
  Basis Set: CC-PVTZ
  Basis Set:
  @DF-RHF Final Energy:  -321.85910817474837
    Total Energy =                       -321.8591081747484850
  Basis Set: CC-PVTZ
  Basis Set:
  Basis Set: CC-PVTZ
  Basis Set:
  @DF-RHF Final Energy:  -321.85911524433061
    Total Energy =                       -321.8591152443303827
  Basis Set: CC-PVTZ
  Basis Set:
  Basis Set: CC-PVTZ
  Basis Set:
  @DF-RHF Final Energy:  -321.85911641333382
    Total Energy =                       -321.8591164133338225
  Basis Set: CC-PVTZ
  Basis Set:
  Charge       = 0
  Multiplicity = 1
  Basis Set: CC-PVTZ
  Basis Set:

    Orbital Energies (a.u.)
    -----------------------

    Doubly Occupied:

       1A    -20.592273     2A    -20.589420     3A    -15.837152
       4A    -11.297685     5A    -11.253848     6A    -11.230079
       7A     -1.636269     8A     -1.420506     9A     -1.132067
      10A     -1.023339    11A     -0.890480    12A     -0.828790
      13A     -0.762939    14A     -0.739170    15A     -0.727982
      16A     -0.645100    17A     -0.626490    18A     -0.595552
      19A     -0.529834    20A     -0.523567    21A     -0.513839
      22A     -0.486231    23A     -0.474408    24A     -0.453189

  @DF-RHF Final Energy:  -321.85911646107581

   => Energetics <=

    Nuclear Repulsion Energy =            251.3366176821947420
    One-Electron Energy =                -936.7710581106155132
    Two-Electron Energy =                 363.5753239673449002
    DFT Exchange-Correlation Energy =       0.0000000000000000
    Empirical Dispersion Energy =           0.0000000000000000
    PCM Polarization Energy =               0.0000000000000000
    EFP Energy =                            0.0000000000000000
    Total Energy =                       -321.8591164610758710
    Molecular point group: c1
  Basis Set: CC-PVTZ
  Basis Set:

  -Total Gradient:
     Atom            X                  Y                   Z
    ------   -----------------  -----------------  -----------------
       1       -0.000004840894    -0.000005627883     0.000000771673
       2        0.000015572331    -0.000013367259     0.000040283257
       3        0.001722826040     0.002588008854     0.002300184293
       4        0.000000434512     0.000002643139    -0.000001715746
       5       -0.000005095760     0.000000120685    -0.000002307332
       6       -0.000221101762     0.003139390783     0.000551786242
       7       -0.001478975064    -0.002909009651    -0.002129101927
       8        0.000035853610     0.000002196533    -0.000023389435
       9       -0.000022309490    -0.002761341856    -0.000703181404
      10       -0.000043379289     0.000000555247     0.000007794319
      11        0.000027637662     0.000020298703    -0.000012207793
      12       -0.000026522552    -0.000041572568    -0.000026814645
      13       -0.000000099338    -0.000022294727    -0.000002101498

  **** Optimization is complete! (in 11 steps) ****
    Final optimized geometry and variables:
    Molecular point group: c1

    Geometry (in Angstrom), charge = 0, multiplicity = 1:

    H            2.608144024814     1.434075310614    -1.311573255819
    C            1.889730913900     1.304294927197    -0.511920322430
    C            1.517433661180    -0.165660995181    -0.364756496172
    H            2.332150952277     1.689129301526     0.399972122518
    H            1.020915738483     1.908899334271    -0.741622885745
    C            0.482317772311    -0.437601803090     0.728832435032
    H            2.388771403507    -0.769829749911    -0.142970994153
    H            1.131798412239    -0.554280697585    -1.299237228991
    N           -0.898300743728    -0.278231393172     0.191142932187
    H            0.529693492187    -1.460695663480     1.063174653254
    H            0.565600151783     0.240582652099     1.560573681590
    O           -1.318082100316    -1.159459900118    -0.481597604324
    O           -1.479973254160     0.720342895916     0.454896544446

  Mulliken Charges: (a.u.)
   Center  Symbol    Alpha    Beta     Spin     Total
       1     H     0.44560  0.44560  0.00000  0.10880
       2     C     3.14342  3.14342  0.00000 -0.28684
       3     C     3.09601  3.09601  0.00000 -0.19202
       4     H     0.45452  0.45452  0.00000  0.09095
       5     H     0.44471  0.44471  0.00000  0.11057
       6     C     3.04655  3.04655  0.00000 -0.09311
       7     H     0.44569  0.44569  0.00000  0.10862
       8     H     0.43751  0.43751  0.00000  0.12498
       9     N     3.27721  3.27721  0.00000  0.44557
      10     H     0.42786  0.42786  0.00000  0.14428
      11     H     0.43510  0.43510  0.00000  0.12980
      12     O     4.17379  4.17379  0.00000 -0.34758
      13     O     4.17201  4.17201  0.00000 -0.34402

   Total alpha = 24.00000, Total beta = 24.00000, Total charge = -0.00000
