  ==> Input File <==

--------------------------------------------------------------------------
set {
	reference rhf
	basis 6-31G*
}

set_num_threads( 4 )
memory 2 gb

molecule MOL {
0 1

O	 0.303304	 0.125452	 -0.861970
C	 1.122059	 0.121804	 -0.000188
C	 1.118852	 1.012926	 1.217919
O	 2.172624	 -0.688929	 0.000216
C	 -0.069938	 1.967738	 1.267472
H	 1.142417	 0.367914	 2.092081
H	 2.060259	 1.555554	 1.225753
C	 -0.048654	 2.858644	 2.510533
H	 -0.991416	 1.394418	 1.241270
H	 -0.072527	 2.583473	 0.373399
C	 -1.235586	 3.819345	 2.567537
H	 -0.045337	 2.236707	 3.403427
H	 0.877832	 3.428892	 2.533176
H	 -2.177080	 3.277993	 2.580975
H	 -1.196728	 4.438849	 3.458033
H	 -1.246961	 4.479092	 1.704841
C	 3.452279	 -0.082609	 0.000533
H	 3.583069	 0.529321	 -0.880332
H	 4.163299	 -0.894027	 0.001117
H	 3.582335	 0.529955	 0.881077

	symmetry c1
}
set optking {
	frozen_dihedral = ("
		1 2 4 17
	")
}

ee = optimize('scf')
oeprop('DIPOLE', 'QUADRUPOLE', 'MULLIKEN_CHARGES')
f=open( 'psi4out.xyz', 'w' )
f.write( "20  " )
f.write( str(ee) + "\n" )
f.write( MOL.save_string_xyz() )
f.close()
--------------------------------------------------------------------------

    Molecular point group: c1
  Charge       = 0
  Multiplicity = 1
  Basis Set: 6-31G*
  Basis Set:
  @DF-RHF Final Energy:  -383.91609619104634
    Total Energy =                       -383.9160961910465630
    Molecular point group: c1
  Basis Set: 6-31G*
  Basis Set:
  Basis Set: 6-31G*
  Basis Set:
  @DF-RHF Final Energy:  -383.91600123954993
    Total Energy =                       -383.9160012395499848
  Basis Set: 6-31G*
  Basis Set:
  Basis Set: 6-31G*
  Basis Set:
  @DF-RHF Final Energy:  -383.91991403218327
    Total Energy =                       -383.9199140321831010
  Basis Set: 6-31G*
  Basis Set:
  Basis Set: 6-31G*
  Basis Set:
  @DF-RHF Final Energy:  -383.92083735252857
    Total Energy =                       -383.9208373525284514
  Basis Set: 6-31G*
  Basis Set:
  @DF-RHF Final Energy:  -383.92103679863112
    Total Energy =                       -383.9210367986311212
  @DF-RHF Final Energy:  -383.92107649622039
    Total Energy =                       -383.9210764962203939
  Basis Set: 6-31G*
  Basis Set:
  @DF-RHF Final Energy:  -383.92108250994693
    Total Energy =                       -383.9210825099467002
  Basis Set: 6-31G*
  Basis Set:
  Basis Set: 6-31G*
  Basis Set:
  @DF-RHF Final Energy:  -383.92108390271375
    Total Energy =                       -383.9210839027139173
  Basis Set: 6-31G*
  Basis Set:
  Basis Set: 6-31G*
  Basis Set:
  @DF-RHF Final Energy:  -383.92108596796322
    Total Energy =                       -383.9210859679635632
  Basis Set: 6-31G*
  Basis Set:
  Charge       = 0
  Multiplicity = 1
  Basis Set: 6-31G*
  Basis Set:

    Orbital Energies (a.u.)
    -----------------------

    Doubly Occupied:

       1A    -20.589253     2A    -20.553074     3A    -11.374849
       4A    -11.294671     5A    -11.242356     6A    -11.223874
       7A    -11.223247     8A    -11.213152     9A     -1.459172
      10A     -1.367665    11A     -1.090879    12A     -1.017452
      13A     -0.976582    14A     -0.899533    15A     -0.809215
      16A     -0.766176    17A     -0.696815    18A     -0.680740
      19A     -0.674653    20A     -0.647354    21A     -0.614907
      22A     -0.590674    23A     -0.590169    24A     -0.552872
      25A     -0.538506    26A     -0.517365    27A     -0.494975
      28A     -0.485291    29A     -0.480622    30A     -0.473619
      31A     -0.451655    32A     -0.433265

  @DF-RHF Final Energy:  -383.92108607619627

   => Energetics <=

    Nuclear Repulsion Energy =            381.9933055617101445
    One-Electron Energy =               -1279.7795212575686037
    Two-Electron Energy =                 513.8651296196619569
    DFT Exchange-Correlation Energy =       0.0000000000000000
    Empirical Dispersion Energy =           0.0000000000000000
    PCM Polarization Energy =               0.0000000000000000
    EFP Energy =                            0.0000000000000000
    Total Energy =                       -383.9210860761965023
    Molecular point group: c1
  Basis Set: 6-31G*
  Basis Set:

  -Total Gradient:
     Atom            X                  Y                   Z
    ------   -----------------  -----------------  -----------------
       1        0.001803149476     0.001833651337    -0.001431822122
       2       -0.002656195756    -0.002610440191     0.000866475803
       3        0.000031407500     0.000021960256    -0.000012493306
       4        0.000828498214     0.000729813345     0.002988853035
       5       -0.000002383077     0.000004805971    -0.000002225272
       6       -0.000004403755     0.000001987441    -0.000000955269
       7       -0.000006442803    -0.000001542786     0.000002143178
       8       -0.000005809314    -0.000008778299     0.000009739087
       9       -0.000003139543     0.000002444638     0.000001897173
      10        0.000006637806    -0.000003936371    -0.000002968118
      11        0.000004100263     0.000001589938    -0.000005430182
      12        0.000003557711    -0.000002133436     0.000002222218
      13       -0.000004586138     0.000001832779    -0.000000468872
      14        0.000001924574    -0.000001094358     0.000001754242
      15        0.000002073246    -0.000000084571    -0.000000687493
      16       -0.000002541867    -0.000000131446    -0.000001326681
      17        0.000025290665     0.000042332089    -0.002413184986
      18       -0.000004003543    -0.000000272408    -0.000001691598
      19       -0.000009812895    -0.000006354572    -0.000000173272
      20       -0.000007320762    -0.000005649352     0.000000342437

  **** Optimization is complete! (in 10 steps) ****
    Final optimized geometry and variables:
    Molecular point group: c1

    Geometry (in Angstrom), charge = 0, multiplicity = 1:

    O           -0.478870505561    -0.866627754452    -1.718795441482
    C            0.302852085657    -0.922529259915    -0.834695937985
    C            0.281819508871    -0.015034835789     0.376986365946
    O            1.274031547166    -1.859237884320    -0.839817518678
    C           -0.975782757017     0.845711395628     0.466015011436
    H            0.395433129124    -0.639835887885     1.258815913757
    H            1.165694117439     0.618322736985     0.343454683577
    C           -0.972998376222     1.754240786482     1.696372971804
    H           -1.848911614510     0.200812658285     0.486981385877
    H           -1.063402071718     1.443494561661    -0.435107179109
    C           -2.230677724517     2.616642483125     1.794150461836
    H           -0.880502928151     1.148942187170     2.595846557319
    H           -0.096114437719     2.398394721159     1.670783997841
    H           -3.123185440777     2.001098793762     1.857410016052
    H           -2.203189046554     3.251991795993     2.673774631551
    H           -2.333724049602     3.258570696076     0.924187317580
    C            2.623472204768    -1.450533361534    -0.832696570716
    H            2.814793279214    -0.735564032921    -1.624670462900
    H            3.208287689800    -2.339253992029    -1.010987212702
    H            2.910320608023    -1.023940126911     0.121374196778

  Mulliken Charges: (a.u.)
   Center  Symbol    Alpha    Beta     Spin     Total
       1     O     4.25262  4.25262  0.00000 -0.50524
       2     C     2.60963  2.60963  0.00000  0.78074
       3     C     3.22310  3.22310  0.00000 -0.44620
       4     O     4.31158  4.31158  0.00000 -0.62316
       5     C     3.14983  3.14983  0.00000 -0.29966
       6     H     0.40085  0.40085  0.00000  0.19830
       7     H     0.40603  0.40603  0.00000  0.18793
       8     C     3.15444  3.15444  0.00000 -0.30888
       9     H     0.41133  0.41133  0.00000  0.17735
      10     H     0.40934  0.40934  0.00000  0.18132
      11     C     3.23954  3.23954  0.00000 -0.47908
      12     H     0.42271  0.42271  0.00000  0.15459
      13     H     0.42393  0.42393  0.00000  0.15214
      14     H     0.41924  0.41924  0.00000  0.16152
      15     H     0.41841  0.41841  0.00000  0.16318
      16     H     0.41950  0.41950  0.00000  0.16101
      17     C     3.09346  3.09346  0.00000 -0.18693
      18     H     0.41475  0.41475  0.00000  0.17050
      19     H     0.40018  0.40018  0.00000  0.19964
      20     H     0.41954  0.41954  0.00000  0.16092

   Total alpha = 32.00000, Total beta = 32.00000, Total charge =  0.00000
