  ==> Input File <==

--------------------------------------------------------------------------
set {
	reference rhf
	basis 6-31G*
}

set_num_threads( 4 )
memory 2 gb

molecule MOL {
0 1

O	 1.631698	 1.670088	 0.488540
C	 1.064989	 1.228418	 1.435581
C	 -0.245748	 0.480817	 1.405128
O	 1.528182	 1.336168	 2.674523
C	 -0.823008	 0.326187	 0.001381
H	 -0.078639	 -0.486562	 1.870925
H	 -0.935460	 1.008025	 2.058632
C	 -2.149452	 -0.435131	 -0.000098
H	 -0.102188	 -0.187247	 -0.627103
H	 -0.960965	 1.308789	 -0.438812
C	 -3.368779	 0.488503	 -0.000883
H	 -2.193746	 -1.087250	 -0.871175
H	 -2.195311	 -1.087803	 0.870418
C	 -4.693822	 -0.272754	 -0.001129
H	 -3.325798	 1.139422	 -0.871284
H	 -3.326423	 1.139959	 0.869145
H	 -4.781274	 -0.907928	 -0.878124
H	 -5.538651	 0.408946	 -0.001420
H	 -4.781694	 -0.907783	 0.875984
C	 2.757928	 2.017338	 2.843892
H	 3.547412	 1.516753	 2.301989
H	 2.961773	 1.999419	 3.903138
H	 2.678883	 3.036892	 2.494938

	symmetry c1
}
set optking {
	frozen_dihedral = ("
		9 5 8 12
	")
}

ee = optimize('scf')
oeprop('DIPOLE', 'QUADRUPOLE', 'MULLIKEN_CHARGES')
f=open( 'psi4out.xyz', 'w' )
f.write( "23  " )
f.write( str(ee) + "\n" )
f.write( MOL.save_string_xyz() )
f.close()
--------------------------------------------------------------------------

    Molecular point group: c1
  Charge       = 0
  Multiplicity = 1
  Basis Set: 6-31G*
  Basis Set:
  @DF-RHF Final Energy:  -422.97220535186335
    Total Energy =                       -422.9722053518628400
    Molecular point group: c1
  Basis Set: 6-31G*
  Basis Set:
  Basis Set: 6-31G*
  Basis Set:
  @DF-RHF Final Energy:  -422.97246670842475
    Total Energy =                       -422.9724667084246903
  Basis Set: 6-31G*
  Basis Set:
  Basis Set: 6-31G*
  Basis Set:
  @DF-RHF Final Energy:  -422.97221719558758
    Total Energy =                       -422.9722171955870635
  Basis Set: 6-31G*
  Basis Set:
  Basis Set: 6-31G*
  Basis Set:
  @DF-RHF Final Energy:  -422.97254858513941
    Total Energy =                       -422.9725485851388385
  Basis Set: 6-31G*
  Basis Set:
  Basis Set: 6-31G*
  Basis Set:
  @DF-RHF Final Energy:  -422.97254734163397
    Total Energy =                       -422.9725473416337991
  Basis Set: 6-31G*
  Basis Set:
  Basis Set: 6-31G*
  Basis Set:
  @DF-RHF Final Energy:  -422.97255565394539
    Total Energy =                       -422.9725556539449371
  Basis Set: 6-31G*
  Basis Set:
  Charge       = 0
  Multiplicity = 1
  Basis Set: 6-31G*
  Basis Set:

    Orbital Energies (a.u.)
    -----------------------

    Doubly Occupied:

       1A    -20.603667     2A    -20.545539     3A    -11.372227
       4A    -11.280879     5A    -11.235849     6A    -11.218952
       7A    -11.218374     8A    -11.217453     9A    -11.210472
      10A     -1.469353    11A     -1.362815    12A     -1.092524
      13A     -1.042891    14A     -0.986680    15A     -0.932228
      16A     -0.847387    17A     -0.794379    18A     -0.766868
      19A     -0.701086    20A     -0.682291    21A     -0.672553
      22A     -0.632034    23A     -0.624587    24A     -0.598634
      25A     -0.574671    26A     -0.558531    27A     -0.555236
      28A     -0.528331    29A     -0.520845    30A     -0.500269
      31A     -0.495529    32A     -0.469710    33A     -0.464439
      34A     -0.458438    35A     -0.452150    36A     -0.436368

  @DF-RHF Final Energy:  -422.97255594880306

   => Energetics <=

    Nuclear Repulsion Energy =            455.7083431399738060
    One-Electron Energy =               -1479.1133192566487651
    Two-Electron Energy =                 600.4324201678723512
    DFT Exchange-Correlation Energy =       0.0000000000000000
    Empirical Dispersion Energy =           0.0000000000000000
    PCM Polarization Energy =               0.0000000000000000
    EFP Energy =                            0.0000000000000000
    Total Energy =                       -422.9725559488026647
    Molecular point group: c1
  Basis Set: 6-31G*
  Basis Set:

  -Total Gradient:
     Atom            X                  Y                   Z
    ------   -----------------  -----------------  -----------------
       1        0.000007168435    -0.000009695573     0.000001457912
       2       -0.000017951808     0.000019154773     0.000005079001
       3       -0.000001800443    -0.000007253079    -0.000009766880
       4        0.000012808868     0.000000241880    -0.000001019017
       5        0.001471104930    -0.002907012652     0.003697668830
       6        0.000000173415    -0.000001992798    -0.000004635557
       7        0.000003311375    -0.000004524081    -0.000008366373
       8       -0.001840850469     0.003571754198    -0.002793505832
       9       -0.000945701613     0.001836674948    -0.002618204648
      10       -0.000010402150     0.000009091942     0.000000916526
      11        0.000010848244    -0.000008156265    -0.000004613351
      12        0.001309405679    -0.002501588342     0.001721467245
      13        0.000006874237     0.000006501751     0.000012159420
      14       -0.000004243411     0.000004930122    -0.000000399585
      15       -0.000001090008    -0.000000926306     0.000001029518
      16        0.000005218609    -0.000009699517    -0.000004806766
      17        0.000002520333     0.000001456564     0.000003275145
      18       -0.000008758006    -0.000002512451    -0.000001001019
      19        0.000000021402     0.000002471108    -0.000000346018
      20       -0.000000767786     0.000002164958     0.000003656932
      21        0.000000042020    -0.000000562032    -0.000000138982
      22        0.000001496847    -0.000000074963     0.000000012206
      23        0.000000571287    -0.000000444188     0.000000081298

  **** Optimization is complete! (in 7 steps) ****
    Final optimized geometry and variables:
    Molecular point group: c1

    Geometry (in Angstrom), charge = 0, multiplicity = 1:

    O            2.070866333751     0.909548340085    -0.508109354878
    C            1.509994083403     0.448036269645     0.432925775093
    C            0.215390713561    -0.326730570408     0.391169145402
    O            1.964566153011     0.557532014551     1.674948746146
    C           -0.348587721212    -0.490556836597    -1.016976238492
    H            0.399806805187    -1.291973583076     0.854323921032
    H           -0.488721016400     0.183763697783     1.042556804155
    C           -1.705206973569    -1.218068484731    -1.039153381259
    H            0.369935306614    -1.008692474758    -1.642181247415
    H           -0.454842131817     0.490890397080    -1.468799003168
    C           -2.911810553525    -0.278047829420    -1.005651475143
    H           -1.761711896810    -1.857427269287    -1.916299664609
    H           -1.765238213269    -1.899506632358    -0.191338702879
    C           -4.246237509614    -1.021111771025    -0.965526984719
    H           -2.883588605687     0.368745838340    -1.879411114499
    H           -2.839038652888     0.377575964306    -0.140011380358
    H           -4.361757825709    -1.664631615176    -1.833146094708
    H           -5.082132158569    -0.328588372385    -0.954025593499
    H           -4.321629746508    -1.645604189732    -0.079758986211
    C            3.178492015106     1.263929092439     1.855065598457
    H            3.981350261046     0.783906450380     1.314223015730
    H            3.377283055503     1.243561058058     2.915269190466
    H            3.079255305633     2.283777298553     1.512173007165

  Mulliken Charges: (a.u.)
   Center  Symbol    Alpha    Beta     Spin     Total
       1     O     4.28587  4.28587  0.00000 -0.57174
       2     C     2.60562  2.60562  0.00000  0.78876
       3     C     3.20845  3.20845  0.00000 -0.41690
       4     O     4.30733  4.30733  0.00000 -0.61465
       5     C     3.15652  3.15652  0.00000 -0.31303
       6     H     0.40021  0.40021  0.00000  0.19959
       7     H     0.40034  0.40034  0.00000  0.19932
       8     C     3.15749  3.15749  0.00000 -0.31499
       9     H     0.40948  0.40948  0.00000  0.18103
      10     H     0.40989  0.40989  0.00000  0.18022
      11     C     3.15239  3.15239  0.00000 -0.30478
      12     H     0.41783  0.41783  0.00000  0.16434
      13     H     0.42414  0.42414  0.00000  0.15172
      14     C     3.23993  3.23993  0.00000 -0.47985
      15     H     0.42009  0.42009  0.00000  0.15981
      16     H     0.42413  0.42413  0.00000  0.15175
      17     H     0.42094  0.42094  0.00000  0.15812
      18     H     0.41857  0.41857  0.00000  0.16285
      19     H     0.42176  0.42176  0.00000  0.15648
      20     C     3.09246  3.09246  0.00000 -0.18491
      21     H     0.40905  0.40905  0.00000  0.18191
      22     H     0.40845  0.40845  0.00000  0.18310
      23     H     0.40907  0.40907  0.00000  0.18186

   Total alpha = 36.00000, Total beta = 36.00000, Total charge = -0.00000
