  ==> Input File <==

--------------------------------------------------------------------------
set {
	reference rhf
	basis cc-pvtz
}

set_num_threads( 4 )
memory 2 gb

molecule MOL {
0 1

H	 -2.816458	 -0.841657	 -0.064679
N	 -1.878861	 -0.711874	 0.250184
C	 -1.341419	 0.551458	 -0.220231
H	 -1.333674	 -1.468530	 -0.105118
C	 0.082190	 0.731516	 0.254705
H	 -1.357065	 0.652078	 -1.304747
H	 -1.939897	 1.357530	 0.189797
O	 0.601646	 1.896559	 -0.311465
H	 0.103121	 0.802191	 1.341323
H	 0.678140	 -0.128376	 -0.042544
C	 1.934424	 2.140837	 -0.006098
H	 2.223407	 3.061650	 -0.491873
H	 2.083174	 2.250171	 1.066103
H	 2.577558	 1.339634	 -0.362491

	symmetry c1
}
set optking {
	frozen_dihedral = ("
		8 5 3 6
	")
}

ee = optimize('scf')
oeprop('DIPOLE', 'QUADRUPOLE', 'MULLIKEN_CHARGES')
f=open( 'psi4out.xyz', 'w' )
f.write( "14  " )
f.write( str(ee) + "\n" )
f.write( MOL.save_string_xyz() )
f.close()
--------------------------------------------------------------------------

    Molecular point group: c1
  Charge       = 0
  Multiplicity = 1
  Basis Set: CC-PVTZ
  Basis Set:
  @DF-RHF Final Energy:  -248.22409823106335
    Total Energy =                       -248.2240982310636355
    Molecular point group: c1
  Basis Set: CC-PVTZ
  Basis Set:
  Basis Set: CC-PVTZ
  Basis Set:
  @DF-RHF Final Energy:  -248.22454165896377
    Total Energy =                       -248.2245416589636307
  Basis Set: CC-PVTZ
  Basis Set:
  Basis Set: CC-PVTZ
  Basis Set:
  @DF-RHF Final Energy:  -248.22464415434064
    Total Energy =                       -248.2246441543402398
  Basis Set: CC-PVTZ
  Basis Set:
  Basis Set: CC-PVTZ
  Basis Set:
  @DF-RHF Final Energy:  -248.22465774203545
    Total Energy =                       -248.2246577420352764
  Basis Set: CC-PVTZ
  Basis Set:
  Charge       = 0
  Multiplicity = 1
  Basis Set: CC-PVTZ
  Basis Set:

    Orbital Energies (a.u.)
    -----------------------

    Doubly Occupied:

       1A    -20.548566     2A    -15.532472     3A    -11.262222
       4A    -11.262119     5A    -11.239768     6A     -1.383050
       7A     -1.182699     8A     -1.000228     9A     -0.900263
      10A     -0.823309    11A     -0.687450    12A     -0.668422
      13A     -0.652373    14A     -0.623047    15A     -0.591685
      16A     -0.566250    17A     -0.516108    18A     -0.498411
      19A     -0.471074    20A     -0.417286    21A     -0.390492

  @DF-RHF Final Energy:  -248.22465855384885

   => Energetics <=

    Nuclear Repulsion Energy =            191.1035150915998599
    One-Electron Energy =                -716.2217601190510550
    Two-Electron Energy =                 276.8935864736026247
    DFT Exchange-Correlation Energy =       0.0000000000000000
    Empirical Dispersion Energy =           0.0000000000000000
    PCM Polarization Energy =               0.0000000000000000
    EFP Energy =                            0.0000000000000000
    Total Energy =                       -248.2246585538485419
    Molecular point group: c1
  Basis Set: CC-PVTZ
  Basis Set:

  -Total Gradient:
     Atom            X                  Y                   Z
    ------   -----------------  -----------------  -----------------
       1       -0.000018281168    -0.000019486529    -0.000001048366
       2       -0.000051743429    -0.000033194336     0.000044401319
       3        0.000232463336    -0.001081793717    -0.000246554651
       4        0.000004184519    -0.000002322913    -0.000007807840
       5       -0.000286473097     0.000703240184     0.000558783900
       6       -0.000117797826     0.000799504595     0.000060812446
       7        0.000002487131    -0.000001248305     0.000003851207
       8        0.000223394496    -0.000418764626    -0.000417076275
       9        0.000001433764    -0.000002303242     0.000026305042
      10       -0.000006270553     0.000003879115     0.000001153918
      11        0.000014257709     0.000066590884    -0.000015065550
      12        0.000026975488     0.000002585041    -0.000001899300
      13       -0.000006819845    -0.000012629684    -0.000005468028
      14       -0.000017810527    -0.000004056467    -0.000000387823

  **** Optimization is complete! (in 5 steps) ****
    Final optimized geometry and variables:
    Molecular point group: c1

    Geometry (in Angstrom), charge = 0, multiplicity = 1:

    H           -2.743949876780    -1.675188736371     0.159669856449
    N           -1.755688922934    -1.626969365377     0.281761929377
    C           -1.226909385213    -0.369459241338    -0.217707329831
    H           -1.359738044238    -2.403957213781    -0.204133582964
    C            0.204812325789    -0.191479266520     0.244866712927
    H           -1.256242473062    -0.274521235319    -1.301096159617
    H           -1.823794053906     0.439424916169     0.185227832873
    O            0.720958127168     0.966291865471    -0.330004323651
    H            0.235350818785    -0.134630254221     1.330296143731
    H            0.800230151086    -1.056123416216    -0.051824846758
    C            2.026500545018     1.260286417267     0.040310107241
    H            2.318098589093     2.170091533813    -0.464182427185
    H            2.111778213764     1.412352255412     1.113964015144
    H            2.711034635883     0.465465515529    -0.248759338969

  Mulliken Charges: (a.u.)
   Center  Symbol    Alpha    Beta     Spin     Total
       1     H     0.42697  0.42697  0.00000  0.14606
       2     N     3.69479  3.69479  0.00000 -0.38959
       3     C     3.03165  3.03165  0.00000 -0.06330
       4     H     0.42956  0.42956  0.00000  0.14089
       5     C     2.95377  2.95377  0.00000  0.09246
       6     H     0.46323  0.46323  0.00000  0.07354
       7     H     0.45421  0.45421  0.00000  0.09158
       8     O     4.17382  4.17382  0.00000 -0.34763
       9     H     0.46977  0.46977  0.00000  0.06046
      10     H     0.48031  0.48031  0.00000  0.03939
      11     C     3.03188  3.03188  0.00000 -0.06376
      12     H     0.44724  0.44724  0.00000  0.10553
      13     H     0.47079  0.47079  0.00000  0.05842
      14     H     0.47202  0.47202  0.00000  0.05595

   Total alpha = 21.00000, Total beta = 21.00000, Total charge = -0.00000
