  ==> Input File <==

--------------------------------------------------------------------------
set {
	reference rhf
	basis 6-31G*
}

set_num_threads( 4 )
memory 2 gb

molecule MOL {
0 1

H	 1.142589	 -0.020345	 1.359544
C	 1.115261	 -0.020839	 0.262750
C	 0.065331	 0.871482	 -0.349150
O	 1.880757	 -0.688912	 -0.353216
C	 -1.339775	 0.583656	 0.198860
H	 0.102478	 0.754472	 -1.426109
H	 0.338789	 1.899065	 -0.113660
C	 -1.808407	 -0.848507	 -0.061364
H	 -2.036183	 1.280685	 -0.256307
H	 -1.360094	 0.788874	 1.267089
H	 -1.828843	 -1.063152	 -1.125336
H	 -2.808409	 -1.004529	 0.329750
H	 -1.153967	 -1.577789	 0.406873

	symmetry c1
}
set optking {
	frozen_dihedral = ("
		6 3 5 9
	")
}

ee = optimize('scf')
oeprop('DIPOLE', 'QUADRUPOLE', 'MULLIKEN_CHARGES')
f=open( 'psi4out.xyz', 'w' )
f.write( "13  " )
f.write( str(ee) + "\n" )
f.write( MOL.save_string_xyz() )
f.close()
--------------------------------------------------------------------------

    Molecular point group: c1
  Charge       = 0
  Multiplicity = 1
  Basis Set: 6-31G*
  Basis Set:
  @DF-RHF Final Energy:  -230.98449551207295
    Total Energy =                       -230.9844955120729537
    Molecular point group: c1
  Basis Set: 6-31G*
  Basis Set:
  Basis Set: 6-31G*
  Basis Set:
  @DF-RHF Final Energy:  -230.98451217620848
    Total Energy =                       -230.9845121762085682
  Basis Set: 6-31G*
  Basis Set:
  Basis Set: 6-31G*
  Basis Set:
  @DF-RHF Final Energy:  -230.98427028193393
    Total Energy =                       -230.9842702819338456
  Basis Set: 6-31G*
  Basis Set:
  Basis Set: 6-31G*
  Basis Set:
  @DF-RHF Final Energy:  -230.98453659300998
    Total Energy =                       -230.9845365930099206
  Basis Set: 6-31G*
  Basis Set:
  Basis Set: 6-31G*
  Basis Set:
  @DF-RHF Final Energy:  -230.98454238895096
    Total Energy =                       -230.9845423889509277
  Basis Set: 6-31G*
  Basis Set:
  Charge       = 0
  Multiplicity = 1
  Basis Set: 6-31G*
  Basis Set:

    Orbital Energies (a.u.)
    -----------------------

    Doubly Occupied:

       1A    -20.563018     2A    -11.327176     3A    -11.238896
       4A    -11.235891     5A    -11.221599     6A     -1.402914
       7A     -1.086870     8A     -0.972895     9A     -0.848950
      10A     -0.788103    11A     -0.664771    12A     -0.649119
      13A     -0.628175    14A     -0.595857    15A     -0.558644
      16A     -0.531573    17A     -0.508475    18A     -0.492671
      19A     -0.481492    20A     -0.410607

  @DF-RHF Final Energy:  -230.98454284381936

   => Energetics <=

    Nuclear Repulsion Energy =            173.9178899698080443
    One-Electron Energy =                -657.3894724346689600
    Two-Electron Energy =                 252.4870396210415890
    DFT Exchange-Correlation Energy =       0.0000000000000000
    Empirical Dispersion Energy =           0.0000000000000000
    PCM Polarization Energy =               0.0000000000000000
    EFP Energy =                            0.0000000000000000
    Total Energy =                       -230.9845428438193551
    Molecular point group: c1
  Basis Set: 6-31G*
  Basis Set:

  -Total Gradient:
     Atom            X                  Y                   Z
    ------   -----------------  -----------------  -----------------
       1        0.000008727820     0.000013820665    -0.000000143062
       2       -0.000026594397    -0.000001543785     0.000004848863
       3        0.000467890962    -0.001932640216    -0.000042921775
       4       -0.000012264975    -0.000005336944     0.000000338071
       5        0.000172327520     0.001457799998     0.001289107954
       6       -0.000355011630     0.001384721874    -0.000163795901
       7       -0.000026446652    -0.000000283443     0.000006762921
       8       -0.000006380824    -0.000001190921    -0.000020489719
       9       -0.000212504645    -0.000917513066    -0.001067570924
      10       -0.000006455113    -0.000000868900    -0.000002163663
      11       -0.000016344223    -0.000007218684    -0.000009659383
      12        0.000008187815     0.000000005288     0.000016276394
      13        0.000004868342     0.000010248136    -0.000010589777

  **** Optimization is complete! (in 6 steps) ****
    Final optimized geometry and variables:
    Molecular point group: c1

    Geometry (in Angstrom), charge = 0, multiplicity = 1:

    H            1.163047136163     0.028826022117     1.423754714749
    C            1.137755968124     0.024537157783     0.326943086738
    C            0.076719671381     0.899409449964    -0.289206879290
    O            1.915802862041    -0.632048777937    -0.285658925949
    C           -1.325636063159     0.615980766628     0.268299588217
    H            0.106410788078     0.780033969225    -1.366125119931
    H            0.344372456832     1.931836919106    -0.066694938603
    C           -1.808352643080    -0.810315455364    -0.002647155200
    H           -2.019460320505     1.315767980535    -0.186512661208
    H           -1.340524127375     0.813664921244     1.337496253056
    H           -1.822720490544    -1.019840225108    -1.067813388640
    H           -2.813281095037    -0.956022154929     0.379655270263
    H           -1.167712790371    -1.550558785097     0.467457756093

  Mulliken Charges: (a.u.)
   Center  Symbol    Alpha    Beta     Spin     Total
       1     H     0.43238  0.43238  0.00000  0.13524
       2     C     2.83121  2.83121  0.00000  0.33759
       3     C     3.20787  3.20787  0.00000 -0.41574
       4     O     4.23725  4.23725  0.00000 -0.47451
       5     C     3.16482  3.16482  0.00000 -0.32963
       6     H     0.39984  0.39984  0.00000  0.20032
       7     H     0.40708  0.40708  0.00000  0.18585
       8     C     3.24319  3.24319  0.00000 -0.48639
       9     H     0.41145  0.41145  0.00000  0.17709
      10     H     0.41823  0.41823  0.00000  0.16354
      11     H     0.41503  0.41503  0.00000  0.16994
      12     H     0.41509  0.41509  0.00000  0.16981
      13     H     0.41656  0.41656  0.00000  0.16689

   Total alpha = 20.00000, Total beta = 20.00000, Total charge = -0.00000
