  ==> Input File <==

--------------------------------------------------------------------------
set {
	reference rhf
	basis 6-31G*
}

set_num_threads( 4 )
memory 2 gb

molecule MOL {
0 1

H	 -3.269016	 -0.876744	 0.468090
C	 -2.809304	 0.000122	 0.025886
N	 -1.391456	 0.000019	 0.300661
H	 -3.037557	 -0.000063	 -1.044252
H	 -3.269223	 0.876956	 0.468000
C	 -0.655698	 0.861919	 -0.603538
C	 -0.831875	 -1.337386	 0.305602
H	 -0.744986	 0.525861	 -1.641131
H	 -1.069431	 1.863405	 -0.545108
C	 0.815158	 0.902803	 -0.219505
H	 -1.374125	 -1.939882	 1.027073
H	 -0.932824	 -1.819034	 -0.671810
C	 0.638981	 -1.296502	 0.689636
H	 1.357408	 1.505299	 -0.940975
H	 0.916107	 1.384450	 0.757907
N	 1.374739	 -0.434602	 -0.214564
H	 1.052714	 -2.297988	 0.631205
H	 0.728269	 -0.960444	 1.727228
C	 2.792587	 -0.434706	 0.060210
H	 3.309247	 0.171019	 -0.675950
H	 3.179981	 -1.445219	 -0.007723
H	 3.035901	 -0.043680	 1.052780

	symmetry c1
}
set optking {
	frozen_dihedral = ("
		6 3 2 4
	")
}

ee = optimize('scf')
oeprop('DIPOLE', 'QUADRUPOLE', 'MULLIKEN_CHARGES')
f=open( 'psi4out.xyz', 'w' )
f.write( "22  " )
f.write( str(ee) + "\n" )
f.write( MOL.save_string_xyz() )
f.close()
--------------------------------------------------------------------------

    Molecular point group: c1
  Charge       = 0
  Multiplicity = 1
  Basis Set: 6-31G*
  Basis Set:
  @DF-RHF Final Energy:  -344.22847735269312
    Total Energy =                       -344.2284773526927211
    Molecular point group: c1
  Basis Set: 6-31G*
  Basis Set:
  Basis Set: 6-31G*
  Basis Set:
  @DF-RHF Final Energy:  -344.22865845394540
    Total Energy =                       -344.2286584539452861
  Basis Set: 6-31G*
  Basis Set:
  Basis Set: 6-31G*
  Basis Set:
  @DF-RHF Final Energy:  -344.22867952649676
    Total Energy =                       -344.2286795264967623
  Basis Set: 6-31G*
  Basis Set:
  Charge       = 0
  Multiplicity = 1
  Basis Set: 6-31G*
  Basis Set:

    Orbital Energies (a.u.)
    -----------------------

    Doubly Occupied:

       1A    -15.542097     2A    -15.541715     3A    -11.238702
       4A    -11.238658     5A    -11.238062     6A    -11.238001
       7A    -11.235829     8A    -11.235819     9A     -1.254770
      10A     -1.203599    11A     -1.024237    12A     -0.991467
      13A     -0.911477    14A     -0.866303    15A     -0.835538
      16A     -0.755604    17A     -0.665221    18A     -0.635724
      19A     -0.629851    20A     -0.626004    21A     -0.620569
      22A     -0.580731    23A     -0.550709    24A     -0.545935
      25A     -0.541586    26A     -0.518266    27A     -0.497151
      28A     -0.489695    29A     -0.463864    30A     -0.455019
      31A     -0.350339    32A     -0.345313

  @DF-RHF Final Energy:  -344.22868062098547

   => Energetics <=

    Nuclear Repulsion Energy =            421.3261104517555964
    One-Electron Energy =               -1301.3738661031484298
    Two-Electron Energy =                 535.8190750304077028
    DFT Exchange-Correlation Energy =       0.0000000000000000
    Empirical Dispersion Energy =           0.0000000000000000
    PCM Polarization Energy =               0.0000000000000000
    EFP Energy =                            0.0000000000000000
    Total Energy =                       -344.2286806209851875
    Molecular point group: c1
  Basis Set: 6-31G*
  Basis Set:

  -Total Gradient:
     Atom            X                  Y                   Z
    ------   -----------------  -----------------  -----------------
       1        0.000022025579     0.000001075424     0.000015355410
       2        0.000146924880    -0.007229251539    -0.000802943367
       3       -0.000637768899     0.005095918572     0.003028374636
       4        0.000021353291     0.004809423269    -0.000037528286
       5       -0.000014712325     0.000030387369     0.000000576717
       6        0.000418786781    -0.002813436317    -0.002209347411
       7       -0.000028876824     0.000109499662     0.000033313629
       8       -0.000012845807     0.000004711690    -0.000024902847
       9        0.000008201312    -0.000000229031    -0.000004504502
      10        0.000024682698     0.000024757709     0.000023104402
      11       -0.000011309235     0.000002413501    -0.000006701185
      12        0.000007705267    -0.000001321482     0.000004763240
      13        0.000043179985    -0.000032494385    -0.000003724061
      14        0.000003055070    -0.000004962446    -0.000000875022
      15        0.000016549591     0.000001941129     0.000006953517
      16        0.000001393512    -0.000003194788    -0.000009789652
      17        0.000030500993    -0.000007693813     0.000000141241
      18       -0.000011724531    -0.000000681088    -0.000015577804
      19       -0.000012288027     0.000009285396     0.000009880405
      20       -0.000004886491     0.000003594278    -0.000003317290
      21       -0.000010405033     0.000000901143    -0.000001846105
      22        0.000000458213    -0.000000644252    -0.000001405665

  **** Optimization is complete! (in 4 steps) ****
    Final optimized geometry and variables:
    Molecular point group: c1

    Geometry (in Angstrom), charge = 0, multiplicity = 1:

    H           -3.289635434767    -0.626921074423     0.448853570893
    C           -2.805108638401     0.223018452943    -0.014785487690
    N           -1.384600429276     0.214174961253     0.270219674991
    H           -3.022901858962     0.218500271296    -1.085365300791
    H           -3.253269933620     1.124627097962     0.392777867748
    C           -0.650574552796     1.070432246486    -0.642385682313
    C           -0.820240431074    -1.124309483875     0.255367886678
    H           -0.743963441630     0.722627491774    -1.675261960729
    H           -1.067502910350     2.071737465625    -0.594034776642
    C            0.821000734498     1.120380146704    -0.263739053281
    H           -1.356389200721    -1.737313326682     0.971918140139
    H           -0.919297391628    -1.595872350139    -0.726912605776
    C            0.650825043930    -1.081987823801     0.638938518702
    H            1.357517808903     1.724489680048    -0.988265704325
    H            0.923411188227     1.603957942969     0.712486260000
    N            1.386247918715    -0.214555712735    -0.260241157936
    H            1.066671047750    -2.082440144828     0.576190924969
    H            0.738114552013    -0.750731191290     1.678245648517
    C            2.803084453804    -0.209865970274     0.018496868050
    H            3.319564820108     0.400484380832    -0.714037376849
    H            3.194695957782    -1.218603943054    -0.051860892832
    H            3.042160263149     0.178519860413     1.013149257609

  Mulliken Charges: (a.u.)
   Center  Symbol    Alpha    Beta     Spin     Total
       1     H     0.41786  0.41786  0.00000  0.16428
       2     C     3.14095  3.14095  0.00000 -0.28190
       3     N     3.78601  3.78601  0.00000 -0.57202
       4     H     0.43130  0.43130  0.00000  0.13739
       5     H     0.41583  0.41583  0.00000  0.16834
       6     C     3.05914  3.05914  0.00000 -0.11829
       7     C     3.05839  3.05839  0.00000 -0.11677
       8     H     0.42757  0.42757  0.00000  0.14485
       9     H     0.41752  0.41752  0.00000  0.16495
      10     C     3.05578  3.05578  0.00000 -0.11157
      11     H     0.41774  0.41774  0.00000  0.16452
      12     H     0.42843  0.42843  0.00000  0.14313
      13     C     3.05632  3.05632  0.00000 -0.11264
      14     H     0.41801  0.41801  0.00000  0.16397
      15     H     0.42832  0.42832  0.00000  0.14337
      16     N     3.78703  3.78703  0.00000 -0.57407
      17     H     0.41805  0.41805  0.00000  0.16389
      18     H     0.42839  0.42839  0.00000  0.14323
      19     C     3.14029  3.14029  0.00000 -0.28059
      20     H     0.41683  0.41683  0.00000  0.16635
      21     H     0.41681  0.41681  0.00000  0.16638
      22     H     0.43340  0.43340  0.00000  0.13319

   Total alpha = 32.00000, Total beta = 32.00000, Total charge =  0.00000
