  ==> Input File <==

--------------------------------------------------------------------------
set {
	reference rhf
	basis 6-31G*
}

set_num_threads( 4 )
memory 2 gb

molecule MOL {
0 1

H	 2.591676	 2.013956	 0.335017
O	 3.341076	 1.666752	 -0.126416
C	 3.569581	 0.339145	 0.272707
C	 2.539767	 -0.640285	 -0.279495
H	 4.553106	 0.084646	 -0.100901
H	 3.608576	 0.269204	 1.359154
C	 1.115811	 -0.397273	 0.226630
H	 2.556196	 -0.582511	 -1.364741
H	 2.852081	 -1.648031	 -0.010655
C	 0.559892	 -1.583022	 1.020212
H	 0.466484	 -0.190619	 -0.619558
H	 1.102394	 0.492059	 0.856908
C	 -0.831727	 -1.358688	 1.623046
H	 0.537127	 -2.463091	 0.380049
H	 1.251637	 -1.813891	 1.827608
C	 -1.961419	 -1.212753	 0.599826
H	 -1.061115	 -2.198885	 2.275172
H	 -0.808498	 -0.477822	 2.262868
C	 -3.342274	 -1.096879	 1.248863
H	 -1.951582	 -2.070935	 -0.070650
H	 -1.791676	 -0.337676	 -0.022854
C	 -4.471093	 -0.944654	 0.229912
H	 -3.526525	 -1.976187	 1.862343
H	 -3.351020	 -0.245665	 1.926537
H	 -4.509549	 -1.796819	 -0.442814
H	 -5.436496	 -0.867025	 0.720428
H	 -4.335557	 -0.052890	 -0.375687

	symmetry c1
}
set optking {
	frozen_dihedral = ("
		10 7 4 8
	")
}

ee = optimize('scf')
oeprop('DIPOLE', 'QUADRUPOLE', 'MULLIKEN_CHARGES')
f=open( 'psi4out.xyz', 'w' )
f.write( "27  " )
f.write( str(ee) + "\n" )
f.write( MOL.save_string_xyz() )
f.close()
--------------------------------------------------------------------------

    Molecular point group: c1
  Charge       = 0
  Multiplicity = 1
  Basis Set: 6-31G*
  Basis Set:
  @DF-RHF Final Energy:  -388.27605496313981
    Total Energy =                       -388.2760549631398135
    Molecular point group: c1
  Basis Set: 6-31G*
  Basis Set:
  Basis Set: 6-31G*
  Basis Set:
  @DF-RHF Final Energy:  -388.27635512704433
    Total Energy =                       -388.2763551270434164
  Basis Set: 6-31G*
  Basis Set:
  Basis Set: 6-31G*
  Basis Set:
  @DF-RHF Final Energy:  -388.27650512519045
    Total Energy =                       -388.2765051251903969
  Basis Set: 6-31G*
  Basis Set:
  Basis Set: 6-31G*
  Basis Set:
  @DF-RHF Final Energy:  -388.27651301044313
    Total Energy =                       -388.2765130104426134
  Basis Set: 6-31G*
  Basis Set:
  Basis Set: 6-31G*
  Basis Set:
  @DF-RHF Final Energy:  -388.27650307035844
    Total Energy =                       -388.2765030703584443
  Basis Set: 6-31G*
  Basis Set:
  Basis Set: 6-31G*
  Basis Set:
  @DF-RHF Final Energy:  -388.27651424542529
    Total Energy =                       -388.2765142454253464
  Basis Set: 6-31G*
  Basis Set:
  Charge       = 0
  Multiplicity = 1
  Basis Set: 6-31G*
  Basis Set:

    Orbital Energies (a.u.)
    -----------------------

    Doubly Occupied:

       1A    -20.551274     2A    -11.266795     3A    -11.221777
       4A    -11.219328     5A    -11.216826     6A    -11.216700
       7A    -11.215718     8A    -11.215080     9A    -11.209830
      10A     -1.358421    11A     -1.095642    12A     -1.060885
      13A     -1.011349    14A     -0.948631    15A     -0.889193
      16A     -0.822937    17A     -0.801988    18A     -0.779167
      19A     -0.695754    20A     -0.647946    21A     -0.628922
      22A     -0.619902    23A     -0.606357    24A     -0.585241
      25A     -0.575290    26A     -0.556726    27A     -0.542522
      28A     -0.525298    29A     -0.511596    30A     -0.497406
      31A     -0.485219    32A     -0.475718    33A     -0.468792
      34A     -0.462050    35A     -0.447699    36A     -0.439749
      37A     -0.425429

  @DF-RHF Final Energy:  -388.27651462208280

   => Energetics <=

    Nuclear Repulsion Energy =            458.5661943300891608
    One-Electron Energy =               -1435.0871094660401468
    Two-Electron Energy =                 588.2444005138677312
    DFT Exchange-Correlation Energy =       0.0000000000000000
    Empirical Dispersion Energy =           0.0000000000000000
    PCM Polarization Energy =               0.0000000000000000
    EFP Energy =                            0.0000000000000000
    Total Energy =                       -388.2765146220832548
    Molecular point group: c1
  Basis Set: 6-31G*
  Basis Set:

  -Total Gradient:
     Atom            X                  Y                   Z
    ------   -----------------  -----------------  -----------------
       1       -0.000027905596     0.000030466945    -0.000005987835
       2       -0.000055038420     0.000004515628     0.000069199105
       3        0.000119350939    -0.000079133932    -0.000122942635
       4       -0.000049827967    -0.000361513311     0.000095069564
       5        0.000033439522    -0.000019694096     0.000020508742
       6       -0.000031497077     0.000023423388    -0.000025642124
       7       -0.000109095485    -0.000020389551    -0.000253800953
       8        0.000089914840     0.000322016422     0.000032830710
       9        0.000011416149     0.000020076423     0.000002441738
      10        0.000055097818     0.000104559515     0.000173698829
      11       -0.000021923694    -0.000016220825     0.000002995878
      12       -0.000007120773     0.000002734601     0.000004315210
      13        0.000006441578     0.000003086511     0.000012434518
      14       -0.000006723799    -0.000001981842    -0.000000595375
      15       -0.000003804662     0.000004035166    -0.000002475244
      16        0.000000173467    -0.000011340005    -0.000002399186
      17       -0.000000382386     0.000001430944     0.000000832497
      18        0.000002803108     0.000001235420     0.000001448418
      19        0.000000930784    -0.000004977617     0.000000342426
      20       -0.000001836607    -0.000003174946    -0.000001360507
      21       -0.000004768571    -0.000003909334     0.000000039601
      22        0.000000812629     0.000006341383     0.000000127235
      23       -0.000001939763    -0.000001459617    -0.000003684133
      24        0.000001182757    -0.000002575344     0.000002358655
      25        0.000000557957    -0.000000081050     0.000002324577
      26        0.000000176246     0.000002253362     0.000000097933
      27       -0.000000432994     0.000000275763    -0.000002177641

  **** Optimization is complete! (in 7 steps) ****
    Final optimized geometry and variables:
    Molecular point group: c1

    Geometry (in Angstrom), charge = 0, multiplicity = 1:

    H            2.475862553001     2.541784106677    -0.327995635972
    O            3.284593213546     2.202260558291    -0.683905971477
    C            3.483064198900     0.885483435929    -0.237974162653
    C            2.455729324557    -0.092635144393    -0.796531740589
    H            4.474703402252     0.610033405901    -0.573076265783
    H            3.485149613663     0.847039698480     0.851031258679
    C            1.016777709748     0.142313146332    -0.281342500413
    H            2.486045728279    -0.020415198608    -1.878973452153
    H            2.776829472102    -1.100372104629    -0.542963132775
    C            0.454122806953    -1.052781609326     0.495339468163
    H            0.364335648560     0.380594864724    -1.114031616806
    H            0.989910985283     1.012902896935     0.374376981282
    C           -0.936853344127    -0.833047410980     1.099972617941
    H            0.430216211938    -1.923369760524    -0.157952201916
    H            1.145762804040    -1.297675499301     1.299162969203
    C           -2.066071543060    -0.674727998854     0.077939257741
    H           -1.167529520869    -1.679645992289     1.743298697815
    H           -0.912761423137     0.041003364371     1.749284824596
    C           -3.446781623899    -0.563024876729     0.728056377476
    H           -2.057652822267    -1.526545555593    -0.600691722113
    H           -1.894744674403     0.205983159557    -0.536089663425
    C           -4.575131197672    -0.398846062859    -0.289529664117
    H           -3.632584144152    -1.447979947163     1.332906226019
    H           -3.454217543833     0.281582559170     1.413954128670
    H           -4.615260471092    -1.244589841496    -0.970223024713
    H           -5.540384724662    -0.323974396501     0.201666396202
    H           -4.437662635267     0.498310262262    -0.886598730214

  Mulliken Charges: (a.u.)
   Center  Symbol    Alpha    Beta     Spin     Total
       1     H     0.27986  0.27986  0.00000  0.44027
       2     O     4.37159  4.37159  0.00000 -0.74318
       3     C     2.99816  2.99816  0.00000  0.00368
       4     C     3.16594  3.16594  0.00000 -0.33188
       5     H     0.41516  0.41516  0.00000  0.16968
       6     H     0.43227  0.43227  0.00000  0.13546
       7     C     3.16234  3.16234  0.00000 -0.32468
       8     H     0.41191  0.41191  0.00000  0.17619
       9     H     0.42022  0.42022  0.00000  0.15955
      10     C     3.15508  3.15508  0.00000 -0.31015
      11     H     0.41355  0.41355  0.00000  0.17289
      12     H     0.43232  0.43232  0.00000  0.13536
      13     C     3.15429  3.15429  0.00000 -0.30859
      14     H     0.42153  0.42153  0.00000  0.15693
      15     H     0.42185  0.42185  0.00000  0.15630
      16     C     3.15265  3.15265  0.00000 -0.30531
      17     H     0.42101  0.42101  0.00000  0.15798
      18     H     0.42447  0.42447  0.00000  0.15106
      19     C     3.15120  3.15120  0.00000 -0.30241
      20     H     0.42395  0.42395  0.00000  0.15210
      21     H     0.42261  0.42261  0.00000  0.15478
      22     C     3.23925  3.23925  0.00000 -0.47849
      23     H     0.42291  0.42291  0.00000  0.15419
      24     H     0.42323  0.42323  0.00000  0.15355
      25     H     0.42161  0.42161  0.00000  0.15677
      26     H     0.41913  0.41913  0.00000  0.16173
      27     H     0.42188  0.42188  0.00000  0.15623

   Total alpha = 37.00000, Total beta = 37.00000, Total charge =  0.00000
