  ==> Input File <==

--------------------------------------------------------------------------
set {
	reference rhf
	basis 6-31G*
}

set_num_threads( 1 )
memory 2 gb

molecule MOL {
0 1

O	 -2.324561	 1.361987	 -0.277663
C	 -2.105885	 0.203427	 -0.092314
C	 -0.889235	 -0.467034	 -0.705952
C	 -3.002843	 -0.643787	 0.782369
C	 0.379448	 -0.143569	 0.099626
H	 -0.781422	 -0.090588	 -1.717371
H	 -1.031446	 -1.542684	 -0.758670
C	 1.631333	 -0.777471	 -0.511575
H	 0.482768	 0.934507	 0.149241
H	 0.263088	 -0.495696	 1.123449
C	 2.915987	 -0.544314	 0.291766
H	 1.766672	 -0.399098	 -1.523130
H	 1.471257	 -1.849544	 -0.605828
C	 3.373361	 0.914346	 0.347591
H	 3.708709	 -1.142521	 -0.150311
H	 2.780642	 -0.921148	 1.303579
H	 3.506512	 1.320010	 -0.651625
H	 4.322697	 0.999599	 0.867103
H	 2.660624	 1.545032	 0.868198
H	 -3.496776	 -1.398703	 0.176238
H	 -3.747991	 -0.022874	 1.259869
H	 -2.421560	 -1.168010	 1.535432

	symmetry c1
}
set optking {
	frozen_dihedral = ("
		6 3 2 1,
		3 5 8 12,
		12 8 11 15
	")
}

ee = energy('scf')
oeprop('DIPOLE', 'QUADRUPOLE', 'MULLIKEN_CHARGES')
f=open( 'psi4out.xyz', 'w' )
f.write( "22  " )
f.write( str(ee) + "\n" )
f.write( MOL.save_string_xyz() )
f.close()
--------------------------------------------------------------------------

    Molecular point group: c1

    Geometry (in Angstrom), charge = 0, multiplicity = 1:

       Center              X                  Y                   Z               Mass
    ------------   -----------------  -----------------  -----------------  -----------------
           O         -2.324585732711     1.361818641567    -0.277556002817    15.994914619560
           C         -2.105909732711     0.203258641567    -0.092207002817    12.000000000000
           C         -0.889259732711    -0.467202358433    -0.705845002817    12.000000000000
           C         -3.002867732711    -0.643955358433     0.782475997183    12.000000000000
           C          0.379423267289    -0.143737358433     0.099732997183    12.000000000000
           H         -0.781446732711    -0.090756358433    -1.717264002817     1.007825032070
           H         -1.031470732711    -1.542852358433    -0.758563002817     1.007825032070
           C          1.631308267289    -0.777639358433    -0.511468002817    12.000000000000
           H          0.482743267289     0.934338641567     0.149347997183     1.007825032070
           H          0.263063267289    -0.495864358433     1.123555997183     1.007825032070
           C          2.915962267289    -0.544482358433     0.291872997183    12.000000000000
           H          1.766647267289    -0.399266358433    -1.523023002817     1.007825032070
           H          1.471232267289    -1.849712358433    -0.605721002817     1.007825032070
           C          3.373336267289     0.914177641567     0.347697997183    12.000000000000
           H          3.708684267289    -1.142689358433    -0.150204002817     1.007825032070
           H          2.780617267289    -0.921316358433     1.303685997183     1.007825032070
           H          3.506487267289     1.319841641567    -0.651518002817     1.007825032070
           H          4.322672267289     0.999430641567     0.867209997183     1.007825032070
           H          2.660599267289     1.544863641567     0.868304997183     1.007825032070
           H         -3.496800732711    -1.398871358433     0.176344997183     1.007825032070
           H         -3.748015732711    -0.023042358433     1.259975997183     1.007825032070
           H         -2.421584732711    -1.168178358433     1.535538997183     1.007825032070

  Charge       = 0
  Multiplicity = 1
  Basis Set: 6-31G*
  Basis Set:

    Orbital Energies (a.u.)
    -----------------------

    Doubly Occupied:

       1A    -20.547324     2A    -11.324496     3A    -11.229574
       4A    -11.228997     5A    -11.228227     6A    -11.222370
       7A    -11.220637     8A    -11.211082     9A     -1.393083
      10A     -1.095644    11A     -1.044245    12A     -0.999493
      13A     -0.937685    14A     -0.857607    15A     -0.786474
      16A     -0.732923    17A     -0.662764    18A     -0.643697
      19A     -0.625926    20A     -0.620679    21A     -0.596725
      22A     -0.583079    23A     -0.562814    24A     -0.541151
      25A     -0.534489    26A     -0.519394    27A     -0.497820
      28A     -0.488023    29A     -0.470784    30A     -0.464133
      31A     -0.459721    32A     -0.396250

  @DF-RHF Final Energy:  -348.09833231306590

   => Energetics <=

    Nuclear Repulsion Energy =            372.9703727570772003
    One-Electron Energy =               -1210.6824218632618795
    Two-Electron Energy =                 489.6137167931182717
    DFT Exchange-Correlation Energy =       0.0000000000000000
    Empirical Dispersion Energy =           0.0000000000000000
    PCM Polarization Energy =               0.0000000000000000
    EFP Energy =                            0.0000000000000000
    Total Energy =                       -348.0983323130663507

  Mulliken Charges: (a.u.)
   Center  Symbol    Alpha    Beta     Spin     Total
       1     O     4.26245  4.26245  0.00000 -0.52491
       2     C     2.73718  2.73718  0.00000  0.52565
       3     C     3.19957  3.19957  0.00000 -0.39913
       4     C     3.28953  3.28953  0.00000 -0.57907
       5     C     3.16404  3.16404  0.00000 -0.32808
       6     H     0.40120  0.40120  0.00000  0.19761
       7     H     0.41701  0.41701  0.00000  0.16597
       8     C     3.15260  3.15260  0.00000 -0.30520
       9     H     0.40356  0.40356  0.00000  0.19287
      10     H     0.42138  0.42138  0.00000  0.15724
      11     C     3.15333  3.15333  0.00000 -0.30666
      12     H     0.42059  0.42059  0.00000  0.15881
      13     H     0.42193  0.42193  0.00000  0.15614
      14     C     3.24207  3.24207  0.00000 -0.48413
      15     H     0.41956  0.41956  0.00000  0.16088
      16     H     0.42301  0.42301  0.00000  0.15398
      17     H     0.42074  0.42074  0.00000  0.15851
      18     H     0.41825  0.41825  0.00000  0.16349
      19     H     0.41830  0.41830  0.00000  0.16340
      20     H     0.40691  0.40691  0.00000  0.18618
      21     H     0.39708  0.39708  0.00000  0.20584
      22     H     0.40970  0.40970  0.00000  0.18059

   Total alpha = 32.00000, Total beta = 32.00000, Total charge =  0.00000
