  ==> Input File <==

--------------------------------------------------------------------------
set {
	reference rhf
	basis 6-31G*
}

set_num_threads( 4 )
memory 2 gb

molecule MOL {
0 1

O	 -1.276010	 1.052711	 -0.768302
C	 -1.204840	 0.067374	 -0.106123
C	 -2.388195	 -0.672128	 0.458071
O	 -0.067104	 -0.527208	 0.221609
H	 -2.388023	 -1.694060	 0.097175
H	 -3.300579	 -0.174919	 0.164318
H	 -2.315377	 -0.706351	 1.539059
C	 1.170111	 0.034140	 -0.238951
C	 0.791083	 1.138969	 -1.209146
C	 2.021388	 -1.052594	 -0.876904
H	 1.685379	 0.447383	 0.615587
H	 0.172855	 1.882925	 -0.719687
H	 1.683411	 1.628424	 -1.585334
H	 0.239239	 0.736602	 -2.051893
H	 2.949483	 -0.629757	 -1.248205
H	 2.265713	 -1.821955	 -0.155542
H	 1.494810	 -1.506283	 -1.710505

	symmetry c1
}
set optking {
	frozen_dihedral = ("
		11 8 4 2
	")
}

ee = optimize('scf')
oeprop('DIPOLE', 'QUADRUPOLE', 'MULLIKEN_CHARGES')
f=open( 'psi4out.xyz', 'w' )
f.write( "17  " )
f.write( str(ee) + "\n" )
f.write( MOL.save_string_xyz() )
f.close()
--------------------------------------------------------------------------

    Molecular point group: c1
  Charge       = 0
  Multiplicity = 1
  Basis Set: 6-31G*
  Basis Set:
  @DF-RHF Final Energy:  -344.84283214900557
    Total Energy =                       -344.8428321490052895
    Molecular point group: c1
  Basis Set: 6-31G*
  Basis Set:
  Basis Set: 6-31G*
  Basis Set:
  @DF-RHF Final Energy:  -344.88684470813070
    Total Energy =                       -344.8868447081308659
  Basis Set: 6-31G*
  Basis Set:
  Basis Set: 6-31G*
  Basis Set:
  @DF-RHF Final Energy:  -344.89740808443912
    Total Energy =                       -344.8974080844390642
  Basis Set: 6-31G*
  Basis Set:
  Basis Set: 6-31G*
  Basis Set:
  @DF-RHF Final Energy:  -344.89898968204614
    Total Energy =                       -344.8989896820464764
  Basis Set: 6-31G*
  Basis Set:
  @DF-RHF Final Energy:  -344.90206510079230
    Total Energy =                       -344.9020651007920151
  @DF-RHF Final Energy:  -344.90314402811998
    Total Energy =                       -344.9031440281199821
  Basis Set: 6-31G*
  Basis Set:
  @DF-RHF Final Energy:  -344.90324361556986
    Total Energy =                       -344.9032436155698633
  Basis Set: 6-31G*
  Basis Set:
  Basis Set: 6-31G*
  Basis Set:
  @DF-RHF Final Energy:  -344.90326884834229
    Total Energy =                       -344.9032688483426909
  Basis Set: 6-31G*
  Basis Set:
  Basis Set: 6-31G*
  Basis Set:
  @DF-RHF Final Energy:  -344.90327663687941
    Total Energy =                       -344.9032766368795819
  Basis Set: 6-31G*
  Basis Set:
  Charge       = 0
  Multiplicity = 1
  Basis Set: 6-31G*
  Basis Set:

    Orbital Energies (a.u.)
    -----------------------

    Doubly Occupied:

       1A    -20.596254     2A    -20.538864     3A    -11.375126
       4A    -11.297696     5A    -11.229348     6A    -11.219971
       7A    -11.212773     8A     -1.458179     9A     -1.361021
      10A     -1.080525    11A     -1.002033    12A     -0.945917
      13A     -0.862993    14A     -0.743137    15A     -0.686196
      16A     -0.678999    17A     -0.655807    18A     -0.612754
      19A     -0.585140    20A     -0.579234    21A     -0.558610
      22A     -0.547432    23A     -0.539479    24A     -0.515276
      25A     -0.505212    26A     -0.484498    27A     -0.438333
      28A     -0.427581

  @DF-RHF Final Energy:  -344.90327746271419

   => Energetics <=

    Nuclear Repulsion Energy =            323.3328318246349227
    One-Electron Energy =               -1110.9954425325436205
    Two-Electron Energy =                 442.7593332451945116
    DFT Exchange-Correlation Energy =       0.0000000000000000
    Empirical Dispersion Energy =           0.0000000000000000
    PCM Polarization Energy =               0.0000000000000000
    EFP Energy =                            0.0000000000000000
    Total Energy =                       -344.9032774627141862
    Molecular point group: c1
  Basis Set: 6-31G*
  Basis Set:

  -Total Gradient:
     Atom            X                  Y                   Z
    ------   -----------------  -----------------  -----------------
       1        0.000039935458     0.000030980892     0.000025209250
       2       -0.000232675290    -0.001380635957    -0.002068120270
       3       -0.000010831098    -0.000030265291    -0.000051594892
       4        0.000488152550     0.001727315082     0.003264129916
       5        0.000003348978    -0.000005080721     0.000019388422
       6        0.000008332632     0.000005269082     0.000007935267
       7       -0.000004946095     0.000010366354     0.000024793456
       8       -0.001425367758     0.001859623026    -0.001542349524
       9        0.000051489513     0.000007422490     0.000012672042
      10        0.000018345230     0.000021183043     0.000016737938
      11        0.001110686030    -0.002214404143     0.000336132696
      12       -0.000017534509    -0.000026349325    -0.000010882670
      13       -0.000023612517     0.000006373836    -0.000001140513
      14       -0.000014474919     0.000000127727    -0.000023780891
      15        0.000013086548    -0.000009085857    -0.000007599492
      16       -0.000001017924    -0.000000312319    -0.000003442088
      17       -0.000002916824    -0.000002527921     0.000001911354

  **** Optimization is complete! (in 10 steps) ****
    Final optimized geometry and variables:
    Molecular point group: c1

    Geometry (in Angstrom), charge = 0, multiplicity = 1:

    O           -1.416384724974     1.069011191061    -0.226215099212
    C           -1.145972321916     0.044350915623     0.310017411779
    C           -2.171495330983    -0.901149783095     0.882960428674
    O            0.072548090614    -0.432852486664     0.510089184761
    H           -2.080428774750    -1.872488562751     0.410878912097
    H           -3.161436680251    -0.501255138562     0.721247246923
    H           -1.993843814326    -1.034461448173     1.943868201481
    C            1.321084902207     0.109787286483     0.038922685654
    C            1.247107466486     1.215554317523    -1.005575695313
    C            2.102092410377    -1.094163399289    -0.470087339520
    H            1.812704799931     0.483779285343     0.928955443038
    H            0.767704657988     2.106385184169    -0.632862490969
    H            2.266729864169     1.460232899406    -1.288694048038
    H            0.717673557767     0.890978818737    -1.892723828775
    H            3.118848026422    -0.807074434016    -0.717130526115
    H            2.137719845403    -1.871427974164     0.284001177595
    H            1.634229341470    -1.501810865353    -1.360389396353

  Mulliken Charges: (a.u.)
   Center  Symbol    Alpha    Beta     Spin     Total
       1     O     4.28247  4.28247  0.00000 -0.56494
       2     C     2.61878  2.61878  0.00000  0.76244
       3     C     3.27995  3.27995  0.00000 -0.55990
       4     O     4.32278  4.32278  0.00000 -0.64557
       5     H     0.40261  0.40261  0.00000  0.19478
       6     H     0.39846  0.39846  0.00000  0.20308
       7     H     0.40158  0.40158  0.00000  0.19685
       8     C     2.91381  2.91381  0.00000  0.17238
       9     C     3.24874  3.24874  0.00000 -0.49749
      10     C     3.24196  3.24196  0.00000 -0.48392
      11     H     0.41342  0.41342  0.00000  0.17316
      12     H     0.39633  0.39633  0.00000  0.20734
      13     H     0.42207  0.42207  0.00000  0.15587
      14     H     0.41201  0.41201  0.00000  0.17599
      15     H     0.41862  0.41862  0.00000  0.16277
      16     H     0.41033  0.41033  0.00000  0.17934
      17     H     0.41609  0.41609  0.00000  0.16782

   Total alpha = 28.00000, Total beta = 28.00000, Total charge = -0.00000
