  ==> Input File <==

--------------------------------------------------------------------------
set {
	reference rhf
	basis cc-pvtz
}

set_num_threads( 4 )
memory 2 gb

molecule MOL {
0 1

O	 1.847685	 1.294399	 -0.000190
C	 1.704209	 0.119472	 -0.000093
C	 0.380337	 -0.600947	 -0.000234
O	 2.715427	 -0.733672	 0.000025
C	 -0.824290	 0.329213	 -0.000115
H	 0.371455	 -1.255476	 -0.865660
H	 0.371410	 -1.255787	 0.864952
C	 -2.146151	 -0.432825	 -0.000068
H	 -0.773936	 0.979158	 -0.866319
H	 -0.773838	 0.979034	 0.866186
C	 -3.366283	 0.483552	 0.000557
H	 -2.189286	 -1.084450	 -0.869996
H	 -2.188867	 -1.085083	 0.869399
C	 -3.782265	 0.926255	 1.399265
H	 -4.197283	 -0.026669	 -0.478265
H	 -3.156579	 1.359101	 -0.607388
H	 -4.032030	 0.073551	 2.021959
H	 -4.650175	 1.574486	 1.363726
H	 -2.983244	 1.470623	 1.891671
C	 4.020999	 -0.192556	 0.000019
H	 4.182809	 0.412891	 -0.879449
H	 4.692590	 -1.035653	 0.000152
H	 4.182726	 0.413087	 0.879368

	symmetry c1
}
set optking {
	frozen_dihedral = ("
		15 11 8 12
	")
}

ee = optimize('scf')
oeprop('DIPOLE', 'QUADRUPOLE', 'MULLIKEN_CHARGES')
f=open( 'psi4out.xyz', 'w' )
f.write( "23  " )
f.write( str(ee) + "\n" )
f.write( MOL.save_string_xyz() )
f.close()
--------------------------------------------------------------------------

    Molecular point group: c1
  Charge       = 0
  Multiplicity = 1
  Basis Set: CC-PVTZ
  Basis Set:
  @DF-RHF Final Energy:  -423.12815282719703
    Total Energy =                       -423.1281528271972547
    Molecular point group: c1
  Basis Set: CC-PVTZ
  Basis Set:
  Basis Set: CC-PVTZ
  Basis Set:
  @DF-RHF Final Energy:  -423.12833363998311
    Total Energy =                       -423.1283336399828841
  Basis Set: CC-PVTZ
  Basis Set:
  Basis Set: CC-PVTZ
  Basis Set:
  @DF-RHF Final Energy:  -423.12837500797218
    Total Energy =                       -423.1283750079717265
  Basis Set: CC-PVTZ
  Basis Set:
  Basis Set: CC-PVTZ
  Basis Set:
  @DF-RHF Final Energy:  -423.12828673313680
    Total Energy =                       -423.1282867331365196
  Basis Set: CC-PVTZ
  Basis Set:
  Basis Set: CC-PVTZ
  Basis Set:
  @DF-RHF Final Energy:  -423.12837754767241
    Total Energy =                       -423.1283775476723577
  Basis Set: CC-PVTZ
  Basis Set:
  Charge       = 0
  Multiplicity = 1
  Basis Set: CC-PVTZ
  Basis Set:

    Orbital Energies (a.u.)
    -----------------------

    Doubly Occupied:

       1A    -20.596350     2A    -20.534177     3A    -11.364620
       4A    -11.278508     5A    -11.233744     6A    -11.217263
       7A    -11.215764     8A    -11.214499     9A    -11.207170
      10A     -1.472247    11A     -1.365816    12A     -1.094046
      13A     -1.043364    14A     -0.986832    15A     -0.932146
      16A     -0.852338    17A     -0.789060    18A     -0.769573
      19A     -0.698942    20A     -0.686564    21A     -0.676047
      22A     -0.643191    23A     -0.616627    24A     -0.598064
      25A     -0.587480    26A     -0.563751    27A     -0.534609
      28A     -0.531558    29A     -0.523076    30A     -0.508831
      31A     -0.493825    32A     -0.467626    33A     -0.463562
      34A     -0.461761    35A     -0.456417    36A     -0.438516

  @DF-RHF Final Energy:  -423.12837775189615

   => Energetics <=

    Nuclear Repulsion Energy =            456.6695252222975228
    One-Electron Energy =               -1481.3598805827355136
    Two-Electron Energy =                 601.5619776085416106
    DFT Exchange-Correlation Energy =       0.0000000000000000
    Empirical Dispersion Energy =           0.0000000000000000
    PCM Polarization Energy =               0.0000000000000000
    EFP Energy =                            0.0000000000000000
    Total Energy =                       -423.1283777518963234
    Molecular point group: c1
  Basis Set: CC-PVTZ
  Basis Set:

  -Total Gradient:
     Atom            X                  Y                   Z
    ------   -----------------  -----------------  -----------------
       1        0.000001102998    -0.000003964164    -0.000002270067
       2        0.000001230552     0.000003190725    -0.000016271434
       3       -0.000017315400    -0.000002891794     0.000045233609
       4        0.000004153454     0.000000471724     0.000014771514
       5        0.000007033432     0.000016089198    -0.000026383202
       6        0.000002219618     0.000005131546    -0.000011207474
       7        0.000003411558    -0.000007826083    -0.000012744817
       8        0.001867642690     0.002661545476    -0.002438320739
       9       -0.000006351311    -0.000005269947     0.000003376970
      10       -0.000006733444    -0.000001099353     0.000001977837
      11       -0.001223440742    -0.001812576276     0.003435697790
      12       -0.001379161051    -0.001938761175     0.001500165325
      13       -0.000005399718     0.000004263048     0.000002729689
      14        0.000007580443    -0.000002285436     0.000016565426
      15        0.000729349966     0.001091723242    -0.002492237658
      16        0.000009231466    -0.000004462886     0.000005020710
      17        0.000003899854    -0.000002142798    -0.000008620638
      18       -0.000001849503     0.000001174569    -0.000008456204
      19        0.000000854043    -0.000001831803    -0.000006056300
      20        0.000002267063    -0.000000402872    -0.000003107143
      21        0.000000209369     0.000000002561     0.000000080489
      22        0.000000523254     0.000000194670     0.000000124252
      23       -0.000000458600    -0.000000272171    -0.000000067936

  **** Optimization is complete! (in 6 steps) ****
    Final optimized geometry and variables:
    Molecular point group: c1

    Geometry (in Angstrom), charge = 0, multiplicity = 1:

    O            1.746728041128     1.155534243643    -0.169321714325
    C            1.601562380608    -0.019216303253    -0.161795134545
    C            0.276620020561    -0.737584849666    -0.160231056492
    O            2.611607184717    -0.873694202979    -0.152660056219
    C           -0.926157041833     0.194707304316    -0.177875312662
    H            0.270753836310    -1.402780471105    -1.017543093082
    H            0.262300897396    -1.381524771581     0.712990174791
    C           -2.248458843839    -0.567643174419    -0.185711668792
    H           -0.869366950292     0.834745927849    -1.050854767097
    H           -0.877113815257     0.853150271223     0.681145503165
    C           -3.486292801949     0.336539524561    -0.148591707395
    H           -2.296400712531    -1.209496904220    -1.060759688801
    H           -2.280025695024    -1.243133113848     0.666890482357
    C           -3.883877193157     0.788838029621     1.253047928260
    H           -4.319697095169    -0.176829753028    -0.616678487536
    H           -3.303272507272     1.210669770170    -0.767936825161
    H           -4.140318807306    -0.060735799185     1.877150828781
    H           -4.744598563466     1.446885462122     1.220386312198
    H           -3.079534294943     1.326894281497     1.741948036079
    C            3.917884461044    -0.334448100075    -0.151917935929
    H            4.083528280598     0.264964240556    -1.034813259989
    H            4.588317599216    -1.178447371265    -0.144020228327
    H            4.077668848690     0.276755939007     0.723947782324

  Mulliken Charges: (a.u.)
   Center  Symbol    Alpha    Beta     Spin     Total
       1     O     4.19712  4.19712  0.00000 -0.39424
       2     C     2.80616  2.80616  0.00000  0.38767
       3     C     3.10213  3.10213  0.00000 -0.20425
       4     O     4.14644  4.14644  0.00000 -0.29288
       5     C     3.08417  3.08417  0.00000 -0.16834
       6     H     0.43957  0.43957  0.00000  0.12087
       7     H     0.43967  0.43967  0.00000  0.12065
       8     C     3.09759  3.09759  0.00000 -0.19519
       9     H     0.44613  0.44613  0.00000  0.10775
      10     H     0.44545  0.44545  0.00000  0.10911
      11     C     3.09061  3.09061  0.00000 -0.18122
      12     H     0.44846  0.44846  0.00000  0.10308
      13     H     0.45722  0.45722  0.00000  0.08556
      14     C     3.14814  3.14814  0.00000 -0.29629
      15     H     0.44769  0.44769  0.00000  0.10462
      16     H     0.45470  0.45470  0.00000  0.09060
      17     H     0.45572  0.45572  0.00000  0.08856
      18     H     0.44755  0.44755  0.00000  0.10489
      19     H     0.45371  0.45371  0.00000  0.09259
      20     C     3.03775  3.03775  0.00000 -0.07550
      21     H     0.45435  0.45435  0.00000  0.09130
      22     H     0.44533  0.44533  0.00000  0.10935
      23     H     0.45434  0.45434  0.00000  0.09131

   Total alpha = 36.00000, Total beta = 36.00000, Total charge =  0.00000
