                              Psi4 1.0.54 Driver

  ==> Input File <==

--------------------------------------------------------------------------
set {
	reference rhf
	basis cc-pvtz
}

set_num_threads( 4 )
memory 2 gb

molecule MOL {
0 1

O	 -2.440701	 -0.934798	 -0.415053
C	 -1.922978	 0.063265	 -0.045005
C	 -2.632749	 1.372204	 0.158357
O	 -0.637375	 0.157174	 0.243149
H	 -2.187724	 2.129143	 -0.474664
H	 -3.677681	 1.257276	 -0.079438
H	 -2.516788	 1.693160	 1.185542
C	 0.162530	 -1.009518	 0.097799
C	 1.587210	 -0.664190	 0.477086
H	 0.096803	 -1.356267	 -0.924704
H	 -0.233803	 -1.785900	 0.736810
C	 2.256770	 0.342732	 -0.454344
H	 2.154716	 -1.590834	 0.479041
H	 1.598751	 -0.289614	 1.496104
C	 1.643528	 1.735346	 -0.353453
H	 3.316204	 0.396750	 -0.218169
H	 2.186553	 -0.011000	 -1.476492
H	 2.139436	 2.430190	 -1.021024
H	 1.725518	 2.129415	 0.654208
H	 0.591036	 1.719029	 -0.616153

	symmetry c1
}
set optking {
	frozen_dihedral = ("
		16 12 9 8
	")
}

ee,wfn = optimize('scf', return_wfn=True)
oeprop( wfn, 'DIPOLE', 'QUADRUPOLE', 'MULLIKEN_CHARGES')
f=open( 'psi4out.xyz', 'w' )
f.write( "20  " )
f.write( str(ee) + "\n" )
f.write( MOL.save_string_xyz() )
f.close()
--------------------------------------------------------------------------

    Molecular point group: c1
  Charge       = 0
  Multiplicity = 1
  Basis Set: CC-PVTZ
  Basis Set:
  @DF-RHF Final Energy:  -384.08041430120670
    Total Energy =                       -384.0804143012062468
    Molecular point group: c1
  Basis Set: CC-PVTZ
  Basis Set:
  Basis Set: CC-PVTZ
  Basis Set:
  @DF-RHF Final Energy:  -384.06871130204530
    Total Energy =                       -384.0687113020454717
  Basis Set: CC-PVTZ
  Basis Set:
  Basis Set: CC-PVTZ
  Basis Set:
  @DF-RHF Final Energy:  -384.08403199208800
    Total Energy =                       -384.0840319920880575
  Basis Set: CC-PVTZ
  Basis Set:
  Basis Set: CC-PVTZ
  Basis Set:
  @DF-RHF Final Energy:  -384.08424098584561
    Total Energy =                       -384.0842409858456676
  Basis Set: CC-PVTZ
  Basis Set:
  Basis Set: CC-PVTZ
  Basis Set:
  @DF-RHF Final Energy:  -384.08327202897823
    Total Energy =                       -384.0832720289780582
  Basis Set: CC-PVTZ
  Basis Set:
  Basis Set: CC-PVTZ
  Basis Set:
  @DF-RHF Final Energy:  -384.08433694822338
    Total Energy =                       -384.0843369482233811
  Basis Set: CC-PVTZ
  Basis Set:
  Basis Set: CC-PVTZ
  Basis Set:
  @DF-RHF Final Energy:  -384.08435190227914
    Total Energy =                       -384.0843519022796499
  Basis Set: CC-PVTZ
  Basis Set:
  Charge       = 0
  Multiplicity = 1
  Basis Set: CC-PVTZ
  Basis Set:

    Orbital Energies (a.u.)
    -----------------------

    Doubly Occupied:

       1A    -20.594285     2A    -20.532939     3A    -11.366850
       4A    -11.280652     5A    -11.231832     6A    -11.224570
       7A    -11.220892     8A    -11.207337     9A     -1.471253
      10A     -1.365340    11A     -1.085387    12A     -1.027974
      13A     -0.980792    14A     -0.890105    15A     -0.800754
      16A     -0.780089    17A     -0.693607    18A     -0.689625
      19A     -0.669612    20A     -0.621802    21A     -0.605240
      22A     -0.592251    23A     -0.575200    24A     -0.556635
      25A     -0.545638    26A     -0.533864    27A     -0.512659
      28A     -0.482766    29A     -0.476304    30A     -0.470529
      31A     -0.449164    32A     -0.441473

  @DF-RHF Final Energy:  -384.08435279865142

   => Energetics <=

    Nuclear Repulsion Energy =            393.4541384077340922
    One-Electron Energy =               -1303.1221396812600233
    Two-Electron Energy =                 525.5836484748749626
    DFT Exchange-Correlation Energy =       0.0000000000000000
    Empirical Dispersion Energy =           0.0000000000000000
    PCM Polarization Energy =               0.0000000000000000
    EFP Energy =                            0.0000000000000000
    Total Energy =                       -384.0843527986510253
    Molecular point group: c1
  Basis Set: CC-PVTZ
  Basis Set:

  -Total Gradient:
     Atom            X                  Y                   Z
    ------   -----------------  -----------------  -----------------
       1       -0.000069493512    -0.000044506142    -0.000053184798
       2        0.000087441996     0.000042685480     0.000050626370
       3        0.000027548866     0.000002451112    -0.000005118490
       4       -0.000041137416     0.000075994967    -0.000007736191
       5       -0.000003179220    -0.000003838196     0.000013700916
       6        0.000000838659    -0.000011543004    -0.000004463628
       7       -0.000003094854     0.000004448951    -0.000002714114
       8       -0.000043178599     0.000039533491     0.000150622896
       9        0.000078744065    -0.000102506829    -0.000127354039
      10        0.000003309408    -0.000003790502    -0.000014371773
      11        0.000026392823     0.000007884916    -0.000014060273
      12        0.000033427737    -0.000110439593    -0.000161691300
      13       -0.000014669095    -0.000002980778    -0.000001562503
      14       -0.000005314669    -0.000007601166     0.000016132805
      15       -0.000026148287    -0.000013607500     0.000000308567
      16       -0.000050509056     0.000118685741     0.000168442031
      17        0.000007044232     0.000005450739    -0.000016663184
      18       -0.000000977149     0.000002791859    -0.000003681617
      19       -0.000003369762     0.000002041908     0.000009402198
      20       -0.000003676168    -0.000001155450     0.000003366129

  **** Optimization is complete! (in 8 steps) ****
    Final optimized geometry and variables:
    Molecular point group: c1

    Geometry (in Angstrom), charge = 0, multiplicity = 1:

    O           -2.153602323120    -0.997399317948    -0.740122169249
    C           -1.719184452053    -0.149829489130    -0.037147849740
    C           -2.531984085096     0.957676012814     0.571568982164
    O           -0.446936457033    -0.066469743096     0.307957004621
    H           -2.148595798017     1.914279426840     0.240449733061
    H           -3.563886732435     0.850901543966     0.279245825066
    H           -2.443515324194     0.923847747501     1.649690009264
    C            0.439062879182    -1.063436501095    -0.186212458002
    C            1.833770920955    -0.815952276333     0.357127574499
    H            0.424376679024    -1.044824869849    -1.267984437945
    H            0.075509851000    -2.030580229758     0.130293365216
    C            2.619861692696     0.334691757563    -0.276300710776
    H            2.391827221292    -1.733509883639     0.196603031014
    H            1.769611208620    -0.678372410459     1.432157339341
    C            2.093062635328     1.739089842056     0.008834015162
    H            3.641605864559     0.270809260055     0.084767867164
    H            2.670407996839     0.178901058878    -1.350727831408
    H            2.768809519656     2.483226359315    -0.397417648202
    H            2.008588013721     1.914649948474     1.075934278168
    H            1.117409325085     1.901553886801    -0.427874510589

  Mulliken Charges: (a.u.)
   Center  Symbol    Alpha    Beta     Spin     Total
       1     O     4.19717  4.19717  0.00000 -0.39435
       2     C     2.81019  2.81019  0.00000  0.37962
       3     C     3.13803  3.13803  0.00000 -0.27605
       4     O     4.15260  4.15260  0.00000 -0.30520
       5     H     0.44626  0.44626  0.00000  0.10748
       6     H     0.43740  0.43740  0.00000  0.12521
       7     H     0.44574  0.44574  0.00000  0.10852
       8     C     2.99305  2.99305  0.00000  0.01390
       9     C     3.09321  3.09321  0.00000 -0.18643
      10     H     0.45120  0.45120  0.00000  0.09761
      11     H     0.44277  0.44277  0.00000  0.11446
      12     C     3.09206  3.09206  0.00000 -0.18413
      13     H     0.44561  0.44561  0.00000  0.10877
      14     H     0.45101  0.45101  0.00000  0.09798
      15     C     3.14436  3.14436  0.00000 -0.28872
      16     H     0.44839  0.44839  0.00000  0.10321
      17     H     0.45365  0.45365  0.00000  0.09270
      18     H     0.44860  0.44860  0.00000  0.10281
      19     H     0.45511  0.45511  0.00000  0.08978
      20     H     0.45358  0.45358  0.00000  0.09284

   Total alpha = 32.00000, Total beta = 32.00000, Total charge = -0.00000

*** Psi4 exiting successfully. Buy a developer a beer!
