  ==> Input File <==

--------------------------------------------------------------------------
set {
	reference rhf
	basis 6-31G*
}

set_num_threads( 4 )
memory 2 gb

molecule MOL {
0 1

H	 -1.959655	 1.001117	 -3.091395
C	 -2.485706	 0.332140	 -2.399034
C	 -1.751392	 -0.940230	 -2.060702
O	 -3.554244	 0.632079	 -1.974755
C	 -0.318617	 -0.681425	 -1.574461
H	 -2.330548	 -1.483676	 -1.323169
H	 -1.718362	 -1.541495	 -2.968471
C	 -0.252658	 0.041456	 -0.226725
H	 0.196079	 -1.634602	 -1.498134
H	 0.219678	 -0.106304	 -2.326280
C	 1.180775	 0.282413	 0.250794
H	 -0.789944	 -0.543023	 0.517288
H	 -0.773303	 0.994880	 -0.293435
C	 2.148627	 -0.814315	 -0.201312
H	 1.516199	 1.249228	 -0.115937
H	 1.192670	 0.346017	 1.338083
C	 3.580890	 -0.659131	 0.322722
H	 2.166869	 -0.852443	 -1.289387
H	 1.762857	 -1.776509	 0.128956
C	 4.324889	 0.564933	 -0.213704
H	 4.142010	 -1.551473	 0.056605
H	 3.564836	 -0.624694	 1.410140
H	 4.342616	 0.565491	 -1.300421
H	 3.866655	 1.493402	 0.110242
H	 5.353900	 0.572371	 0.132816

	symmetry c1
}
set optking {
	frozen_dihedral = ("
		12 8 11 14
	")
}

ee = optimize('scf')
oeprop('DIPOLE', 'QUADRUPOLE', 'MULLIKEN_CHARGES')
f=open( 'psi4out.xyz', 'w' )
f.write( "25  " )
f.write( str(ee) + "\n" )
f.write( MOL.save_string_xyz() )
f.close()
--------------------------------------------------------------------------

    Molecular point group: c1
  Charge       = 0
  Multiplicity = 1
  Basis Set: 6-31G*
  Basis Set:
  @DF-RHF Final Energy:  -387.11365934735022
    Total Energy =                       -387.1136593473501080
    Molecular point group: c1
  Basis Set: 6-31G*
  Basis Set:
  Basis Set: 6-31G*
  Basis Set:
  @DF-RHF Final Energy:  -387.11438340238271
    Total Energy =                       -387.1143834023833961
  Basis Set: 6-31G*
  Basis Set:
  Basis Set: 6-31G*
  Basis Set:
  @DF-RHF Final Energy:  -387.11637367189206
    Total Energy =                       -387.1163736718922337
  Basis Set: 6-31G*
  Basis Set:
  Basis Set: 6-31G*
  Basis Set:
  @DF-RHF Final Energy:  -387.11637144854501
    Total Energy =                       -387.1163714485446690
  Basis Set: 6-31G*
  Basis Set:
  Basis Set: 6-31G*
  Basis Set:
  @DF-RHF Final Energy:  -387.11652600890261
    Total Energy =                       -387.1165260089024969
  Basis Set: 6-31G*
  Basis Set:
  Basis Set: 6-31G*
  Basis Set:
  @DF-RHF Final Energy:  -387.11662288890602
    Total Energy =                       -387.1166228889057948
  Basis Set: 6-31G*
  Basis Set:
  Charge       = 0
  Multiplicity = 1
  Basis Set: 6-31G*
  Basis Set:

    Orbital Energies (a.u.)
    -----------------------

    Doubly Occupied:

       1A    -20.561973     2A    -11.326144     3A    -11.235297
       4A    -11.234659     5A    -11.224402     6A    -11.220324
       7A    -11.219393     8A    -11.218685     9A    -11.211565
      10A     -1.401924    11A     -1.103605    12A     -1.069038
      13A     -1.011643    14A     -0.940252    15A     -0.885314
      16A     -0.824547    17A     -0.792370    18A     -0.767972
      19A     -0.664327    20A     -0.658058    21A     -0.632718
      22A     -0.626314    23A     -0.599514    24A     -0.593670
      25A     -0.586961    26A     -0.545512    27A     -0.541200
      28A     -0.524038    29A     -0.513847    30A     -0.502470
      31A     -0.486399    32A     -0.478401    33A     -0.458482
      34A     -0.451668    35A     -0.446634    36A     -0.409266

  @DF-RHF Final Energy:  -387.11662379230944

   => Energetics <=

    Nuclear Repulsion Energy =            443.7260923697514841
    One-Electron Energy =               -1403.7482676517915934
    Two-Electron Energy =                 572.9055514897296462
    DFT Exchange-Correlation Energy =       0.0000000000000000
    Empirical Dispersion Energy =           0.0000000000000000
    PCM Polarization Energy =               0.0000000000000000
    EFP Energy =                            0.0000000000000000
    Total Energy =                       -387.1166237923104063
    Molecular point group: c1
  Basis Set: 6-31G*
  Basis Set:

  -Total Gradient:
     Atom            X                  Y                   Z
    ------   -----------------  -----------------  -----------------
       1       -0.000015330627     0.000009385867    -0.000017682519
       2        0.000049105677    -0.000040914786    -0.000101830967
       3       -0.000046025892    -0.000055638698     0.000044641121
       4       -0.000014277778     0.000007628859     0.000010172720
       5        0.000056443509     0.000225335962    -0.000123558015
       6       -0.000002180344     0.000022841378     0.000040780085
       7        0.000029848709    -0.000028858858     0.000037655823
       8        0.002577588193    -0.005861623916    -0.004717911559
       9        0.000080142566    -0.000044962341    -0.000020945864
      10       -0.000115776175     0.000024149746    -0.000016373966
      11       -0.001596540082    -0.001715975998     0.006281306980
      12       -0.001890436046     0.005419249888     0.002532958858
      13        0.000110116599    -0.000020980667     0.000084842679
      14        0.000807022273     0.002062622570    -0.004044797072
      15        0.000050473162     0.000061228222     0.000010904154
      16       -0.000034660843    -0.000013198330    -0.000090220112
      17       -0.000022120741    -0.000008846109     0.000084574586
      18       -0.000018896194    -0.000058974252     0.000000103472
      19       -0.000013031245     0.000005018940     0.000018032562
      20       -0.000031455298    -0.000006849769    -0.000024356119
      21        0.000014399394     0.000057085284    -0.000026348936
      22        0.000048240976    -0.000051488264     0.000025924702
      23        0.000005677989    -0.000004168986     0.000007466487
      24       -0.000023479146     0.000008247972    -0.000000822778
      25       -0.000004848633     0.000009686286     0.000005483676

  **** Optimization is complete! (in 7 steps) ****
    Final optimized geometry and variables:
    Molecular point group: c1

    Geometry (in Angstrom), charge = 0, multiplicity = 1:

    H           -2.320631820814     1.139161705810    -2.201503471286
    C           -2.855442984204     0.521271116283    -1.469325767463
    C           -2.198136558839    -0.796547791516    -1.146594256340
    O           -3.878472659870     0.902630450017    -1.000454202218
    C           -0.723869777152    -0.641557927806    -0.745966992686
    H           -2.773120012630    -1.284247928664    -0.367837093151
    H           -2.261570782845    -1.412112957226    -2.043029770092
    C           -0.547871421208     0.065557967963     0.599731734451
    H           -0.275753786936    -1.628168693660    -0.714603377979
    H           -0.196391170013    -0.092097392794    -1.524154293941
    C            0.903645295334     0.338298578089     1.043144517600
    H           -1.076968863152    -0.475471698994     1.381252618017
    H           -1.057706612904     1.026457480687     0.557098091201
    C            1.928230179517    -0.740842436439     0.674532253393
    H            1.223581749328     1.278968206272     0.602686959763
    H            0.911452652622     0.492967508650     2.118835708397
    C            3.318483189878    -0.512959980860     1.280848770390
    H            2.022153120849    -0.806894825020    -0.406363954292
    H            1.565911038252    -1.711169410708     1.009987079437
    C            4.034066051199     0.742949344667     0.779433884533
    H            3.936494399921    -1.378560635230     1.055495405119
    H            3.236215576037    -0.473497203105     2.365014392741
    H            4.114610380620     0.740125602429    -0.304453692112
    H            3.516232089305     1.650578633092     1.070746730747
    H            5.039977795518     0.799143205326     1.183756951035

  Mulliken Charges: (a.u.)
   Center  Symbol    Alpha    Beta     Spin     Total
       1     H     0.43264  0.43264  0.00000  0.13471
       2     C     2.83090  2.83090  0.00000  0.33820
       3     C     3.20813  3.20813  0.00000 -0.41627
       4     O     4.23783  4.23783  0.00000 -0.47566
       5     C     3.16928  3.16928  0.00000 -0.33856
       6     H     0.39956  0.39956  0.00000  0.20088
       7     H     0.40641  0.40641  0.00000  0.18719
       8     C     3.15791  3.15791  0.00000 -0.31583
       9     H     0.40971  0.40971  0.00000  0.18057
      10     H     0.41969  0.41969  0.00000  0.16063
      11     C     3.15484  3.15484  0.00000 -0.30967
      12     H     0.41736  0.41736  0.00000  0.16528
      13     H     0.41710  0.41710  0.00000  0.16579
      14     C     3.15701  3.15701  0.00000 -0.31402
      15     H     0.42042  0.42042  0.00000  0.15917
      16     H     0.41869  0.41869  0.00000  0.16262
      17     C     3.15217  3.15217  0.00000 -0.30434
      18     H     0.42267  0.42267  0.00000  0.15465
      19     H     0.42245  0.42245  0.00000  0.15510
      20     C     3.24185  3.24185  0.00000 -0.48370
      21     H     0.42057  0.42057  0.00000  0.15886
      22     H     0.42244  0.42244  0.00000  0.15511
      23     H     0.42273  0.42273  0.00000  0.15454
      24     H     0.41927  0.41927  0.00000  0.16146
      25     H     0.41836  0.41836  0.00000  0.16328

   Total alpha = 36.00000, Total beta = 36.00000, Total charge = -0.00000
