  ==> Input File <==

--------------------------------------------------------------------------
set {
	reference rhf
	basis 6-31G*
}

set_num_threads( 1 )
memory 2 gb

molecule MOL {
0 1

H	 2.176868	 -0.646004	 -0.217325
O	 1.337496	 -0.537251	 0.205931
C	 0.702312	 0.627605	 -0.264544
C	 -0.714990	 0.596302	 0.266387
H	 0.682322	 0.642550	 -1.350929
H	 1.215941	 1.520383	 0.085680
O	 -1.405996	 -0.526611	 -0.195820
H	 -1.257453	 1.468809	 -0.075599
H	 -0.688972	 0.618407	 1.353696
H	 -1.291695	 -0.568947	 -1.136647

	symmetry c1
}
set optking {
	frozen_dihedral = ("
		5 3 4 7
	")
}

ee = energy('scf')
oeprop('DIPOLE', 'QUADRUPOLE', 'MULLIKEN_CHARGES')
f=open( 'psi4out.xyz', 'w' )
f.write( "10  " )
f.write( str(ee) + "\n" )
f.write( MOL.save_string_xyz() )
f.close()
--------------------------------------------------------------------------

    Molecular point group: c1

    Geometry (in Angstrom), charge = 0, multiplicity = 1:

       Center              X                  Y                   Z               Mass
    ------------   -----------------  -----------------  -----------------  -----------------
           H          2.183383925185    -0.657762358048    -0.198501041579     1.007825032070
           O          1.344011925185    -0.549009358048     0.224754958421    15.994914619560
           C          0.708827925185     0.615846641952    -0.245720041579    12.000000000000
           C         -0.708474074815     0.584543641952     0.285210958421    12.000000000000
           H          0.688837925185     0.630791641952    -1.332105041579     1.007825032070
           H          1.222456925185     1.508624641952     0.104503958421     1.007825032070
           O         -1.399480074815    -0.538369358048    -0.176996041579    15.994914619560
           H         -1.250937074815     1.457050641952    -0.056775041579     1.007825032070
           H         -0.682456074815     0.606648641952     1.372519958421     1.007825032070
           H         -1.285179074815    -0.580705358048    -1.117823041579     1.007825032070

  Charge       = 0
  Multiplicity = 1
  Basis Set: 6-31G*
  Basis Set:

    Orbital Energies (a.u.)
    -----------------------

    Doubly Occupied:

       1A    -20.558885     2A    -20.550686     3A    -11.278533
       4A    -11.269720     5A     -1.375806     6A     -1.350576
       7A     -1.002099     8A     -0.846030     9A     -0.719066
      10A     -0.671496    11A     -0.660864    12A     -0.598536
      13A     -0.571632    14A     -0.540172    15A     -0.474938
      16A     -0.449107    17A     -0.435793

  @DF-RHF Final Energy:  -228.91639208485040

   => Energetics <=

    Nuclear Repulsion Energy =            134.3065816560302608
    One-Electron Energy =                -579.7381791726065785
    Two-Electron Energy =                 216.5152054317258603
    DFT Exchange-Correlation Energy =       0.0000000000000000
    Empirical Dispersion Energy =           0.0000000000000000
    PCM Polarization Energy =               0.0000000000000000
    EFP Energy =                            0.0000000000000000
    Total Energy =                       -228.9163920848504290

  Mulliken Charges: (a.u.)
   Center  Symbol    Alpha    Beta     Spin     Total
       1     H     0.28007  0.28007  0.00000  0.43986
       2     O     4.36322  4.36322  0.00000 -0.72644
       3     C     3.01566  3.01566  0.00000 -0.03132
       4     C     2.99540  2.99540  0.00000  0.00921
       5     H     0.43605  0.43605  0.00000  0.12790
       6     H     0.42660  0.42660  0.00000  0.14681
       7     O     4.36108  4.36108  0.00000 -0.72215
       8     H     0.43035  0.43035  0.00000  0.13929
       9     H     0.40813  0.40813  0.00000  0.18373
      10     H     0.28345  0.28345  0.00000  0.43311

   Total alpha = 17.00000, Total beta = 17.00000, Total charge =  0.00000
