  ==> Input File <==

--------------------------------------------------------------------------
set {
	reference rhf
	basis cc-pvtz
}

set_num_threads( 4 )
memory 2 gb

molecule MOL {
0 1

H	 1.477852	 1.136065	 1.254256
C	 0.587265	 1.251216	 0.654003
O	 -0.000000	 0.000000	 0.518769
H	 -0.080313	 1.953397	 1.149116
H	 0.867308	 1.666535	 -0.311886
C	 -1.165153	 0.000000	 -0.236961
H	 -1.229451	 0.882440	 -0.870223
H	 -2.002557	 0.000000	 0.445289
H	 -1.229451	 -0.882440	 -0.870223

	symmetry c1
}
set optking {
	frozen_dihedral = ("
		2 3 6 7
	")
}

ee = optimize('scf')
oeprop('DIPOLE', 'QUADRUPOLE', 'MULLIKEN_CHARGES')
f=open( 'psi4out.xyz', 'w' )
f.write( "9  " )
f.write( str(ee) + "\n" )
f.write( MOL.save_string_xyz() )
f.close()
--------------------------------------------------------------------------

    Molecular point group: c1
  Charge       = 0
  Multiplicity = 1
  Basis Set: CC-PVTZ
  Basis Set:
  @DF-RHF Final Energy:  -154.12367238621408
    Total Energy =                       -154.1236723862140821
    Molecular point group: c1
  Basis Set: CC-PVTZ
  Basis Set:
  Basis Set: CC-PVTZ
  Basis Set:
  @DF-RHF Final Energy:  -154.12425046393389
    Total Energy =                       -154.1242504639338051
  Basis Set: CC-PVTZ
  Basis Set:
  Basis Set: CC-PVTZ
  Basis Set:
  @DF-RHF Final Energy:  -154.12436826779816
    Total Energy =                       -154.1243682677981042
  Basis Set: CC-PVTZ
  Basis Set:
  Charge       = 0
  Multiplicity = 1
  Basis Set: CC-PVTZ
  Basis Set:

    Orbital Energies (a.u.)
    -----------------------

    Doubly Occupied:

       1A    -20.547516     2A    -11.263551     3A    -11.262789
       4A     -1.378947     5A     -0.975835     6A     -0.872699
       7A     -0.659943     8A     -0.655231     9A     -0.645424
      10A     -0.556960    11A     -0.528451    12A     -0.475958
      13A     -0.415898

  @DF-RHF Final Energy:  -154.12436930899622

   => Energetics <=

    Nuclear Repulsion Energy =             84.6480595964728622
    One-Electron Energy =                -377.0664540441524650
    Two-Electron Energy =                 138.2940251386833097
    DFT Exchange-Correlation Energy =       0.0000000000000000
    Empirical Dispersion Energy =           0.0000000000000000
    PCM Polarization Energy =               0.0000000000000000
    EFP Energy =                            0.0000000000000000
    Total Energy =                       -154.1243693089962790
    Molecular point group: c1
  Basis Set: CC-PVTZ
  Basis Set:

  -Total Gradient:
     Atom            X                  Y                   Z
    ------   -----------------  -----------------  -----------------
       1       -0.000004362275    -0.000014418593     0.000012327186
       2        0.001100892512    -0.000256673281    -0.001726722875
       3       -0.001939063494     0.000786887214     0.002888800554
       4       -0.000012215189    -0.000054960595    -0.000015271714
       5       -0.000011725232    -0.000001502760    -0.000001323002
       6        0.001946142967    -0.001702184275    -0.003018443435
       7       -0.001130564434     0.001241090641     0.001851968450
       8       -0.000009111382    -0.000005968627    -0.000000593655
       9        0.000060006526     0.000007730276     0.000009258490

  **** Optimization is complete! (in 4 steps) ****
    Final optimized geometry and variables:
    Molecular point group: c1

    Geometry (in Angstrom), charge = 0, multiplicity = 1:

    H            1.691445188554     0.687668844446     0.944696276666
    C            0.799148329807     0.821217298818     0.350134838701
    O            0.196833402300    -0.422637446633     0.207538676625
    H            0.147856317001     1.530065038960     0.857415320624
    H            1.080466928438     1.240322244207    -0.613018761472
    C           -0.978965007517    -0.435996223200    -0.540075901454
    H           -1.062222702899     0.439084907688    -1.177640090011
    H           -1.847491503076    -0.451494038388     0.112747473894
    H           -0.992896785038    -1.324845371138    -1.156393930649

  Mulliken Charges: (a.u.)
   Center  Symbol    Alpha    Beta     Spin     Total
       1     H     0.44951  0.44951  0.00000  0.10097
       2     C     3.02108  3.02108  0.00000 -0.04216
       3     O     4.17160  4.17160  0.00000 -0.34320
       4     H     0.47354  0.47354  0.00000  0.05292
       5     H     0.47249  0.47249  0.00000  0.05502
       6     C     3.01756  3.01756  0.00000 -0.03512
       7     H     0.47518  0.47518  0.00000  0.04964
       8     H     0.46481  0.46481  0.00000  0.07038
       9     H     0.45423  0.45423  0.00000  0.09155

   Total alpha = 13.00000, Total beta = 13.00000, Total charge = -0.00000
