  ==> Input File <==

--------------------------------------------------------------------------
set {
	reference rhf
	basis 6-31G*
}

set_num_threads( 1 )
memory 2 gb

molecule MOL {
0 1

H	 -2.300070	 -0.379612	 2.435207
C	 -2.138572	 -1.418169	 2.153323
O	 -0.952409	 -1.574278	 1.443404
H	 -2.062756	 -2.016680	 3.050641
H	 -2.998298	 -1.756794	 1.576580
C	 -0.904937	 -0.860834	 0.248418
C	 0.462231	 -1.019981	 -0.374261
H	 -1.660110	 -1.233587	 -0.444738
H	 -1.099804	 0.195786	 0.420423
O	 1.392611	 -0.295398	 0.366430
H	 0.724460	 -2.075752	 -0.398583
H	 0.432264	 -0.657138	 -1.402434
C	 2.706965	 -0.449871	 -0.062409
H	 2.756559	 -0.644779	 -1.131878
H	 3.305899	 0.433456	 0.155466
H	 3.125548	 -1.294566	 0.467107

	symmetry c1
}
set optking {
	frozen_dihedral = ("
		3 6 7 11,
		2 3 6 7
	")
}

ee = energy('scf')
oeprop('DIPOLE', 'QUADRUPOLE', 'MULLIKEN_CHARGES')
f=open( 'psi4out.xyz', 'w' )
f.write( "16  " )
f.write( str(ee) + "\n" )
f.write( MOL.save_string_xyz() )
f.close()
--------------------------------------------------------------------------

    Molecular point group: c1

    Geometry (in Angstrom), charge = 0, multiplicity = 1:

       Center              X                  Y                   Z               Mass
    ------------   -----------------  -----------------  -----------------  -----------------
           H         -2.397492747829     0.557401666080     1.799090645551     1.007825032070
           C         -2.235994747829    -0.481155333920     1.517206645551    12.000000000000
           O         -1.049831747829    -0.637264333920     0.807287645551    15.994914619560
           H         -2.160178747829    -1.079666333920     2.414524645551     1.007825032070
           H         -3.095720747829    -0.819780333920     0.940463645551     1.007825032070
           C         -1.002359747829     0.076179666080    -0.387698354449    12.000000000000
           C          0.364808252171    -0.082967333920    -1.010377354449    12.000000000000
           H         -1.757532747829    -0.296573333920    -1.080854354449     1.007825032070
           H         -1.197226747829     1.132799666080    -0.215693354449     1.007825032070
           O          1.295188252171     0.641615666080    -0.269686354449    15.994914619560
           H          0.627037252171    -1.138738333920    -1.034699354449     1.007825032070
           H          0.334841252171     0.279875666080    -2.038550354449     1.007825032070
           C          2.609542252171     0.487142666080    -0.698525354449    12.000000000000
           H          2.659136252171     0.292234666080    -1.767994354449     1.007825032070
           H          3.208476252171     1.370469666080    -0.480650354449     1.007825032070
           H          3.028125252171    -0.357552333920    -0.169009354449     1.007825032070

  Charge       = 0
  Multiplicity = 1
  Basis Set: 6-31G*
  Basis Set:

    Orbital Energies (a.u.)
    -----------------------

    Doubly Occupied:

       1A    -20.553510     2A    -20.551025     3A    -11.269487
       4A    -11.268499     5A    -11.263460     6A    -11.263118
       7A     -1.387784     8A     -1.370123     9A     -1.030469
      10A     -0.935496    11A     -0.892133    12A     -0.824452
      13A     -0.684190    14A     -0.679695    15A     -0.656655
      16A     -0.636130    17A     -0.628064    18A     -0.596712
      19A     -0.553071    20A     -0.536642    21A     -0.507860
      22A     -0.477335    23A     -0.462909    24A     -0.418096
      25A     -0.408243

  @DF-RHF Final Energy:  -306.97482860170749

   => Energetics <=

    Nuclear Repulsion Energy =            258.8852800361610207
    One-Electron Energy =                -932.0098051887825932
    Two-Electron Energy =                 366.1496965509142001
    DFT Exchange-Correlation Energy =       0.0000000000000000
    Empirical Dispersion Energy =           0.0000000000000000
    PCM Polarization Energy =               0.0000000000000000
    EFP Energy =                            0.0000000000000000
    Total Energy =                       -306.9748286017073724

  Mulliken Charges: (a.u.)
   Center  Symbol    Alpha    Beta     Spin     Total
       1     H     0.42804  0.42804  0.00000  0.14392
       2     C     3.07952  3.07952  0.00000 -0.15903
       3     O     4.30088  4.30088  0.00000 -0.60177
       4     H     0.41131  0.41131  0.00000  0.17739
       5     H     0.43191  0.43191  0.00000  0.13618
       6     C     2.99324  2.99324  0.00000  0.01352
       7     C     2.99440  2.99440  0.00000  0.01120
       8     H     0.43235  0.43235  0.00000  0.13530
       9     H     0.42266  0.42266  0.00000  0.15468
      10     O     4.30239  4.30239  0.00000 -0.60477
      11     H     0.42298  0.42298  0.00000  0.15405
      12     H     0.43155  0.43155  0.00000  0.13690
      13     C     3.07865  3.07865  0.00000 -0.15731
      14     H     0.43228  0.43228  0.00000  0.13544
      15     H     0.41514  0.41514  0.00000  0.16972
      16     H     0.42270  0.42270  0.00000  0.15459

   Total alpha = 25.00000, Total beta = 25.00000, Total charge =  0.00000
