  ==> Input File <==

--------------------------------------------------------------------------
set {
	reference rhf
	basis 6-31G*
}

set_num_threads( 4 )
memory 2 gb

molecule MOL {
0 1

H	 -4.181905	 0.087564	 0.458972
O	 -3.517110	 -0.026191	 -0.205115
C	 -2.306886	 0.532354	 0.237577
C	 -1.177863	 -0.397191	 -0.171080
H	 -2.156308	 1.517575	 -0.201710
H	 -2.315015	 0.655684	 1.319734
C	 0.198102	 0.111031	 0.262842
H	 -1.208843	 -0.518759	 -1.250427
H	 -1.368741	 -1.376554	 0.258909
C	 1.331804	 -0.827780	 -0.158768
H	 0.361943	 1.100838	 -0.156218
H	 0.217265	 0.229072	 1.345532
C	 2.723619	 -0.410569	 0.329459
H	 1.342964	 -0.912588	 -1.244120
H	 1.116806	 -1.824343	 0.220779
C	 3.243875	 0.895854	 -0.272975
H	 3.424222	 -1.207124	 0.091250
H	 2.714788	 -0.329854	 1.414619
H	 3.251977	 0.848779	 -1.358681
H	 2.637085	 1.747371	 0.016682
H	 4.259473	 1.094070	 0.055697

	symmetry c1
}
set optking {
	frozen_dihedral = ("
		1 2 3 5
	")
}

ee = optimize('scf')
oeprop('DIPOLE', 'QUADRUPOLE', 'MULLIKEN_CHARGES')
f=open( 'psi4out.xyz', 'w' )
f.write( "21  " )
f.write( str(ee) + "\n" )
f.write( MOL.save_string_xyz() )
f.close()
--------------------------------------------------------------------------

    Molecular point group: c1
  Charge       = 0
  Multiplicity = 1
  Basis Set: 6-31G*
  Basis Set:
  @DF-RHF Final Energy:  -310.21115183628029
    Total Energy =                       -310.2111518362805214
    Molecular point group: c1
  Basis Set: 6-31G*
  Basis Set:
  Basis Set: 6-31G*
  Basis Set:
  @DF-RHF Final Energy:  -310.21126718000238
    Total Energy =                       -310.2112671800024373
  Basis Set: 6-31G*
  Basis Set:
  Basis Set: 6-31G*
  Basis Set:
  @DF-RHF Final Energy:  -310.21130722055005
    Total Energy =                       -310.2113072205501112
  Basis Set: 6-31G*
  Basis Set:
  Charge       = 0
  Multiplicity = 1
  Basis Set: 6-31G*
  Basis Set:

    Orbital Energies (a.u.)
    -----------------------

    Doubly Occupied:

       1A    -20.550733     2A    -11.267338     3A    -11.215601
       4A    -11.215241     5A    -11.213712     6A    -11.210175
       7A    -11.208098     8A     -1.357327     9A     -1.086167
      10A     -1.033028    11A     -0.954375    12A     -0.876106
      13A     -0.808189    14A     -0.778855    15A     -0.697680
      16A     -0.654424    17A     -0.619665    18A     -0.609643
      19A     -0.585866    20A     -0.567329    21A     -0.540318
      22A     -0.522151    23A     -0.505162    24A     -0.492941
      25A     -0.474530    26A     -0.460338    27A     -0.456431
      28A     -0.454446    29A     -0.423980

  @DF-RHF Final Energy:  -310.21130689902168

   => Energetics <=

    Nuclear Repulsion Energy =            312.2712488501382495
    One-Electron Energy =               -1039.2854159307746613
    Two-Electron Energy =                 416.8028601816147329
    DFT Exchange-Correlation Energy =       0.0000000000000000
    Empirical Dispersion Energy =           0.0000000000000000
    PCM Polarization Energy =               0.0000000000000000
    EFP Energy =                            0.0000000000000000
    Total Energy =                       -310.2113068990216789
    Molecular point group: c1
  Basis Set: 6-31G*
  Basis Set:

  -Total Gradient:
     Atom            X                  Y                   Z
    ------   -----------------  -----------------  -----------------
       1        0.000383058791    -0.001366386261     0.000563678118
       2       -0.000248148116     0.001544276034    -0.000977939062
       3       -0.000746251157     0.000392126607     0.001396006937
       4       -0.000008326467     0.000025712082    -0.000016650621
       5        0.000652654005    -0.000539564511    -0.001008800571
       6        0.000010151078    -0.000020267076    -0.000013283720
       7       -0.000048724245     0.000002901226     0.000036210299
       8       -0.000001537541    -0.000037610729    -0.000012490560
       9       -0.000010984858     0.000010998482     0.000028306491
      10        0.000001958814     0.000006708391    -0.000028515564
      11       -0.000011386864    -0.000005788951     0.000032334481
      12        0.000010181971    -0.000013082430     0.000028574998
      13        0.000008693786     0.000004300445    -0.000032392694
      14       -0.000006416874    -0.000017690232    -0.000005998590
      15        0.000021805663     0.000016372585     0.000009987366
      16        0.000005302080    -0.000000899334     0.000003216125
      17        0.000006638484    -0.000003845255     0.000003813821
      18       -0.000011035154     0.000004011350    -0.000006750671
      19       -0.000001209984     0.000000201277    -0.000001293402
      20       -0.000007158333    -0.000002562775     0.000004044238
      21        0.000000734926     0.000000089074    -0.000002057417

  **** Optimization is complete! (in 4 steps) ****
    Final optimized geometry and variables:
    Molecular point group: c1

    Geometry (in Angstrom), charge = 0, multiplicity = 1:

    H           -4.207576926916     0.126966988071     0.397586226780
    O           -3.523833872849     0.016731502757    -0.245118169654
    C           -2.307136485424     0.524644874178     0.247516141875
    C           -1.176488818048    -0.407592886795    -0.157285260663
    H           -2.132068272164     1.515106576964    -0.166431465781
    H           -2.338497063680     0.622759844235     1.330349527462
    C            0.199741388592     0.103158080837     0.272754275752
    H           -1.207969363866    -0.530510690085    -1.236683258073
    H           -1.365540096133    -1.387771178572     0.272433259552
    C            1.335396349500    -0.830823466084    -0.154450240271
    H            0.358465544217     1.094232988744    -0.144982478647
    H            0.223103359611     0.219898411496     1.355838107008
    C            2.728442754852    -0.405757887023     0.323469344341
    H            1.339508371880    -0.917564962145    -1.239675882112
    H            1.128134687706    -1.827849415778     0.228301800240
    C            3.238435650359     0.901559272347    -0.285742116142
    H            3.431308823308    -1.199580498149     0.082747163479
    H            2.726394228608    -0.322212459247     1.408482050827
    H            3.239319451061     0.851761186484    -1.371331475919
    H            2.629613713204     1.750925865806     0.005877134418
    H            4.255312974512     1.105343215823     0.035491350550

  Mulliken Charges: (a.u.)
   Center  Symbol    Alpha    Beta     Spin     Total
       1     H     0.28004  0.28004  0.00000  0.43991
       2     O     4.37378  4.37378  0.00000 -0.74756
       3     C     2.99069  2.99069  0.00000  0.01861
       4     C     3.15741  3.15741  0.00000 -0.31482
       5     H     0.42791  0.42791  0.00000  0.14419
       6     H     0.43310  0.43310  0.00000  0.13380
       7     C     3.16249  3.16249  0.00000 -0.32499
       8     H     0.41421  0.41421  0.00000  0.17157
       9     H     0.41896  0.41896  0.00000  0.16209
      10     C     3.15154  3.15154  0.00000 -0.30309
      11     H     0.42075  0.42075  0.00000  0.15850
      12     H     0.42521  0.42521  0.00000  0.14958
      13     C     3.15246  3.15246  0.00000 -0.30492
      14     H     0.42273  0.42273  0.00000  0.15453
      15     H     0.42148  0.42148  0.00000  0.15705
      16     C     3.24119  3.24119  0.00000 -0.48237
      17     H     0.42068  0.42068  0.00000  0.15864
      18     H     0.42380  0.42380  0.00000  0.15240
      19     H     0.42180  0.42180  0.00000  0.15640
      20     H     0.42048  0.42048  0.00000  0.15904
      21     H     0.41928  0.41928  0.00000  0.16144

   Total alpha = 29.00000, Total beta = 29.00000, Total charge =  0.00000
