  ==> Input File <==

--------------------------------------------------------------------------
set {
	reference rhf
	basis 6-31G*
}

set_num_threads( 1 )
memory 2 gb

molecule MOL {
0 1

O	 -2.439739	 -0.935931	 -0.423848
C	 -1.921153	 0.064240	 -0.045697
C	 -2.624470	 1.379923	 0.150949
O	 -0.632575	 0.154573	 0.251549
H	 -2.168117	 2.136577	 -0.476876
H	 -3.669540	 1.273223	 -0.098610
H	 -2.519365	 1.700893	 1.180846
C	 0.160891	 -1.019931	 0.106212
C	 1.589627	 -0.672828	 0.480843
H	 0.089836	 -1.367806	 -0.916050
H	 -0.238459	 -1.792301	 0.749618
C	 2.060006	 -1.307614	 1.790877
H	 1.653495	 0.410738	 0.556589
H	 2.247588	 -0.969051	 -0.331929
C	 3.492454	 -0.915834	 2.150881
H	 1.390369	 -1.008463	 2.594739
H	 1.986940	 -2.387410	 1.713023
H	 3.802568	 -1.378914	 3.082234
H	 3.589081	 0.159889	 2.268189
H	 4.189868	 -1.227657	 1.378574

	symmetry c1
}
set optking {
	frozen_dihedral = ("
		16 12 9 8,
		2 4 8 10,
		1 2 4 8
	")
}

ee = energy('scf')
oeprop('DIPOLE', 'QUADRUPOLE', 'MULLIKEN_CHARGES')
f=open( 'psi4out.xyz', 'w' )
f.write( "20  " )
f.write( str(ee) + "\n" )
f.write( MOL.save_string_xyz() )
f.close()
--------------------------------------------------------------------------

    Molecular point group: c1

    Geometry (in Angstrom), charge = 0, multiplicity = 1:

       Center              X                  Y                   Z               Mass
    ------------   -----------------  -----------------  -----------------  -----------------
           O         -2.391344158752    -0.534088396839    -0.980728580990    15.994914619560
           C         -1.872758158752     0.466082603161    -0.602577580990    12.000000000000
           C         -2.576075158752     1.781765603161    -0.405931580990    12.000000000000
           O         -0.584180158752     0.556415603161    -0.305331580990    15.994914619560
           H         -2.119722158752     2.538419603161    -1.033756580990     1.007825032070
           H         -3.621145158752     1.675065603161    -0.655490580990     1.007825032070
           H         -2.470970158752     2.102735603161     0.623965419010     1.007825032070
           C          0.209285841248    -0.618088396839    -0.450668580990    12.000000000000
           C          1.638021841248    -0.270985396839    -0.076037580990    12.000000000000
           H          0.138230841248    -0.965963396839    -1.472930580990     1.007825032070
           H         -0.190064158752    -1.390458396839     0.192737419010     1.007825032070
           C          2.108400841248    -0.905771396839     1.233996419010    12.000000000000
           H          1.701889841248     0.812580603161    -0.000291580990     1.007825032070
           H          2.295982841248    -0.567208396839    -0.888809580990     1.007825032070
           C          3.540848841248    -0.513991396839     1.594000419010    12.000000000000
           H          1.438763841248    -0.606620396839     2.037858419010     1.007825032070
           H          2.035334841248    -1.985567396839     1.156142419010     1.007825032070
           H          3.850962841248    -0.977071396839     2.525353419010     1.007825032070
           H          3.637475841248     0.561731603161     1.711308419010     1.007825032070
           H          4.238262841248    -0.825814396839     0.821693419010     1.007825032070

  Charge       = 0
  Multiplicity = 1
  Basis Set: 6-31G*
  Basis Set:

    Orbital Energies (a.u.)
    -----------------------

    Doubly Occupied:

       1A    -20.601172     2A    -20.543466     3A    -11.373670
       4A    -11.280732     5A    -11.233026     6A    -11.224146
       7A    -11.222646     8A    -11.214568     9A     -1.467337
      10A     -1.361618    11A     -1.086815    12A     -1.029012
      13A     -0.980905    14A     -0.880583    15A     -0.807688
      16A     -0.781150    17A     -0.689502    18A     -0.681098
      19A     -0.667273    20A     -0.632725    21A     -0.602074
      22A     -0.592731    23A     -0.570693    24A     -0.553994
      25A     -0.544650    26A     -0.523345    27A     -0.513698
      28A     -0.481803    29A     -0.479497    30A     -0.475104
      31A     -0.446887    32A     -0.436813

  @DF-RHF Final Energy:  -383.93999652642725

   => Energetics <=

    Nuclear Repulsion Energy =            381.1694410593814268
    One-Electron Energy =               -1278.2579984290100583
    Two-Electron Energy =                 513.1485608432012668
    DFT Exchange-Correlation Energy =       0.0000000000000000
    Empirical Dispersion Energy =           0.0000000000000000
    PCM Polarization Energy =               0.0000000000000000
    EFP Energy =                            0.0000000000000000
    Total Energy =                       -383.9399965264274215

  Mulliken Charges: (a.u.)
   Center  Symbol    Alpha    Beta     Spin     Total
       1     O     4.28350  4.28350  0.00000 -0.56701
       2     C     2.61976  2.61976  0.00000  0.76048
       3     C     3.28155  3.28155  0.00000 -0.56310
       4     O     4.30991  4.30991  0.00000 -0.61983
       5     H     0.40062  0.40062  0.00000  0.19877
       6     H     0.39697  0.39697  0.00000  0.20606
       7     H     0.40085  0.40085  0.00000  0.19829
       8     C     3.00167  3.00167  0.00000 -0.00333
       9     C     3.16993  3.16993  0.00000 -0.33985
      10     H     0.40839  0.40839  0.00000  0.18322
      11     H     0.40859  0.40859  0.00000  0.18283
      12     C     3.15804  3.15804  0.00000 -0.31608
      13     H     0.40565  0.40565  0.00000  0.18871
      14     H     0.41700  0.41700  0.00000  0.16600
      15     C     3.24088  3.24088  0.00000 -0.48177
      16     H     0.41830  0.41830  0.00000  0.16340
      17     H     0.42050  0.42050  0.00000  0.15901
      18     H     0.41730  0.41730  0.00000  0.16540
      19     H     0.41986  0.41986  0.00000  0.16027
      20     H     0.42074  0.42074  0.00000  0.15853

   Total alpha = 32.00000, Total beta = 32.00000, Total charge = -0.00000
