                              Psi4 1.0.54 Driver

  ==> Input File <==

--------------------------------------------------------------------------
set {
	reference rhf
	basis cc-pvtz
}

set_num_threads( 4 )
memory 2 gb

molecule MOL {
0 1

H	 -2.535061	 1.438130	 -1.809705
C	 -1.776227	 0.839743	 -1.348822
C	 -2.105997	 -0.000418	 -0.398703
H	 -0.761864	 0.943773	 -1.680553
O	 -1.189946	 -0.765863	 0.237511
H	 -3.120565	 -0.118813	 -0.064395
C	 0.026572	 -0.995256	 -0.379403
C	 1.057223	 0.049888	 -0.004615
H	 -0.054361	 -1.010670	 -1.459674
H	 0.397526	 -1.952058	 -0.044198
F	 2.203233	 -0.234060	 -0.590375
F	 0.698147	 1.254887	 -0.392621
F	 1.266440	 0.094219	 1.288722

	symmetry c1
}
set optking {
	frozen_dihedral = ("
		6 3 5 7
	")
}

ee,wfn = optimize('scf', return_wfn=True)
oeprop( wfn, 'DIPOLE', 'QUADRUPOLE', 'MULLIKEN_CHARGES')
f=open( 'psi4out.xyz', 'w' )
f.write( "13  " )
f.write( str(ee) + "\n" )
f.write( MOL.save_string_xyz() )
f.close()
--------------------------------------------------------------------------

    Molecular point group: c1
  Charge       = 0
  Multiplicity = 1
  Basis Set: CC-PVTZ
  Basis Set:
  @DF-RHF Final Energy:  -527.73023617642377
    Total Energy =                       -527.7302361764235457
    Molecular point group: c1
  Basis Set: CC-PVTZ
  Basis Set:
  Basis Set: CC-PVTZ
  Basis Set:
  @DF-RHF Final Energy:  -527.73381092452883
    Total Energy =                       -527.7338109245281430
  Basis Set: CC-PVTZ
  Basis Set:
  Basis Set: CC-PVTZ
  Basis Set:
  @DF-RHF Final Energy:  -527.73969522074503
    Total Energy =                       -527.7396952207445793
  Basis Set: CC-PVTZ
  Basis Set:
  Basis Set: CC-PVTZ
  Basis Set:
  @DF-RHF Final Energy:  -527.74041295126335
    Total Energy =                       -527.7404129512633517
  Basis Set: CC-PVTZ
  Basis Set:
  @DF-RHF Final Energy:  -527.74084602488983
    Total Energy =                       -527.7408460248900610
  Basis Set: CC-PVTZ
  Basis Set:
  @DF-RHF Final Energy:  -527.74101347706846
    Total Energy =                       -527.7410134770683499
  Basis Set: CC-PVTZ
  Basis Set:
  Basis Set: CC-PVTZ
  Basis Set:
  @DF-RHF Final Energy:  -527.74105332854197
    Total Energy =                       -527.7410533285419660
  Basis Set: CC-PVTZ
  Basis Set:
  Basis Set: CC-PVTZ
  Basis Set:
  @DF-RHF Final Energy:  -527.74105961568353
    Total Energy =                       -527.7410596156830707
  Basis Set: CC-PVTZ
  Basis Set:
  Charge       = 0
  Multiplicity = 1
  Basis Set: CC-PVTZ
  Basis Set:

    Orbital Energies (a.u.)
    -----------------------

    Doubly Occupied:

       1A    -26.339635     2A    -26.338071     3A    -26.335890
       4A    -20.605192     5A    -11.496428     6A    -11.316909
       7A    -11.302389     8A    -11.218770     9A     -1.748447
      10A     -1.644740    11A     -1.643107    12A     -1.443740
      13A     -1.083694    14A     -1.027468    15A     -0.938674
      16A     -0.844314    17A     -0.838044    18A     -0.829674
      19A     -0.776589    20A     -0.735296    21A     -0.716114
      22A     -0.706986    23A     -0.681678    24A     -0.666081
      25A     -0.662833    26A     -0.648676    27A     -0.634234
      28A     -0.606583    29A     -0.550472    30A     -0.535440
      31A     -0.510980    32A     -0.363909

  @DF-RHF Final Energy:  -527.74106049681632

   => Energetics <=

    Nuclear Repulsion Energy =            418.2005652243048530
    One-Electron Energy =               -1560.3011311036934785
    Two-Electron Energy =                 614.3595053825725927
    DFT Exchange-Correlation Energy =       0.0000000000000000
    Empirical Dispersion Energy =           0.0000000000000000
    PCM Polarization Energy =               0.0000000000000000
    EFP Energy =                            0.0000000000000000
    Total Energy =                       -527.7410604968159760
    Molecular point group: c1
  Basis Set: CC-PVTZ
  Basis Set:

  -Total Gradient:
     Atom            X                  Y                   Z
    ------   -----------------  -----------------  -----------------
       1       -0.000021740991    -0.000024595606    -0.000014416195
       2        0.000054511812    -0.000003674700     0.000053854613
       3        0.000206787929     0.001002117057     0.000727610417
       4       -0.000004988311    -0.000014173549     0.000009324422
       5        0.000897024325     0.001124984828     0.000176555775
       6       -0.000480197651    -0.001144765988    -0.000693210540
       7       -0.000689261850    -0.000910336852    -0.000253518862
       8        0.000062279300    -0.000143057608     0.000031689396
       9        0.000009864751    -0.000012245700    -0.000015387617
      10        0.000009397095     0.000015930175     0.000012571944
      11       -0.000006406187    -0.000006869875    -0.000023500495
      12        0.000004127472     0.000043713268     0.000040861977
      13       -0.000041397698     0.000072974551    -0.000052434831

  **** Optimization is complete! (in 9 steps) ****
    Final optimized geometry and variables:
    Molecular point group: c1

    Geometry (in Angstrom), charge = 0, multiplicity = 1:

    H           -3.086111069593     1.512866306248    -1.574523643003
    C           -2.231141200424     0.973153997454    -1.221498781965
    C           -2.323458491434     0.342651130065    -0.072398618680
    H           -1.345550471584     0.998284412220    -1.822810305105
    O           -1.396345473943    -0.409539641197     0.556726082460
    H           -3.224326908213     0.368230588353     0.508211686807
    C           -0.317929534279    -0.943859245709    -0.132189206324
    C            0.954193626836    -0.161123237629     0.116982853686
    H           -0.490819155231    -0.992280074126    -1.197475743569
    H           -0.149185671646    -1.942982011547     0.242783810391
    F            1.952766076460    -0.744011127265    -0.517126191575
    F            0.878567434106     1.078294925863    -0.313209886191
    F            1.259292559433    -0.119686926230     1.392401790443

  Mulliken Charges: (a.u.)
   Center  Symbol    Alpha    Beta     Spin     Total
       1     H     0.42328  0.42328  0.00000  0.15344
       2     C     3.19889  3.19889  0.00000 -0.39777
       3     C     2.98010  2.98010  0.00000  0.03980
       4     H     0.42791  0.42791  0.00000  0.14417
       5     O     4.15316  4.15316  0.00000 -0.30633
       6     H     0.41129  0.41129  0.00000  0.17742
       7     C     3.01633  3.01633  0.00000 -0.03265
       8     C     2.67477  2.67477  0.00000  0.65047
       9     H     0.45124  0.45124  0.00000  0.09752
      10     H     0.43367  0.43367  0.00000  0.13267
      11     F     4.61337  4.61337  0.00000 -0.22674
      12     F     4.60820  4.60820  0.00000 -0.21639
      13     F     4.60779  4.60779  0.00000 -0.21559

   Total alpha = 32.00000, Total beta = 32.00000, Total charge = -0.00000

*** Psi4 exiting successfully. Buy a developer a beer!
