                              Psi4 1.0.54 Driver

  ==> Input File <==

--------------------------------------------------------------------------
set {
	reference rhf
	basis cc-pvtz
}

set_num_threads( 4 )
memory 2 gb

molecule MOL {
0 1

H	 3.039185	 1.030297	 1.683154
O	 3.752905	 0.756842	 1.137576
C	 3.732591	 -0.636706	 0.973609
C	 2.612964	 -1.124344	 0.066235
H	 4.688839	 -0.897103	 0.540291
H	 3.671782	 -1.131753	 1.940914
C	 1.209428	 -0.888643	 0.619752
H	 2.712584	 -0.635746	 -0.898392
H	 2.759090	 -2.188604	 -0.102278
C	 0.113298	 -1.420414	 -0.302504
H	 1.061509	 0.173877	 0.781533
H	 1.120721	 -1.368769	 1.592838
C	 -1.311023	 -1.277304	 0.237018
H	 0.183958	 -0.921032	 -1.265754
H	 0.303750	 -2.472881	 -0.493583
C	 -2.041121	 -0.006551	 -0.194127
H	 -1.888548	 -2.136293	 -0.093331
H	 -1.289731	 -1.328757	 1.323321
C	 -3.489218	 0.042606	 0.286507
H	 -2.022185	 0.066287	 -1.279394
H	 -1.518764	 0.869305	 0.178730
C	 -4.219984	 1.311773	 -0.139038
H	 -4.022855	 -0.824300	 -0.093339
H	 -3.510372	 -0.038577	 1.370031
H	 -4.244251	 1.405725	 -1.219696
H	 -5.244345	 1.313233	 0.215630
H	 -3.732090	 2.196311	 0.257073

	symmetry c1
}
set optking {
	frozen_dihedral = ("
		14 10 13 16
	")
}

ee,wfn = optimize('scf', return_wfn=True)
oeprop( wfn, 'DIPOLE', 'QUADRUPOLE', 'MULLIKEN_CHARGES')
f=open( 'psi4out.xyz', 'w' )
f.write( "27  " )
f.write( str(ee) + "\n" )
f.write( MOL.save_string_xyz() )
f.close()
--------------------------------------------------------------------------

    Molecular point group: c1
  Charge       = 0
  Multiplicity = 1
  Basis Set: CC-PVTZ
  Basis Set:
  @DF-RHF Final Energy:  -388.42568589022494
    Total Energy =                       -388.4256858902251679
    Molecular point group: c1
  Basis Set: CC-PVTZ
  Basis Set:
  Basis Set: CC-PVTZ
  Basis Set:
  @DF-RHF Final Energy:  -388.42585440278384
    Total Energy =                       -388.4258544027838980
  Basis Set: CC-PVTZ
  Basis Set:
  Basis Set: CC-PVTZ
  Basis Set:
  @DF-RHF Final Energy:  -388.42626212544116
    Total Energy =                       -388.4262621254406440
  Basis Set: CC-PVTZ
  Basis Set:
  Basis Set: CC-PVTZ
  Basis Set:
  @DF-RHF Final Energy:  -388.42628236374958
    Total Energy =                       -388.4262823637498059
  Basis Set: CC-PVTZ
  Basis Set:
  Basis Set: CC-PVTZ
  Basis Set:
  @DF-RHF Final Energy:  -388.42628864627488
    Total Energy =                       -388.4262886462746565
  Basis Set: CC-PVTZ
  Basis Set:
  Charge       = 0
  Multiplicity = 1
  Basis Set: CC-PVTZ
  Basis Set:

    Orbital Energies (a.u.)
    -----------------------

    Doubly Occupied:

       1A    -20.545342     2A    -11.265025     3A    -11.217190
       4A    -11.214371     5A    -11.213652     6A    -11.213183
       7A    -11.212860     8A    -11.211995     9A    -11.207013
      10A     -1.363221    11A     -1.095711    12A     -1.062754
      13A     -1.012130    14A     -0.949984    15A     -0.885647
      16A     -0.820978    17A     -0.796842    18A     -0.785337
      19A     -0.696556    20A     -0.646491    21A     -0.645174
      22A     -0.615265    23A     -0.602156    24A     -0.584544
      25A     -0.578910    26A     -0.553214    27A     -0.543912
      28A     -0.527465    29A     -0.507083    30A     -0.492567
      31A     -0.484868    32A     -0.475188    33A     -0.470734
      34A     -0.463482    35A     -0.451133    36A     -0.443001
      37A     -0.424664

  @DF-RHF Final Energy:  -388.42628905588441

   => Energetics <=

    Nuclear Repulsion Energy =            458.4933531021271733
    One-Electron Energy =               -1435.2799941400153330
    Two-Electron Energy =                 588.3603519820036354
    DFT Exchange-Correlation Energy =       0.0000000000000000
    Empirical Dispersion Energy =           0.0000000000000000
    PCM Polarization Energy =               0.0000000000000000
    EFP Energy =                            0.0000000000000000
    Total Energy =                       -388.4262890558844674
    Molecular point group: c1
  Basis Set: CC-PVTZ
  Basis Set:

  -Total Gradient:
     Atom            X                  Y                   Z
    ------   -----------------  -----------------  -----------------
       1       -0.000010445935    -0.000001580798     0.000017709177
       2        0.000045374482     0.000050283722    -0.000034661180
       3       -0.000044821753    -0.000045861832     0.000047289706
       4        0.000015501588     0.000028025841    -0.000015652391
       5        0.000019881584     0.000009326512    -0.000007455429
       6        0.000009182111    -0.000016898373     0.000020313493
       7        0.000008273393     0.000009616727     0.000011485865
       8       -0.000006255578     0.000013372672    -0.000023732538
       9        0.000003175001    -0.000021789921    -0.000011172858
      10       -0.001325862193    -0.003556487310    -0.002446550954
      11       -0.000003382500     0.000011294984    -0.000010230405
      12       -0.000010128929    -0.000014080245     0.000019424318
      13        0.001295650118     0.002026245553     0.002818530041
      14        0.000804824445     0.002534162203     0.001408113230
      15       -0.000009131267     0.000000762821    -0.000007816614
      16       -0.000792890103    -0.001036380723    -0.001806349927
      17       -0.000002120955    -0.000012694088     0.000002457219
      18        0.000010627962    -0.000001366062    -0.000004036111
      19        0.000002855529     0.000028505292     0.000029514692
      20        0.000011499311    -0.000006175746    -0.000026205987
      21        0.000002135207     0.000013640364     0.000009410334
      22        0.000004526718    -0.000015466657    -0.000009403446
      23       -0.000011535507    -0.000019148743    -0.000006569282
      24       -0.000006866668     0.000004068029     0.000028418689
      25        0.000000496679     0.000002228101    -0.000020889242
      26       -0.000023740514    -0.000004207791     0.000006381666
      27        0.000013177775     0.000020605471     0.000011677931

  **** Optimization is complete! (in 6 steps) ****
    Final optimized geometry and variables:
    Molecular point group: c1

    Geometry (in Angstrom), charge = 0, multiplicity = 1:

    H            2.786159919687     1.337380684535     1.470451410488
    O            3.513095045839     1.160239231458     0.903106925747
    C            3.598231034506    -0.215206731323     0.638190752305
    C            2.506827547451    -0.721721444234    -0.292858775476
    H            4.565707366780    -0.368235069848     0.179311892029
    H            3.589118680681    -0.781777170507     1.567333412667
    C            1.096806117487    -0.629252539533     0.284635498326
    H            2.559055003294    -0.163594539655    -1.222778393257
    H            2.728430122476    -1.758741480905    -0.534325369973
    C            0.028202052949    -1.206896640762    -0.644475063446
    H            0.857511969158     0.409426754504     0.495994596660
    H            1.061801840500    -1.156121802637     1.236110466886
    C           -1.401194760345    -1.046978367501    -0.107484735125
    H            0.109024234851    -0.705788398893    -1.605019796920
    H            0.245252113512    -2.255958260024    -0.816413075658
    C           -2.086853095142     0.243215697920    -0.553769643849
    H           -2.006200712496    -1.884145516002    -0.443128966433
    H           -1.391390081399    -1.101754123664     0.977831133203
    C           -3.485406199575     0.419828222918     0.030417507436
    H           -2.148181053917     0.251156190357    -1.639095565609
    H           -1.476296987753     1.100305205201    -0.279021827430
    C           -4.175398498671     1.696191786027    -0.439432429042
    H           -4.096153453477    -0.438515509014    -0.236553625293
    H           -3.423633781758     0.422606191986     1.115339838938
    H           -4.283978248930     1.707720997673    -1.518904080654
    H           -5.164977418771     1.790205791445    -0.007013904795
    H           -3.606306095523     2.575725161382    -0.156827849195

  Mulliken Charges: (a.u.)
   Center  Symbol    Alpha    Beta     Spin     Total
       1     H     0.39232  0.39232  0.00000  0.21537
       2     O     4.20566  4.20566  0.00000 -0.41131
       3     C     2.97964  2.97964  0.00000  0.04072
       4     C     3.09025  3.09025  0.00000 -0.18050
       5     H     0.44869  0.44869  0.00000  0.10263
       6     H     0.46964  0.46964  0.00000  0.06071
       7     C     3.09948  3.09948  0.00000 -0.19895
       8     H     0.45033  0.45033  0.00000  0.09934
       9     H     0.45582  0.45582  0.00000  0.08836
      10     C     3.09998  3.09998  0.00000 -0.19996
      11     H     0.45749  0.45749  0.00000  0.08502
      12     H     0.45355  0.45355  0.00000  0.09290
      13     C     3.09943  3.09943  0.00000 -0.19885
      14     H     0.45309  0.45309  0.00000  0.09381
      15     H     0.44613  0.44613  0.00000  0.10775
      16     C     3.08470  3.08470  0.00000 -0.16940
      17     H     0.44723  0.44723  0.00000  0.10554
      18     H     0.45489  0.45489  0.00000  0.09021
      19     C     3.08528  3.08528  0.00000 -0.17056
      20     H     0.45398  0.45398  0.00000  0.09204
      21     H     0.45516  0.45516  0.00000  0.08967
      22     C     3.14963  3.14963  0.00000 -0.29926
      23     H     0.45441  0.45441  0.00000  0.09119
      24     H     0.45452  0.45452  0.00000  0.09096
      25     H     0.45502  0.45502  0.00000  0.08995
      26     H     0.44844  0.44844  0.00000  0.10312
      27     H     0.45525  0.45525  0.00000  0.08950

   Total alpha = 37.00000, Total beta = 37.00000, Total charge =  0.00000

*** Psi4 exiting successfully. Buy a developer a beer!
