  ==> Input File <==

--------------------------------------------------------------------------
set {
	reference rhf
	basis 6-31G*
}

set_num_threads( 4 )
memory 2 gb

molecule MOL {
0 1

H	 -2.510097	 -0.999381	 0.332888
O	 -2.315789	 -0.143634	 -0.024262
C	 -0.945151	 -0.064130	 -0.333158
H	 -0.813375	 -0.223047	 -1.403232
C	 -0.232801	 -1.184051	 0.407206
C	 -0.355424	 1.302939	 0.054523
H	 -0.318824	 -0.992899	 1.473524
H	 -0.742411	 -2.122033	 0.217954
C	 1.248522	 -1.270719	 -0.013048
H	 -0.546144	 2.018388	 -0.742941
H	 -0.890929	 1.656788	 0.930149
C	 1.156425	 1.235120	 0.355905
H	 1.825384	 -1.683246	 0.809111
H	 1.357782	 -1.965923	 -0.840362
C	 1.828244	 0.099899	 -0.419275
H	 1.626109	 2.185622	 0.123525
H	 1.309438	 1.071213	 1.419539
H	 2.901447	 0.112642	 -0.255830
H	 1.681817	 0.263413	 -1.484607

	symmetry c1
}
set optking {
	frozen_dihedral = ("
		1 2 3 4
	")
}

ee = optimize('scf')
oeprop('DIPOLE', 'QUADRUPOLE', 'MULLIKEN_CHARGES')
f=open( 'psi4out.xyz', 'w' )
f.write( "19  " )
f.write( str(ee) + "\n" )
f.write( MOL.save_string_xyz() )
f.close()
--------------------------------------------------------------------------

    Molecular point group: c1
  Charge       = 0
  Multiplicity = 1
  Basis Set: 6-31G*
  Basis Set:
  @DF-RHF Final Energy:  -309.04467398987703
    Total Energy =                       -309.0446739898769692
    Molecular point group: c1
  Basis Set: 6-31G*
  Basis Set:
  Basis Set: 6-31G*
  Basis Set:
  @DF-RHF Final Energy:  -309.04628656597163
    Total Energy =                       -309.0462865659719682
  Basis Set: 6-31G*
  Basis Set:
  Basis Set: 6-31G*
  Basis Set:
  @DF-RHF Final Energy:  -309.04661617108496
    Total Energy =                       -309.0466161710846791
  Basis Set: 6-31G*
  Basis Set:
  Basis Set: 6-31G*
  Basis Set:
  @DF-RHF Final Energy:  -309.04662324306503
    Total Energy =                       -309.0466232430648006
  Basis Set: 6-31G*
  Basis Set:
  Charge       = 0
  Multiplicity = 1
  Basis Set: 6-31G*
  Basis Set:

    Orbital Energies (a.u.)
    -----------------------

    Doubly Occupied:

       1A    -20.547587     2A    -11.268670     3A    -11.221524
       4A    -11.220595     5A    -11.217333     6A    -11.215421
       7A    -11.207658     8A     -1.356971     9A     -1.110362
      10A     -1.004547    11A     -0.988908    12A     -0.851839
      13A     -0.832397    14A     -0.740641    15A     -0.688439
      16A     -0.662350    17A     -0.620115    18A     -0.607570
      19A     -0.574590    20A     -0.547166    21A     -0.530222
      22A     -0.522176    23A     -0.499665    24A     -0.488433
      25A     -0.466042    26A     -0.448930    27A     -0.426378
      28A     -0.412956

  @DF-RHF Final Energy:  -309.04662378932500

   => Energetics <=

    Nuclear Repulsion Energy =            331.3775113982212019
    One-Electron Energy =               -1076.2892942591115570
    Two-Electron Energy =                 435.8651590715652446
    DFT Exchange-Correlation Energy =       0.0000000000000000
    Empirical Dispersion Energy =           0.0000000000000000
    PCM Polarization Energy =               0.0000000000000000
    EFP Energy =                            0.0000000000000000
    Total Energy =                       -309.0466237893250536
    Molecular point group: c1
  Basis Set: 6-31G*
  Basis Set:

  -Total Gradient:
     Atom            X                  Y                   Z
    ------   -----------------  -----------------  -----------------
       1        0.000401906874     0.000645756120     0.001969820732
       2       -0.000504799494    -0.000377348771    -0.002472624900
       3        0.000132594158    -0.002085389901     0.000767897698
       4       -0.000018290280     0.001799302143    -0.000246012842
       5       -0.000005497102     0.000016682276    -0.000034117361
       6        0.000022484905     0.000009539900     0.000010778010
       7        0.000008546964    -0.000006324335    -0.000007225453
       8        0.000010182422     0.000002695349     0.000000165881
       9       -0.000010335518    -0.000010900449     0.000037110494
      10        0.000016665580     0.000003764224    -0.000013743367
      11       -0.000002746442    -0.000000753405    -0.000003642591
      12       -0.000009384114     0.000014408693    -0.000012127202
      13        0.000015673851    -0.000013576785     0.000006824209
      14       -0.000010230299    -0.000001901686     0.000003591743
      15       -0.000023298732     0.000009285031    -0.000014353594
      16       -0.000018537587     0.000011164041     0.000010851352
      17        0.000002123708    -0.000004357641     0.000001832627
      18       -0.000008221996    -0.000023472278    -0.000001534883
      19        0.000001163100     0.000011427474    -0.000003490552

  **** Optimization is complete! (in 5 steps) ****
    Final optimized geometry and variables:
    Molecular point group: c1

    Geometry (in Angstrom), charge = 0, multiplicity = 1:

    H           -2.607228024982    -0.898049209999     0.276401799679
    O           -2.330498987525    -0.056721119577    -0.056279877320
    C           -0.947587591385    -0.074122265125    -0.327672194487
    H           -0.816364140095    -0.220623956467    -1.398041734233
    C           -0.215590923353    -1.188635711159     0.410509734763
    C           -0.368421500605     1.295595965833     0.056490432544
    H           -0.293665177246    -1.000728447551     1.479118616325
    H           -0.702782635696    -2.143874764194     0.224944125566
    C            1.264035746716    -1.263393334427    -0.018844367137
    H           -0.577125734325     2.002696264845    -0.740478896772
    H           -0.905208033048     1.645414106929     0.931372579083
    C            1.145751144291     1.240701436306     0.346761232441
    H            1.849315830005    -1.668045775863     0.801120265244
    H            1.372457456211    -1.959855841712    -0.844784837030
    C            1.824822591840     0.112644029910    -0.432217787878
    H            1.604950294169     2.195184647130     0.110052617032
    H            1.311167402646     1.079557359983     1.409480423728
    H            2.898971807458     0.134738020458    -0.276706683554
    H            1.667950428393     0.271751986799    -1.496336867278

  Mulliken Charges: (a.u.)
   Center  Symbol    Alpha    Beta     Spin     Total
       1     H     0.28052  0.28052  0.00000  0.43896
       2     O     4.38553  4.38553  0.00000 -0.77106
       3     C     2.89451  2.89451  0.00000  0.21098
       4     H     0.42719  0.42719  0.00000  0.14563
       5     C     3.19056  3.19056  0.00000 -0.38112
       6     C     3.16269  3.16269  0.00000 -0.32539
       7     H     0.41608  0.41608  0.00000  0.16783
       8     H     0.42110  0.42110  0.00000  0.15781
       9     C     3.15794  3.15794  0.00000 -0.31588
      10     H     0.41584  0.41584  0.00000  0.16833
      11     H     0.41061  0.41061  0.00000  0.17879
      12     C     3.16579  3.16579  0.00000 -0.33158
      13     H     0.41715  0.41715  0.00000  0.16570
      14     H     0.41740  0.41740  0.00000  0.16520
      15     C     3.16420  3.16420  0.00000 -0.32840
      16     H     0.41594  0.41594  0.00000  0.16812
      17     H     0.42076  0.42076  0.00000  0.15847
      18     H     0.41631  0.41631  0.00000  0.16738
      19     H     0.41988  0.41988  0.00000  0.16023

   Total alpha = 28.00000, Total beta = 28.00000, Total charge = -0.00000
