  ==> Input File <==

--------------------------------------------------------------------------
set {
	reference rhf
	basis 6-31G*
}

set_num_threads( 4 )
memory 2 gb

molecule MOL {
0 1

H	 1.710016	 3.398547	 -2.443794
N	 0.947797	 2.750574	 -2.495736
C	 0.785316	 2.042806	 -1.233916
H	 1.164402	 2.107536	 -3.233581
C	 -0.434708	 1.129147	 -1.284147
H	 0.644857	 2.785961	 -0.454910
H	 1.664911	 1.457888	 -0.953589
C	 -0.679275	 0.379305	 0.025956
H	 -1.302633	 1.729754	 -1.540683
H	 -0.307531	 0.409850	 -2.092710
C	 -1.903357	 -0.536963	 -0.023547
H	 -0.803503	 1.097578	 0.834969
H	 0.199828	 -0.212357	 0.276873
C	 -3.225172	 0.228290	 0.028445
H	 -1.867824	 -1.134999	 -0.931459
H	 -1.860449	 -1.239604	 0.805977
H	 -3.313397	 0.915643	 -0.808262
H	 -4.073500	 -0.448134	 -0.008893
H	 -3.306061	 0.809945	 0.942516

	symmetry c1
}
set optking {
	frozen_dihedral = ("
		12 8 11 15
	")
}

ee = optimize('scf')
oeprop('DIPOLE', 'QUADRUPOLE', 'MULLIKEN_CHARGES')
f=open( 'psi4out.xyz', 'w' )
f.write( "19  " )
f.write( str(ee) + "\n" )
f.write( MOL.save_string_xyz() )
f.close()
--------------------------------------------------------------------------

    Molecular point group: c1
  Charge       = 0
  Multiplicity = 1
  Basis Set: 6-31G*
  Basis Set:
  @DF-RHF Final Energy:  -251.34972767256355
    Total Energy =                       -251.3497276725635743
    Molecular point group: c1
  Basis Set: 6-31G*
  Basis Set:
  Basis Set: 6-31G*
  Basis Set:
  @DF-RHF Final Energy:  -251.34986899946350
    Total Energy =                       -251.3498689994634105
  Basis Set: 6-31G*
  Basis Set:
  Basis Set: 6-31G*
  Basis Set:
  @DF-RHF Final Energy:  -251.34991681499719
    Total Energy =                       -251.3499168149971297
  Basis Set: 6-31G*
  Basis Set:
  Basis Set: 6-31G*
  Basis Set:
  @DF-RHF Final Energy:  -251.34992072904529
    Total Energy =                       -251.3499207290454933
  Basis Set: 6-31G*
  Basis Set:
  Charge       = 0
  Multiplicity = 1
  Basis Set: 6-31G*
  Basis Set:

    Orbital Energies (a.u.)
    -----------------------

    Doubly Occupied:

       1A    -15.532529     2A    -11.239730     3A    -11.214153
       4A    -11.212894     5A    -11.209130     6A    -11.206036
       7A     -1.176602     8A     -1.072156     9A     -0.995213
      10A     -0.902448    11A     -0.820727    12A     -0.779719
      13A     -0.663393    14A     -0.639300    15A     -0.605112
      16A     -0.596362    17A     -0.586317    18A     -0.536279
      19A     -0.516053    20A     -0.511514    21A     -0.484751
      22A     -0.461859    23A     -0.455305    24A     -0.449528
      25A     -0.381120

  @DF-RHF Final Energy:  -251.34992168282082

   => Energetics <=

    Nuclear Repulsion Energy =            248.5274530266846114
    One-Electron Energy =                -831.2582857429379146
    Two-Electron Energy =                 331.3809110334326533
    DFT Exchange-Correlation Energy =       0.0000000000000000
    Empirical Dispersion Energy =           0.0000000000000000
    PCM Polarization Energy =               0.0000000000000000
    EFP Energy =                            0.0000000000000000
    Total Energy =                       -251.3499216828206499
    Molecular point group: c1
  Basis Set: 6-31G*
  Basis Set:

  -Total Gradient:
     Atom            X                  Y                   Z
    ------   -----------------  -----------------  -----------------
       1        0.000000441253     0.000009777587    -0.000011360759
       2        0.000008534482     0.000023349570    -0.000001426519
       3        0.000006644138    -0.000017099301    -0.000009605204
       4       -0.000000964029    -0.000000511892     0.000005943379
       5        0.000016053367    -0.000061255883     0.000007207370
       6        0.000000010575    -0.000004640713     0.000003481247
       7       -0.000000504707     0.000003641596    -0.000000739993
       8        0.000627263286    -0.000900848044     0.001052736987
       9       -0.000016452145    -0.000014975611     0.000007576498
      10        0.000007671382     0.000011704531    -0.000022062823
      11        0.000833559970    -0.001104841133     0.000638675405
      12       -0.000697904362     0.000969385621    -0.000951160840
      13       -0.000014997717     0.000000196554    -0.000004826491
      14        0.000020954221    -0.000013217384     0.000055883976
      15       -0.000786646134     0.001086091115    -0.000755404679
      16       -0.000010546874     0.000004425173    -0.000006676979
      17        0.000025159905    -0.000003878128    -0.000012026772
      18       -0.000010037263    -0.000007574142     0.000009810773
      19       -0.000008239353     0.000020270484    -0.000006024576

  **** Optimization is complete! (in 5 steps) ****
    Final optimized geometry and variables:
    Molecular point group: c1

    Geometry (in Angstrom), charge = 0, multiplicity = 1:

    H            2.473764077974     2.367640689068    -1.578924495322
    N            1.703891818078     1.729293302868    -1.636938639009
    C            1.528518117213     1.016516764433    -0.379589342245
    H            1.915143508859     1.087734128776    -2.377638858936
    C            0.297024049286     0.118516644135    -0.438763675047
    H            1.394943569232     1.757031605690     0.403208181923
    H            2.399896171502     0.419181270059    -0.099874566115
    C            0.046435895582    -0.635869722828     0.869868578293
    H           -0.556949714500     0.734507711821    -0.700419571138
    H            0.419922376185    -0.600402041601    -1.248500957388
    C           -1.178968058537    -1.558366337425     0.834697073991
    H           -0.073731697007     0.085769407745     1.676465144671
    H            0.927830790622    -1.226233058177     1.110714832763
    C           -2.516679854526    -0.817831409394     0.895656909734
    H           -1.149147449223    -2.160890468927    -0.070738208601
    H           -1.125187669515    -2.251482853597     1.670120028658
    H           -2.648755697183    -0.151012763620     0.049921118996
    H           -3.346936202991    -1.517593193723     0.892134573655
    H           -2.591137312414    -0.222134301533     1.801316189236

  Mulliken Charges: (a.u.)
   Center  Symbol    Alpha    Beta     Spin     Total
       1     H     0.33249  0.33249  0.00000  0.33502
       2     N     3.92194  3.92194  0.00000 -0.84389
       3     C     3.05988  3.05988  0.00000 -0.11976
       4     H     0.33536  0.33536  0.00000  0.32929
       5     C     3.15349  3.15349  0.00000 -0.30699
       6     H     0.42085  0.42085  0.00000  0.15829
       7     H     0.43483  0.43483  0.00000  0.13033
       8     C     3.15692  3.15692  0.00000 -0.31383
       9     H     0.41141  0.41141  0.00000  0.17719
      10     H     0.42796  0.42796  0.00000  0.14408
      11     C     3.15241  3.15241  0.00000 -0.30482
      12     H     0.42370  0.42370  0.00000  0.15261
      13     H     0.42270  0.42270  0.00000  0.15459
      14     C     3.24084  3.24084  0.00000 -0.48168
      15     H     0.42324  0.42324  0.00000  0.15351
      16     H     0.42106  0.42106  0.00000  0.15789
      17     H     0.41887  0.41887  0.00000  0.16226
      18     H     0.41984  0.41984  0.00000  0.16032
      19     H     0.42221  0.42221  0.00000  0.15559

   Total alpha = 25.00000, Total beta = 25.00000, Total charge =  0.00000
