  ==> Input File <==

--------------------------------------------------------------------------
set {
	reference rhf
	basis 6-31G*
}

set_num_threads( 4 )
memory 2 gb

molecule MOL {
0 1

H	 -2.698709	 -0.000305	 0.034435
C	 -1.693833	 0.000034	 0.434417
O	 -0.828952	 -0.000968	 -0.659236
H	 -1.574200	 0.882896	 1.055746
H	 -1.574147	 -0.881698	 1.057355
C	 -1.380943	 -0.002123	 -1.955310
C	 -2.179122	 -1.270500	 -2.250344
C	 -2.176503	 1.267069	 -2.253969
H	 -0.506654	 -0.003937	 -2.595346
H	 -1.603182	 -2.148890	 -1.979658
H	 -2.408229	 -1.326703	 -3.309866
H	 -3.120823	 -1.298217	 -1.711275
H	 -1.599078	 2.144998	 -1.985123
H	 -2.404762	 1.321141	 -3.313893
H	 -3.118414	 1.297931	 -1.715739

	symmetry c1
}
set optking {
	frozen_dihedral = ("
		6 3 2 1
	")
}

ee = optimize('scf')
oeprop('DIPOLE', 'QUADRUPOLE', 'MULLIKEN_CHARGES')
f=open( 'psi4out.xyz', 'w' )
f.write( "15  " )
f.write( str(ee) + "\n" )
f.write( MOL.save_string_xyz() )
f.close()
--------------------------------------------------------------------------

    Molecular point group: c1
  Charge       = 0
  Multiplicity = 1
  Basis Set: 6-31G*
  Basis Set:
  @DF-RHF Final Energy:  -232.13298052471066
    Total Energy =                       -232.1329805247107174
    Molecular point group: c1
  Basis Set: 6-31G*
  Basis Set:
  Basis Set: 6-31G*
  Basis Set:
  @DF-RHF Final Energy:  -232.13465069701743
    Total Energy =                       -232.1346506970173209
  Basis Set: 6-31G*
  Basis Set:
  Basis Set: 6-31G*
  Basis Set:
  @DF-RHF Final Energy:  -232.13532467959328
    Total Energy =                       -232.1353246795932819
  Basis Set: 6-31G*
  Basis Set:
  Basis Set: 6-31G*
  Basis Set:
  @DF-RHF Final Energy:  -232.13533949692027
    Total Energy =                       -232.1353394969203805
  Basis Set: 6-31G*
  Basis Set:
  Basis Set: 6-31G*
  Basis Set:
  @DF-RHF Final Energy:  -232.13534773420682
    Total Energy =                       -232.1353477342067890
  Basis Set: 6-31G*
  Basis Set:
  Basis Set: 6-31G*
  Basis Set:
  @DF-RHF Final Energy:  -232.13534380883993
    Total Energy =                       -232.1353438088401049
  Basis Set: 6-31G*
  Basis Set:
  Charge       = 0
  Multiplicity = 1
  Basis Set: 6-31G*
  Basis Set:

    Orbital Energies (a.u.)
    -----------------------

    Doubly Occupied:

       1A    -20.545720     2A    -11.275014     3A    -11.261468
       4A    -11.210449     5A    -11.210430     6A     -1.367795
       7A     -1.049925     8A     -0.939752     9A     -0.931501
      10A     -0.781606    11A     -0.675720    12A     -0.638126
      13A     -0.631917    14A     -0.569020    15A     -0.563548
      16A     -0.552355    17A     -0.538594    18A     -0.500861
      19A     -0.497935    20A     -0.441656    21A     -0.402702

  @DF-RHF Final Energy:  -232.13534849002778

   => Energetics <=

    Nuclear Repulsion Energy =            198.5993411587080857
    One-Electron Energy =                -708.2971924694103336
    Two-Electron Energy =                 277.5625028206743536
    DFT Exchange-Correlation Energy =       0.0000000000000000
    Empirical Dispersion Energy =           0.0000000000000000
    PCM Polarization Energy =               0.0000000000000000
    EFP Energy =                            0.0000000000000000
    Total Energy =                       -232.1353484900279227
    Molecular point group: c1
  Basis Set: 6-31G*
  Basis Set:

  -Total Gradient:
     Atom            X                  Y                   Z
    ------   -----------------  -----------------  -----------------
       1        0.000000180458     0.000000058930    -0.000000876854
       2        0.000004070651    -0.000000283761     0.000002868897
       3       -0.000008487128    -0.000000318963    -0.000000309185
       4        0.000002216620    -0.000004197589    -0.000001650662
       5        0.000002231053     0.000004213651    -0.000001511501
       6        0.000012478628     0.000000408258     0.000027452777
       7       -0.000009399688    -0.000003668066    -0.000009652750
       8       -0.000009851927     0.000003668450    -0.000009401019
       9        0.000001124526    -0.000000025169    -0.000001536321
      10        0.000001777086     0.000000230700    -0.000002395769
      11       -0.000000106364     0.000000430614     0.000001678284
      12        0.000001039026    -0.000001433026    -0.000001751351
      13        0.000001820453    -0.000000203195    -0.000002577331
      14       -0.000000087960    -0.000000633995     0.000001711663
      15        0.000000994565     0.000001753159    -0.000002048876

  **** Optimization is complete! (in 7 steps) ****
    Final optimized geometry and variables:
    Molecular point group: c1

    Geometry (in Angstrom), charge = 0, multiplicity = 1:

    H           -1.102897231315     0.002616741166     1.465094584545
    C           -0.059494330206     0.001961330103     1.756207387440
    O            0.815775524506    -0.000037526684     0.665299065480
    H            0.122126360311     0.882943918626     2.362450013056
    H            0.120487624502    -0.878038534202     2.364363078277
    C            0.289517634774    -0.000964841392    -0.640641292600
    C           -0.498596042898    -1.272859915192    -0.946624790721
    C           -0.496223165580     1.271728641539    -0.949395812166
    H            1.175036233313    -0.002469908113    -1.264874715717
    H            0.095148753677    -2.146963481796    -0.702587616042
    H           -0.750148386972    -1.314780524528    -2.001933264366
    H           -1.427167083320    -1.324614407891    -0.386801734132
    H            0.099156957026     2.145253704382    -0.707278779813
    H           -0.747709582613     1.311808477136    -2.004791547270
    H           -1.424689406396     1.326444452146    -0.389680860608

  Mulliken Charges: (a.u.)
   Center  Symbol    Alpha    Beta     Spin     Total
       1     H     0.42964  0.42964  0.00000  0.14071
       2     C     3.07867  3.07867  0.00000 -0.15734
       3     O     4.31558  4.31558  0.00000 -0.63116
       4     H     0.42046  0.42046  0.00000  0.15908
       5     H     0.42046  0.42046  0.00000  0.15908
       6     C     2.90995  2.90995  0.00000  0.18010
       7     C     3.25105  3.25105  0.00000 -0.50211
       8     C     3.25105  3.25105  0.00000 -0.50210
       9     H     0.41548  0.41548  0.00000  0.16905
      10     H     0.41164  0.41164  0.00000  0.17672
      11     H     0.42004  0.42004  0.00000  0.15991
      12     H     0.42214  0.42214  0.00000  0.15571
      13     H     0.41164  0.41164  0.00000  0.17672
      14     H     0.42004  0.42004  0.00000  0.15991
      15     H     0.42214  0.42214  0.00000  0.15571

   Total alpha = 21.00000, Total beta = 21.00000, Total charge =  0.00000
