  ==> Input File <==

--------------------------------------------------------------------------
set {
	reference rhf
	basis 6-31G*
}

set_num_threads( 1 )
memory 2 gb

molecule MOL {
0 1

H	 3.089270	 -1.380733	 0.000000
O	 2.178328	 -1.639175	 0.000000
C	 1.368216	 -0.558384	 0.000000
C	 -0.016576	 -0.666338	 0.000000
C	 1.964833	 0.690407	 -0.000000
H	 -0.478870	 -1.639128	 0.000000
C	 -0.803133	 0.473398	 0.000000
H	 3.034359	 0.775202	 -0.000000
C	 1.170124	 1.826407	 -0.000000
H	 -1.873710	 0.377252	 0.000000
C	 -0.215365	 1.725460	 -0.000000
C	 1.804592	 3.171145	 -0.000000
H	 -0.824401	 2.612072	 -0.000000
O	 2.978374	 3.362934	 -0.000000
H	 1.103723	 4.011402	 -0.000000

	symmetry c1
}
set optking {
	frozen_dihedral = ("
		11 9 12 14
	")
}

ee = energy('scf')
oeprop('DIPOLE', 'QUADRUPOLE', 'MULLIKEN_CHARGES')
f=open( 'psi4out.xyz', 'w' )
f.write( "15  " )
f.write( str(ee) + "\n" )
f.write( MOL.save_string_xyz() )
f.close()
--------------------------------------------------------------------------

    Molecular point group: c1

    Geometry (in Angstrom), charge = 0, multiplicity = 1:

       Center              X                  Y                   Z               Mass
    ------------   -----------------  -----------------  -----------------  -----------------
           H          1.861481408811    -2.301027700742     0.000000000000     1.007825032070
           O          0.950539408811    -2.559469700742     0.000000000000    15.994914619560
           C          0.140427408811    -1.478678700742     0.000000000000    12.000000000000
           C         -1.244364591189    -1.586632700742     0.000000000000    12.000000000000
           C          0.737044408811    -0.229887700742     0.000000000000    12.000000000000
           H         -1.706658591189    -2.559422700742     0.000000000000     1.007825032070
           C         -2.030921591189    -0.446896700742     0.000000000000    12.000000000000
           H          1.806570408811    -0.145092700742     0.000000000000     1.007825032070
           C         -0.057664591189     0.906112299258     0.000000000000    12.000000000000
           H         -3.101498591189    -0.543042700742     0.000000000000     1.007825032070
           C         -1.443153591189     0.805165299258     0.000000000000    12.000000000000
           C          0.576803408811     2.250850299258     0.000000000000    12.000000000000
           H         -2.052189591189     1.691777299258     0.000000000000     1.007825032070
           O          1.750585408811     2.442639299258     0.000000000000    15.994914619560
           H         -0.124065591189     3.091107299258     0.000000000000     1.007825032070

  Charge       = 0
  Multiplicity = 1
  Basis Set: 6-31G*
  Basis Set:

    Orbital Energies (a.u.)
    -----------------------

    Doubly Occupied:

       1A    -20.599668     2A    -20.567545     3A    -11.335499
       4A    -11.313826     5A    -11.254034     6A    -11.252826
       7A    -11.247465     8A    -11.247307     9A    -11.243999
      10A     -1.420727    11A     -1.408469    12A     -1.170447
      13A     -1.050145    14A     -1.026521    15A     -0.901440
      16A     -0.853546    17A     -0.797971    18A     -0.754273
      19A     -0.703634    20A     -0.669560    21A     -0.660439
      22A     -0.630705    23A     -0.615401    24A     -0.601346
      25A     -0.574192    26A     -0.553552    27A     -0.533247
      28A     -0.520490    29A     -0.486814    30A     -0.425947
      31A     -0.354400    32A     -0.326754

  @DF-RHF Final Energy:  -418.28535654430283

   => Energetics <=

    Nuclear Repulsion Energy =            403.5222935187808275
    One-Electron Energy =               -1369.4108055921612959
    Two-Electron Energy =                 547.6031555290753658
    DFT Exchange-Correlation Energy =       0.0000000000000000
    Empirical Dispersion Energy =           0.0000000000000000
    PCM Polarization Energy =               0.0000000000000000
    EFP Energy =                            0.0000000000000000
    Total Energy =                       -418.2853565443051593

  Mulliken Charges: (a.u.)
   Center  Symbol    Alpha    Beta     Spin     Total
       1     H     0.26686  0.26686  0.00000  0.46629
       2     O     4.38079  4.38079  0.00000 -0.76157
       3     C     2.78294  2.78294  0.00000  0.43413
       4     C     3.11711  3.11711  0.00000 -0.23423
       5     C     3.14085  3.14085  0.00000 -0.28170
       6     H     0.38661  0.38661  0.00000  0.22677
       7     C     3.09516  3.09516  0.00000 -0.19032
       8     H     0.38281  0.38281  0.00000  0.23439
       9     C     3.04634  3.04634  0.00000 -0.09268
      10     H     0.39172  0.39172  0.00000  0.21657
      11     C     3.11523  3.11523  0.00000 -0.23047
      12     C     2.83220  2.83220  0.00000  0.33561
      13     H     0.39296  0.39296  0.00000  0.21407
      14     O     4.24754  4.24754  0.00000 -0.49507
      15     H     0.42090  0.42090  0.00000  0.15821

   Total alpha = 32.00000, Total beta = 32.00000, Total charge = -0.00000
