                              Psi4 1.0.54 Driver

  ==> Input File <==

--------------------------------------------------------------------------
set {
	reference rhf
	basis cc-pvtz
}

set_num_threads( 4 )
memory 2 gb

molecule MOL {
0 1

O	 2.868453	 1.353349	 -0.000734
C	 2.841259	 0.166180	 -0.000295
C	 1.542794	 -0.614730	 -0.000853
C	 4.113372	 -0.651103	 0.000743
C	 0.288398	 0.247429	 0.000314
H	 1.557171	 -1.273139	 -0.866508
H	 1.557484	 -1.274998	 0.863344
C	 -0.663466	 -0.103328	 1.140505
H	 -0.219637	 0.137137	 -0.950923
H	 0.574348	 1.290950	 0.066871
C	 -1.925705	 0.753953	 1.152855
H	 -0.944066	 -1.151847	 1.068768
H	 -0.146606	 0.007621	 2.091193
C	 -2.883017	 0.408966	 2.290077
H	 -2.443179	 0.643527	 0.203044
H	 -1.646283	 1.802189	 1.225332
C	 -4.141927	 1.269722	 2.295749
H	 -3.163790	 -0.638352	 2.217738
H	 -2.366989	 0.520300	 3.239939
H	 -4.699129	 1.153979	 1.372077
H	 -4.799276	 0.999488	 3.114215
H	 -3.896467	 2.321143	 2.402091
H	 4.145311	 -1.294584	 -0.871587
H	 4.970080	 0.004978	 -0.000091
H	 4.145223	 -1.291980	 0.874988

	symmetry c1
}
set optking {
	frozen_dihedral = ("
		9 5 3 6
	")
}

ee,wfn = optimize('scf', return_wfn=True)
oeprop( wfn, 'DIPOLE', 'QUADRUPOLE', 'MULLIKEN_CHARGES')
f=open( 'psi4out.xyz', 'w' )
f.write( "25  " )
f.write( str(ee) + "\n" )
f.write( MOL.save_string_xyz() )
f.close()
--------------------------------------------------------------------------

    Molecular point group: c1
  Charge       = 0
  Multiplicity = 1
  Basis Set: CC-PVTZ
  Basis Set:
  @DF-RHF Final Energy:  -387.26991384414833
    Total Energy =                       -387.2699138441487321
    Molecular point group: c1
  Basis Set: CC-PVTZ
  Basis Set:
  Basis Set: CC-PVTZ
  Basis Set:
  @DF-RHF Final Energy:  -387.27021332239252
    Total Energy =                       -387.2702133223929195
  Basis Set: CC-PVTZ
  Basis Set:
  Basis Set: CC-PVTZ
  Basis Set:
  @DF-RHF Final Energy:  -387.27011078985225
    Total Energy =                       -387.2701107898518558
  Basis Set: CC-PVTZ
  Basis Set:
  Basis Set: CC-PVTZ
  Basis Set:
  @DF-RHF Final Energy:  -387.27031345301600
    Total Energy =                       -387.2703134530163425
  Basis Set: CC-PVTZ
  Basis Set:
  @DF-RHF Final Energy:  -387.27031595828862
    Total Energy =                       -387.2703159582881653
  @DF-RHF Final Energy:  -387.27031813713512
    Total Energy =                       -387.2703181371351775
  @DF-RHF Final Energy:  -387.27032170511364
    Total Energy =                       -387.2703217051134743
  @DF-RHF Final Energy:  -387.27032523657573
    Total Energy =                       -387.2703252365756725
  @DF-RHF Final Energy:  -387.27032830388038
    Total Energy =                       -387.2703283038799782
  @DF-RHF Final Energy:  -387.27033056695427
    Total Energy =                       -387.2703305669543852
  @DF-RHF Final Energy:  -387.27033277341627
    Total Energy =                       -387.2703327734159302
  Basis Set: CC-PVTZ
  Basis Set:
  @DF-RHF Final Energy:  -387.27033489697442
    Total Energy =                       -387.2703348969739636
  Basis Set: CC-PVTZ
  Basis Set:
  Basis Set: CC-PVTZ
  Basis Set:
  @DF-RHF Final Energy:  -387.27033829029688
    Total Energy =                       -387.2703382902968769
  Basis Set: CC-PVTZ
  Basis Set:
  Basis Set: CC-PVTZ
  Basis Set:
  @DF-RHF Final Energy:  -387.27034187607740
    Total Energy =                       -387.2703418760773957
  Basis Set: CC-PVTZ
  Basis Set:
  Charge       = 0
  Multiplicity = 1
  Basis Set: CC-PVTZ
  Basis Set:

    Orbital Energies (a.u.)
    -----------------------

    Doubly Occupied:

       1A    -20.539642     2A    -11.321803     3A    -11.230474
       4A    -11.227036     5A    -11.213896     6A    -11.213066
       7A    -11.212438     8A    -11.210182     9A    -11.205571
      10A     -1.400048    11A     -1.093109    12A     -1.056441
      13A     -1.015558    14A     -0.968896    15A     -0.891462
      16A     -0.815225    17A     -0.790450    18A     -0.730530
      19A     -0.668257    20A     -0.644967    21A     -0.634729
      22A     -0.624145    23A     -0.596240    24A     -0.584072
      25A     -0.573240    26A     -0.560157    27A     -0.535605
      28A     -0.526911    29A     -0.516285    30A     -0.497504
      31A     -0.484063    32A     -0.472138    33A     -0.463134
      34A     -0.460775    35A     -0.447398    36A     -0.403051

  @DF-RHF Final Energy:  -387.27034258632006

   => Energetics <=

    Nuclear Repulsion Energy =            440.8006726456613364
    One-Electron Energy =               -1398.4850294490261149
    Two-Electron Energy =                 570.4140142170449508
    DFT Exchange-Correlation Energy =       0.0000000000000000
    Empirical Dispersion Energy =           0.0000000000000000
    PCM Polarization Energy =               0.0000000000000000
    EFP Energy =                            0.0000000000000000
    Total Energy =                       -387.2703425863198845
    Molecular point group: c1
  Basis Set: CC-PVTZ
  Basis Set:

  -Total Gradient:
     Atom            X                  Y                   Z
    ------   -----------------  -----------------  -----------------
       1       -0.000031385722    -0.000006077848    -0.000009185213
       2       -0.000041243426    -0.000006627129     0.000001114562
       3       -0.000609576295    -0.000932675862     0.000715807219
       4        0.000042267493    -0.000052550344     0.000024796082
       5        0.000659295630     0.001018936060    -0.000560433992
       6        0.000441174434     0.000616046916    -0.000508314809
       7        0.000001597497     0.000000852758     0.000000252892
       8        0.000010982704    -0.000000577466     0.000000713966
       9       -0.000451869007    -0.000685948705     0.000355765986
      10        0.000014771988     0.000002857196     0.000008761536
      11        0.000008272034     0.000004271890    -0.000007218846
      12        0.000003411334     0.000002847469    -0.000000636616
      13        0.000001228043    -0.000000922592    -0.000000462465
      14       -0.000002538276    -0.000000883869     0.000004114252
      15       -0.000000923207     0.000002133082    -0.000001862305
      16       -0.000002852483    -0.000002401010     0.000000998523
      17       -0.000004183808     0.000000029629     0.000001995375
      18        0.000000623450    -0.000000188362    -0.000000490416
      19       -0.000000170102     0.000001010572    -0.000001720687
      20       -0.000000849060    -0.000000135077    -0.000000519767
      21       -0.000000887357     0.000000074393    -0.000000319565
      22        0.000000368502     0.000000097191     0.000000162763
      23       -0.000010612091     0.000013023771     0.000014669851
      24       -0.000017884986    -0.000007449573    -0.000002704778
      25       -0.000009017286     0.000034256912    -0.000035283551

  **** Optimization is complete! (in 15 steps) ****
    Final optimized geometry and variables:
    Molecular point group: c1

    Geometry (in Angstrom), charge = 0, multiplicity = 1:

    O            2.702563842281     1.016673433885    -0.634698016196
    C            2.647160720475    -0.164635791639    -0.736670948642
    C            1.339241446329    -0.936668797538    -0.729028300018
    C            3.900524047059    -0.998551151135    -0.880961315715
    C            0.066252198681    -0.080628651128    -0.750404594741
    H            1.370922011553    -1.623825064918    -1.568973888753
    H            1.369747304956    -1.567088685877     0.156296194878
    C           -0.900160791851    -0.410048629461     0.386045421463
    H           -0.444955100094    -0.222209402332    -1.696698667716
    H            0.343257025934     0.962652597333    -0.696500781291
    C           -2.172523469118     0.430324290939     0.353205355073
    H           -1.165162928338    -1.464444914711     0.345407778686
    H           -0.394435553002    -0.258797586259     1.336869453307
    C           -3.138632968448     0.114429587823     1.491539484231
    H           -2.678484521285     0.278933262036    -0.597590059549
    H           -1.906265595883     1.483666824179     0.390735527630
    C           -4.408485546392     0.958020018016     1.451533714591
    H           -3.405074499793    -0.938535644751     1.454886674865
    H           -2.634992992043     0.267752083648     2.442068560068
    H           -4.953872761411     0.800738202156     0.526837783233
    H           -5.071527584666     0.709685578599     2.272378254414
    H           -4.177581755917     2.015750445885     1.521340951521
    H            3.942742806642    -1.412812430402    -1.882864949135
    H            4.771352859246    -0.383987631950    -0.712429808704
    H            3.893721361994    -1.831061270075    -0.187221378038

  Mulliken Charges: (a.u.)
   Center  Symbol    Alpha    Beta     Spin     Total
       1     O     4.17070  4.17070  0.00000 -0.34139
       2     C     2.85837  2.85837  0.00000  0.28325
       3     C     3.12172  3.12172  0.00000 -0.24343
       4     C     3.15094  3.15094  0.00000 -0.30188
       5     C     3.09630  3.09630  0.00000 -0.19261
       6     H     0.43919  0.43919  0.00000  0.12162
       7     H     0.44280  0.44280  0.00000  0.11441
       8     C     3.09242  3.09242  0.00000 -0.18483
       9     H     0.45125  0.45125  0.00000  0.09750
      10     H     0.43486  0.43486  0.00000  0.13028
      11     C     3.08767  3.08767  0.00000 -0.17533
      12     H     0.45513  0.45513  0.00000  0.08973
      13     H     0.45317  0.45317  0.00000  0.09365
      14     C     3.08367  3.08367  0.00000 -0.16734
      15     H     0.45569  0.45569  0.00000  0.08862
      16     H     0.45182  0.45182  0.00000  0.09637
      17     C     3.15056  3.15056  0.00000 -0.30113
      18     H     0.45568  0.45568  0.00000  0.08864
      19     H     0.45453  0.45453  0.00000  0.09095
      20     H     0.45547  0.45547  0.00000  0.08907
      21     H     0.44868  0.44868  0.00000  0.10264
      22     H     0.45438  0.45438  0.00000  0.09124
      23     H     0.44895  0.44895  0.00000  0.10210
      24     H     0.43544  0.43544  0.00000  0.12911
      25     H     0.45062  0.45062  0.00000  0.09877

   Total alpha = 36.00000, Total beta = 36.00000, Total charge = -0.00000

*** Psi4 exiting successfully. Buy a developer a beer!
