  ==> Input File <==

--------------------------------------------------------------------------
set {
	reference rhf
	basis cc-pvtz
}

set_num_threads( 4 )
memory 2 gb

molecule MOL {
0 1

H	 3.083659	 -1.378387	 0.000000
O	 2.179005	 -1.633391	 0.000000
C	 1.366950	 -0.558201	 0.000000
C	 1.730752	 0.644615	 0.586141
C	 0.135807	 -0.682803	 -0.610560
H	 2.690197	 0.739930	 1.061336
C	 0.864091	 1.718486	 0.560525
H	 -0.148091	 -1.610441	 -1.064137
C	 -0.726642	 0.398447	 -0.631669
H	 1.156333	 2.644130	 1.017253
C	 -0.369316	 1.602081	 -0.048226
C	 -2.055690	 0.277284	 -1.286138
H	 -1.045345	 2.435394	 -0.069721
O	 -2.460909	 -0.701150	 -1.813285
H	 -2.666627	 1.184579	 -1.251902

	symmetry c1
}
set optking {
	frozen_dihedral = ("
		4 3 2 1
	")
}

ee = optimize('scf')
oeprop('DIPOLE', 'QUADRUPOLE', 'MULLIKEN_CHARGES')
f=open( 'psi4out.xyz', 'w' )
f.write( "15  " )
f.write( str(ee) + "\n" )
f.write( MOL.save_string_xyz() )
f.close()
--------------------------------------------------------------------------

    Molecular point group: c1
  Charge       = 0
  Multiplicity = 1
  Basis Set: CC-PVTZ
  Basis Set:
  @DF-RHF Final Energy:  -418.43777790617622
    Total Energy =                       -418.4377779061755973
    Molecular point group: c1
  Basis Set: CC-PVTZ
  Basis Set:
  Basis Set: CC-PVTZ
  Basis Set:
  @DF-RHF Final Energy:  -418.43784881032286
    Total Energy =                       -418.4378488103230893
  Basis Set: CC-PVTZ
  Basis Set:
  Basis Set: CC-PVTZ
  Basis Set:
  @DF-RHF Final Energy:  -418.43791389130791
    Total Energy =                       -418.4379138913081988
  Basis Set: CC-PVTZ
  Basis Set:
  Basis Set: CC-PVTZ
  Basis Set:
  @DF-RHF Final Energy:  -418.43792464700385
    Total Energy =                       -418.4379246470036833
  Basis Set: CC-PVTZ
  Basis Set:
  Basis Set: CC-PVTZ
  Basis Set:
  @DF-RHF Final Energy:  -418.43793195253306
    Total Energy =                       -418.4379319525327219
  Basis Set: CC-PVTZ
  Basis Set:
  Basis Set: CC-PVTZ
  Basis Set:
  @DF-RHF Final Energy:  -418.43793309610828
    Total Energy =                       -418.4379330961086225
  Basis Set: CC-PVTZ
  Basis Set:
  Charge       = 0
  Multiplicity = 1
  Basis Set: CC-PVTZ
  Basis Set:

    Orbital Energies (a.u.)
    -----------------------

    Doubly Occupied:

       1A    -20.592373     2A    -20.554408     3A    -11.327641
       4A    -11.309696     5A    -11.250811     6A    -11.250576
       7A    -11.247886     8A    -11.244860     9A    -11.238082
      10A     -1.423155    11A     -1.410196    12A     -1.174529
      13A     -1.052195    14A     -1.030886    15A     -0.901955
      16A     -0.849831    17A     -0.814918    18A     -0.740934
      19A     -0.705313    20A     -0.689838    21A     -0.645136
      22A     -0.641275    23A     -0.618596    24A     -0.610868
      25A     -0.568793    26A     -0.555776    27A     -0.545030
      28A     -0.514506    29A     -0.492704    30A     -0.426862
      31A     -0.358029    32A     -0.334258

  @DF-RHF Final Energy:  -418.43793314794368

   => Energetics <=

    Nuclear Repulsion Energy =            403.9585717430189789
    One-Electron Energy =               -1370.5491761094153844
    Two-Electron Energy =                 548.1526712184527241
    DFT Exchange-Correlation Energy =       0.0000000000000000
    Empirical Dispersion Energy =           0.0000000000000000
    PCM Polarization Energy =               0.0000000000000000
    EFP Energy =                            0.0000000000000000
    Total Energy =                       -418.4379331479436814
    Molecular point group: c1
  Basis Set: CC-PVTZ
  Basis Set:

  -Total Gradient:
     Atom            X                  Y                   Z
    ------   -----------------  -----------------  -----------------
       1        0.000066075913    -0.000003715777    -0.002006612572
       2       -0.000425031167    -0.000246365921     0.003194646220
       3        0.001014558888     0.000714375279    -0.002438798027
       4       -0.000633204153    -0.000479631239     0.001272570308
       5       -0.000026118179     0.000010797999    -0.000013181314
       6       -0.000003912954     0.000000478362     0.000004208322
       7       -0.000014747334     0.000027710907    -0.000049004633
       8        0.000001180480    -0.000002071764     0.000003708487
       9        0.000010456519    -0.000027739181    -0.000022156377
      10       -0.000000016886    -0.000001759152     0.000004516772
      11        0.000009311294     0.000005787067     0.000056425562
      12        0.000006221839     0.000006919814    -0.000013028210
      13       -0.000001044534    -0.000000949655    -0.000001648557
      14       -0.000002655080    -0.000002654957     0.000004947798
      15       -0.000001074642    -0.000001181786     0.000003406213

  **** Optimization is complete! (in 7 steps) ****
    Final optimized geometry and variables:
    Molecular point group: c1

    Geometry (in Angstrom), charge = 0, multiplicity = 1:

    H            3.004577312188    -1.446606483298     0.420533819776
    O            2.099080831834    -1.698236134454     0.391589698479
    C            1.290868564867    -0.615241766994     0.362617951590
    C            1.651126145873     0.583712167153     0.961096333273
    C            0.058236941611    -0.741700203272    -0.239793859708
    H            2.605996035262     0.670307567581     1.446230142556
    C            0.785776938901     1.657301568452     0.937696624658
    H           -0.225082356721    -1.668179218920    -0.696261586561
    C           -0.810637791586     0.337031406178    -0.249310106953
    H            1.075473351050     2.581551075323     1.398820545491
    C           -0.451484424177     1.538670568626     0.333860104481
    C           -2.142704651954     0.214782282514    -0.896639036546
    H           -1.129492438896     2.370720589101     0.318793497391
    O           -2.547311431743    -0.761980580333    -1.427235871671
    H           -2.756392488876     1.120102097340    -0.853302912840

  Mulliken Charges: (a.u.)
   Center  Symbol    Alpha    Beta     Spin     Total
       1     H     0.38600  0.38600  0.00000  0.22801
       2     O     4.17475  4.17475  0.00000 -0.34949
       3     C     2.84974  2.84974  0.00000  0.30053
       4     C     3.12067  3.12067  0.00000 -0.24134
       5     C     3.11856  3.11856  0.00000 -0.23711
       6     H     0.42672  0.42672  0.00000  0.14657
       7     C     3.06405  3.06405  0.00000 -0.12809
       8     H     0.40387  0.40387  0.00000  0.19226
       9     C     2.97195  2.97195  0.00000  0.05611
      10     H     0.41932  0.41932  0.00000  0.16136
      11     C     3.10671  3.10671  0.00000 -0.21341
      12     C     2.90904  2.90904  0.00000  0.18192
      13     H     0.42302  0.42302  0.00000  0.15396
      14     O     4.16909  4.16909  0.00000 -0.33818
      15     H     0.45654  0.45654  0.00000  0.08691

   Total alpha = 32.00000, Total beta = 32.00000, Total charge = -0.00000
