                              Psi4 1.0.54 Driver

  ==> Input File <==

--------------------------------------------------------------------------
set {
	reference rhf
	basis cc-pvtz
}

set_num_threads( 4 )
memory 2 gb

molecule MOL {
0 1

O	 -1.510770	 1.240811	 -0.054933
C	 -1.081510	 0.147522	 0.122720
C	 0.327029	 -0.064006	 0.641890
C	 -1.903028	 -1.084121	 -0.174656
C	 1.349460	 -0.017068	 -0.500215
H	 0.399029	 -1.014606	 1.159950
H	 0.538021	 0.726928	 1.350471
C	 2.327929	 -1.185054	 -0.453834
H	 0.832408	 -0.018487	 -1.455460
H	 1.891328	 0.919542	 -0.441342
H	 3.045170	 -1.121769	 -1.263519
H	 1.811258	 -2.134825	 -0.541797
H	 2.880371	 -1.193368	 0.479231
H	 -1.341891	 -1.779207	 -0.789259
H	 -2.820449	 -0.808163	 -0.671328
H	 -2.133314	 -1.593056	 0.755831

	symmetry c1
}
set optking {
	frozen_dihedral = ("
		9 5 3 2
	")
}

ee,wfn = optimize('scf', return_wfn=True)
oeprop( wfn, 'DIPOLE', 'QUADRUPOLE', 'MULLIKEN_CHARGES')
f=open( 'psi4out.xyz', 'w' )
f.write( "16  " )
f.write( str(ee) + "\n" )
f.write( MOL.save_string_xyz() )
f.close()
--------------------------------------------------------------------------

    Molecular point group: c1
  Charge       = 0
  Multiplicity = 1
  Basis Set: CC-PVTZ
  Basis Set:
  @DF-RHF Final Energy:  -270.12389882963168
    Total Energy =                       -270.1238988296320258
    Molecular point group: c1
  Basis Set: CC-PVTZ
  Basis Set:
  Basis Set: CC-PVTZ
  Basis Set:
  @DF-RHF Final Energy:  -270.12413075943442
    Total Energy =                       -270.1241307594343652
  Basis Set: CC-PVTZ
  Basis Set:
  Basis Set: CC-PVTZ
  Basis Set:
  @DF-RHF Final Energy:  -270.12173155519554
    Total Energy =                       -270.1217315551954243
  Basis Set: CC-PVTZ
  Basis Set:
  Basis Set: CC-PVTZ
  Basis Set:
  @DF-RHF Final Energy:  -270.12445999554643
    Total Energy =                       -270.1244599955466583
  Basis Set: CC-PVTZ
  Basis Set:
  @DF-RHF Final Energy:  -270.12457173765489
    Total Energy =                       -270.1245717376551170
  @DF-RHF Final Energy:  -270.12462079088903
    Total Energy =                       -270.1246207908890824
  Basis Set: CC-PVTZ
  Basis Set:
  @DF-RHF Final Energy:  -270.12462707824790
    Total Energy =                       -270.1246270782479542
  Basis Set: CC-PVTZ
  Basis Set:
  Basis Set: CC-PVTZ
  Basis Set:
  @DF-RHF Final Energy:  -270.12463076507714
    Total Energy =                       -270.1246307650771996
  Basis Set: CC-PVTZ
  Basis Set:
  Basis Set: CC-PVTZ
  Basis Set:
  @DF-RHF Final Energy:  -270.12463303288916
    Total Energy =                       -270.1246330328897329
  Basis Set: CC-PVTZ
  Basis Set:
  Charge       = 0
  Multiplicity = 1
  Basis Set: CC-PVTZ
  Basis Set:

    Orbital Energies (a.u.)
    -----------------------

    Doubly Occupied:

       1A    -20.536968     2A    -11.319590     3A    -11.233859
       4A    -11.228547     5A    -11.227228     6A    -11.220647
       7A     -1.396898     8A     -1.083827     9A     -1.012910
      10A     -0.952568    11A     -0.833683    12A     -0.736753
      13A     -0.657009    14A     -0.653436    15A     -0.615406
      16A     -0.601951    17A     -0.585717    18A     -0.561398
      19A     -0.540494    20A     -0.518528    21A     -0.504649
      22A     -0.483547    23A     -0.476458    24A     -0.400153

  @DF-RHF Final Energy:  -270.12463432697052

   => Energetics <=

    Nuclear Repulsion Energy =            238.3285963197202761
    One-Electron Energy =                -838.1420172332722132
    Two-Electron Energy =                 329.6887865865816138
    DFT Exchange-Correlation Energy =       0.0000000000000000
    Empirical Dispersion Energy =           0.0000000000000000
    PCM Polarization Energy =               0.0000000000000000
    EFP Energy =                            0.0000000000000000
    Total Energy =                       -270.1246343269702948
    Molecular point group: c1
  Basis Set: CC-PVTZ
  Basis Set:

  -Total Gradient:
     Atom            X                  Y                   Z
    ------   -----------------  -----------------  -----------------
       1       -0.000020518444     0.000050715851     0.000003246038
       2       -0.000311191835    -0.001883790461    -0.000036135395
       3        0.000496655384     0.003134727671    -0.000056490189
       4        0.000018995001     0.000023743279    -0.000005274296
       5       -0.000272416298    -0.003850676812     0.000318167567
       6       -0.000009737047    -0.000003753311     0.000010587563
       7       -0.000002052110     0.000001549414     0.000005739947
       8        0.000012954164    -0.000014138861    -0.000001406699
       9        0.000112358302     0.002570146590    -0.000243901952
      10        0.000005889615     0.000000507681    -0.000001482109
      11       -0.000000413092     0.000000141425     0.000000170567
      12       -0.000001539128     0.000002328587    -0.000000183466
      13       -0.000001100848     0.000001823082    -0.000000697345
      14        0.000028828847    -0.000018753200    -0.000020664170
      15       -0.000043974373     0.000020842471    -0.000026248988
      16       -0.000012738136    -0.000035413403     0.000054572924

  **** Optimization is complete! (in 10 steps) ****
    Final optimized geometry and variables:
    Molecular point group: c1

    Geometry (in Angstrom), charge = 0, multiplicity = 1:

    O           -1.447326788939     1.501429192519     0.146488429988
    C           -0.989606437101     0.406217894004     0.191886454527
    C            0.410477305174     0.149491924522     0.707085837664
    C           -1.780275155475    -0.797916354016    -0.267053364181
    C            1.427837225662    -0.001558313263    -0.450457673339
    H            0.399680933671    -0.757776704907     1.302443664175
    H            0.684954426804     0.969770459583     1.354043001116
    C            2.365291742369    -1.191760092968    -0.286350908076
    H            0.909058575386    -0.068279262921    -1.401137576486
    H            2.010572546801     0.909170607155    -0.514091180741
    H            3.081230816134    -1.238283445709    -1.098460866978
    H            1.815147863669    -2.126722691704    -0.273649815090
    H            2.920640297357    -1.123598993240     0.642837302090
    H           -1.177390775852    -1.455481249340    -0.881964272941
    H           -2.656140077575    -0.479641527491    -0.811443284966
    H           -2.088742318602    -1.365378484786     0.605448475678

  Mulliken Charges: (a.u.)
   Center  Symbol    Alpha    Beta     Spin     Total
       1     O     4.17557  4.17557  0.00000 -0.35115
       2     C     2.85742  2.85742  0.00000  0.28516
       3     C     3.09924  3.09924  0.00000 -0.19848
       4     C     3.15680  3.15680  0.00000 -0.31361
       5     C     3.09683  3.09683  0.00000 -0.19365
       6     H     0.45173  0.45173  0.00000  0.09654
       7     H     0.43691  0.43691  0.00000  0.12618
       8     C     3.14755  3.14755  0.00000 -0.29510
       9     H     0.44920  0.44920  0.00000  0.10160
      10     H     0.44062  0.44062  0.00000  0.11875
      11     H     0.44675  0.44675  0.00000  0.10649
      12     H     0.45589  0.45589  0.00000  0.08821
      13     H     0.45179  0.45179  0.00000  0.09642
      14     H     0.45079  0.45079  0.00000  0.09841
      15     H     0.43542  0.43542  0.00000  0.12915
      16     H     0.44747  0.44747  0.00000  0.10507

   Total alpha = 24.00000, Total beta = 24.00000, Total charge = -0.00000

*** Psi4 exiting successfully. Buy a developer a beer!
