                              Psi4 1.0.54 Driver

  ==> Input File <==

--------------------------------------------------------------------------
set {
	reference rhf
	basis cc-pvtz
}

set_num_threads( 4 )
memory 2 gb

molecule MOL {
0 1

H	 -2.266619	 1.169943	 0.000098
O	 -1.438073	 1.611259	 0.000041
C	 -0.408657	 0.734701	 0.000005
C	 -0.206585	 0.008639	 1.159061
C	 0.416029	 0.560714	 -1.105316
H	 -0.864458	 0.171667	 1.990058
C	 0.825004	 -0.903418	 1.229371
C	 1.444508	 -0.362321	 -1.006497
C	 0.194185	 1.353806	 -2.369433
H	 0.975823	 -1.463481	 2.132456
C	 1.658374	 -1.094441	 0.144274
H	 2.090702	 -0.508426	 -1.852106
H	 0.282115	 2.422593	 -2.195411
H	 0.925735	 1.089227	 -3.119283
H	 -0.787438	 1.166613	 -2.795694
H	 2.462871	 -1.802186	 0.191729

	symmetry c1
}
set optking {
	frozen_dihedral = ("
		4 3 2 1
	")
}

ee,wfn = optimize('scf', return_wfn=True)
oeprop( wfn, 'DIPOLE', 'QUADRUPOLE', 'MULLIKEN_CHARGES')
f=open( 'psi4out.xyz', 'w' )
f.write( "16  " )
f.write( str(ee) + "\n" )
f.write( MOL.save_string_xyz() )
f.close()
--------------------------------------------------------------------------

    Molecular point group: c1
  Charge       = 0
  Multiplicity = 1
  Basis Set: CC-PVTZ
  Basis Set:
  @DF-RHF Final Energy:  -344.71511323403564
    Total Energy =                       -344.7151132340355844
    Molecular point group: c1
  Basis Set: CC-PVTZ
  Basis Set:
  Basis Set: CC-PVTZ
  Basis Set:
  @DF-RHF Final Energy:  -344.71649028163773
    Total Energy =                       -344.7164902816381868
  Basis Set: CC-PVTZ
  Basis Set:
  Basis Set: CC-PVTZ
  Basis Set:
  @DF-RHF Final Energy:  -344.71656954584915
    Total Energy =                       -344.7165695458489267
  Basis Set: CC-PVTZ
  Basis Set:
  Basis Set: CC-PVTZ
  Basis Set:
  @DF-RHF Final Energy:  -344.71657486817594
    Total Energy =                       -344.7165748681757123
  Basis Set: CC-PVTZ
  Basis Set:
  Basis Set: CC-PVTZ
  Basis Set:
  @DF-RHF Final Energy:  -344.71657623030262
    Total Energy =                       -344.7165762303025076
  Basis Set: CC-PVTZ
  Basis Set:
  Charge       = 0
  Multiplicity = 1
  Basis Set: CC-PVTZ
  Basis Set:

    Orbital Energies (a.u.)
    -----------------------

    Doubly Occupied:

       1A    -20.571225     2A    -11.283594     3A    -11.232338
       4A    -11.227490     5A    -11.225812     6A    -11.223584
       7A    -11.222116     8A    -11.215641     9A     -1.397968
      10A     -1.153370    11A     -1.047584    12A     -1.006717
      13A     -0.933720    14A     -0.836795    15A     -0.805849
      16A     -0.731316    17A     -0.669834    18A     -0.659591
      19A     -0.624140    20A     -0.594374    21A     -0.573972
      22A     -0.565397    23A     -0.544537    24A     -0.524085
      25A     -0.502507    26A     -0.487311    27A     -0.467884
      28A     -0.333504    29A     -0.320244

  @DF-RHF Final Energy:  -344.71657642241502

   => Energetics <=

    Nuclear Repulsion Energy =            350.4813303921361580
    One-Electron Energy =               -1162.4308160762225270
    Two-Electron Energy =                 467.2329092616711250
    DFT Exchange-Correlation Energy =       0.0000000000000000
    Empirical Dispersion Energy =           0.0000000000000000
    PCM Polarization Energy =               0.0000000000000000
    EFP Energy =                            0.0000000000000000
    Total Energy =                       -344.7165764224151872
    Molecular point group: c1
  Basis Set: CC-PVTZ
  Basis Set:

  -Total Gradient:
     Atom            X                  Y                   Z
    ------   -----------------  -----------------  -----------------
       1        0.000029181236    -0.000081042085    -0.001540401337
       2        0.000301911001     0.000541022896     0.002111293480
       3       -0.001033580691    -0.001291390128    -0.000941481098
       4        0.000688967727     0.000824069102     0.000378648928
       5       -0.000013936672     0.000014834061     0.000011613524
       6        0.000003987198    -0.000002849225    -0.000005332460
       7        0.000004336453     0.000000584420     0.000015909964
       8        0.000000850062     0.000004587018    -0.000001287327
       9        0.000011511853    -0.000017934570    -0.000011862606
      10        0.000002779834    -0.000005255973    -0.000001870655
      11        0.000000963212     0.000009929503    -0.000021352627
      12        0.000000621317     0.000000186800    -0.000006806401
      13        0.000004519784     0.000004535492     0.000006109337
      14       -0.000000019403     0.000001132791    -0.000003140922
      15        0.000000731922    -0.000001327479     0.000006687531
      16       -0.000002824830    -0.000001082626     0.000003272670

  **** Optimization is complete! (in 6 steps) ****
    Final optimized geometry and variables:
    Molecular point group: c1

    Geometry (in Angstrom), charge = 0, multiplicity = 1:

    H           -2.509855744107     0.938485829096     0.227914052348
    O           -1.665759469136     1.353826475954     0.216782124241
    C           -0.666609479446     0.420610855778     0.274444362956
    C           -0.454189281721    -0.292695727789     1.436289862906
    C            0.159644153711     0.258700748813    -0.830038571530
    H           -1.097493474478    -0.120984515867     2.278372047191
    C            0.580493862296    -1.206086025400     1.509613372419
    C            1.195919642409    -0.654693384907    -0.730852832613
    C           -0.071045976855     1.059955581347    -2.084715686518
    H            0.739683034917    -1.761894806113     2.413676221729
    C            1.409088408842    -1.387946604983     0.422181816984
    H            1.847008426818    -0.796123891401    -1.573191794138
    H           -0.016348659864     2.122538409146    -1.884150301149
    H            0.668304931507     0.814606877580    -2.835127472194
    H           -1.052676375782     0.865100150801    -2.500266109553
    H            2.219199416451    -2.089991100870     0.468929082846

  Mulliken Charges: (a.u.)
   Center  Symbol    Alpha    Beta     Spin     Total
       1     H     0.38699  0.38699  0.00000  0.22602
       2     O     4.18931  4.18931  0.00000 -0.37862
       3     C     2.88574  2.88574  0.00000  0.22852
       4     C     3.11381  3.11381  0.00000 -0.22762
       5     C     2.99178  2.99178  0.00000  0.01643
       6     H     0.42153  0.42153  0.00000  0.15693
       7     C     3.07636  3.07636  0.00000 -0.15273
       8     C     3.09337  3.09337  0.00000 -0.18674
       9     C     3.13974  3.13974  0.00000 -0.27948
      10     H     0.42228  0.42228  0.00000  0.15544
      11     C     3.08042  3.08042  0.00000 -0.16084
      12     H     0.42446  0.42446  0.00000  0.15108
      13     H     0.44356  0.44356  0.00000  0.11287
      14     H     0.45329  0.45329  0.00000  0.09342
      15     H     0.45320  0.45320  0.00000  0.09361
      16     H     0.42415  0.42415  0.00000  0.15170

   Total alpha = 29.00000, Total beta = 29.00000, Total charge = -0.00000

*** Psi4 exiting successfully. Buy a developer a beer!
