                              Psi4 1.0.54 Driver

  ==> Input File <==

--------------------------------------------------------------------------
set {
	reference rhf
	basis cc-pvtz
}

set_num_threads( 4 )
memory 2 gb

molecule MOL {
0 1

H	 -3.436473	 1.252944	 -1.023892
O	 -3.458596	 0.315260	 -0.960865
C	 -3.176635	 -0.080824	 0.355601
C	 -1.763371	 0.265266	 0.799691
H	 -3.321825	 -1.153438	 0.379502
H	 -3.895468	 0.357385	 1.043382
C	 -0.673390	 -0.426948	 -0.013392
H	 -1.631049	 1.344913	 0.747560
H	 -1.664587	 -0.001624	 1.849167
C	 0.737842	 -0.043159	 0.423759
H	 -0.806103	 -0.190518	 -1.063345
H	 -0.797221	 -1.503753	 0.074146
C	 1.824000	 -0.743224	 -0.390623
H	 0.850588	 1.033777	 0.343840
H	 0.868587	 -0.286314	 1.476203
C	 2.329861	 0.044364	 -1.600440
H	 1.455156	 -1.710919	 -0.722845
H	 2.667645	 -0.949939	 0.262180
C	 1.297628	 0.247416	 -2.706970
H	 3.185927	 -0.478236	 -2.016150
H	 2.698176	 1.012024	 -1.269687
H	 0.906795	 -0.703929	 -3.053769
H	 1.740899	 0.751199	 -3.558413
H	 0.459281	 0.847826	 -2.374873

	symmetry c1
}
set optking {
	frozen_dihedral = ("
		17 13 10 7
	")
}

ee,wfn = optimize('scf', return_wfn=True)
oeprop( wfn, 'DIPOLE', 'QUADRUPOLE', 'MULLIKEN_CHARGES')
f=open( 'psi4out.xyz', 'w' )
f.write( "24  " )
f.write( str(ee) + "\n" )
f.write( MOL.save_string_xyz() )
f.close()
--------------------------------------------------------------------------

    Molecular point group: c1
  Charge       = 0
  Multiplicity = 1
  Basis Set: CC-PVTZ
  Basis Set:
  @DF-RHF Final Energy:  -349.37496376198675
    Total Energy =                       -349.3749637619871464
    Molecular point group: c1
  Basis Set: CC-PVTZ
  Basis Set:
  Basis Set: CC-PVTZ
  Basis Set:
  @DF-RHF Final Energy:  -349.37574327345362
    Total Energy =                       -349.3757432734538497
  Basis Set: CC-PVTZ
  Basis Set:
  Basis Set: CC-PVTZ
  Basis Set:
  @DF-RHF Final Energy:  -349.37589918913829
    Total Energy =                       -349.3758991891385222
  Basis Set: CC-PVTZ
  Basis Set:
  Basis Set: CC-PVTZ
  Basis Set:
  @DF-RHF Final Energy:  -349.37592575994245
    Total Energy =                       -349.3759257599422767
  Basis Set: CC-PVTZ
  Basis Set:
  Basis Set: CC-PVTZ
  Basis Set:
  @DF-RHF Final Energy:  -349.37592793892867
    Total Energy =                       -349.3759279389284984
  Basis Set: CC-PVTZ
  Basis Set:
  Charge       = 0
  Multiplicity = 1
  Basis Set: CC-PVTZ
  Basis Set:

    Orbital Energies (a.u.)
    -----------------------

    Doubly Occupied:

       1A    -20.546514     2A    -11.265504     3A    -11.214833
       4A    -11.211813     5A    -11.210818     6A    -11.209713
       7A    -11.208040     8A    -11.204004     9A     -1.364210
      10A     -1.088168    11A     -1.047449    12A     -0.984985
      13A     -0.919686    14A     -0.850546    15A     -0.802359
      16A     -0.773605    17A     -0.682299    18A     -0.654165
      19A     -0.625486    20A     -0.615210    21A     -0.599802
      22A     -0.585673    23A     -0.561396    24A     -0.534216
      25A     -0.526911    26A     -0.509851    27A     -0.493787
      28A     -0.479133    29A     -0.468357    30A     -0.460959
      31A     -0.454363    32A     -0.442446    33A     -0.421119

  @DF-RHF Final Energy:  -349.37592809532572

   => Energetics <=

    Nuclear Repulsion Energy =            393.4581148225412903
    One-Electron Energy =               -1253.6332391565260878
    Two-Electron Energy =                 510.7991962386585101
    DFT Exchange-Correlation Energy =       0.0000000000000000
    Empirical Dispersion Energy =           0.0000000000000000
    PCM Polarization Energy =               0.0000000000000000
    EFP Energy =                            0.0000000000000000
    Total Energy =                       -349.3759280953262305
    Molecular point group: c1
  Basis Set: CC-PVTZ
  Basis Set:

  -Total Gradient:
     Atom            X                  Y                   Z
    ------   -----------------  -----------------  -----------------
       1        0.000000106405     0.000001103704     0.000000568725
       2       -0.000002050317     0.000002042029    -0.000004712615
       3        0.000002950022    -0.000006070713     0.000000961554
       4       -0.000005240295     0.000006032559    -0.000003518798
       5       -0.000000934060    -0.000002469868     0.000000672401
       6        0.000004218827     0.000000395256     0.000000740355
       7       -0.000006367463     0.000047873229    -0.000037811457
       8        0.000002852199     0.000001791322    -0.000001218604
       9        0.000001174925    -0.000002568877     0.000000101922
      10        0.000010354201    -0.000074116202     0.000093360920
      11        0.000001497366    -0.000000925595    -0.000004616276
      12       -0.000003981683     0.000002404090    -0.000001962901
      13       -0.000047581912     0.000071022869    -0.000132762268
      14       -0.000006129662     0.000001646324     0.000003533578
      15        0.000000362210     0.000001043036     0.000002569467
      16        0.000011091089    -0.000002731551     0.000014136160
      17        0.000034164954    -0.000033779708     0.000079184503
      18        0.000010715907    -0.000007568282    -0.000011210125
      19       -0.000002659284    -0.000001776109     0.000000491213
      20        0.000000515669     0.000003691086    -0.000004011147
      21       -0.000005684982     0.000003633598     0.000000846696
      22       -0.000007925725    -0.000008381793    -0.000000736100
      23        0.000003461166    -0.000003427288     0.000008435872
      24        0.000005090450     0.000001136883    -0.000003043078

  **** Optimization is complete! (in 6 steps) ****
    Final optimized geometry and variables:
    Molecular point group: c1

    Geometry (in Angstrom), charge = 0, multiplicity = 1:

    H           -3.100601485406     1.187833409093    -0.470152791147
    O           -3.100690894957     0.254568659489    -0.357452155161
    C           -2.765294572223    -0.065663722555     0.967165283900
    C           -1.342995113192     0.324920565267     1.339755637278
    H           -2.891477239627    -1.137491451908     1.053158771605
    H           -3.466598526799     0.398011120969     1.656334362836
    C           -0.272151073955    -0.393300741001     0.523541279637
    H           -1.231266935835     1.402210949166     1.225704924368
    H           -1.201354813823     0.116475043105     2.397580519020
    C            1.147470956685     0.020428638234     0.912235500797
    H           -0.448482896843    -0.214988631262    -0.528507575282
    H           -0.377634669469    -1.465559641899     0.670986570416
    C            2.267181562635    -0.670432578116     0.115322811877
    H            1.250794093435     1.099200291409     0.820303065584
    H            1.283143258839    -0.200159875114     1.967017182436
    C            2.789048661961     0.088748645028    -1.108227354572
    H            1.936445705315    -1.660647892561    -0.188104172561
    H            3.113105783706    -0.830119669720     0.776097096039
    C            1.782946410666     0.320502034370    -2.232230513880
    H            3.633921489596    -0.463445766589    -1.509194357832
    H            3.184573424696     1.047494316593    -0.782772507110
    H            1.344088136571    -0.613208584912    -2.567804772974
    H            2.267348723708     0.782770856243    -3.084961092460
    H            0.975723617373     0.974081726022    -1.925189871413

  Mulliken Charges: (a.u.)
   Center  Symbol    Alpha    Beta     Spin     Total
       1     H     0.39531  0.39531  0.00000  0.20938
       2     O     4.20241  4.20241  0.00000 -0.40481
       3     C     2.97755  2.97755  0.00000  0.04490
       4     C     3.10398  3.10398  0.00000 -0.20797
       5     H     0.45902  0.45902  0.00000  0.08196
       6     H     0.45989  0.45989  0.00000  0.08021
       7     C     3.09123  3.09123  0.00000 -0.18246
       8     H     0.45887  0.45887  0.00000  0.08227
       9     H     0.45251  0.45251  0.00000  0.09499
      10     C     3.10436  3.10436  0.00000 -0.20871
      11     H     0.44199  0.44199  0.00000  0.11601
      12     H     0.45402  0.45402  0.00000  0.09196
      13     C     3.10099  3.10099  0.00000 -0.20198
      14     H     0.45320  0.45320  0.00000  0.09361
      15     H     0.44652  0.44652  0.00000  0.10696
      16     C     3.08433  3.08433  0.00000 -0.16866
      17     H     0.45409  0.45409  0.00000  0.09182
      18     H     0.44507  0.44507  0.00000  0.10985
      19     C     3.15946  3.15946  0.00000 -0.31892
      20     H     0.44976  0.44976  0.00000  0.10049
      21     H     0.45558  0.45558  0.00000  0.08884
      22     H     0.45144  0.45144  0.00000  0.09713
      23     H     0.44416  0.44416  0.00000  0.11169
      24     H     0.45427  0.45427  0.00000  0.09145

   Total alpha = 33.00000, Total beta = 33.00000, Total charge = -0.00000

*** Psi4 exiting successfully. Buy a developer a beer!
