                              Psi4 1.0.54 Driver

  ==> Input File <==

--------------------------------------------------------------------------
set {
	reference rhf
	basis cc-pvtz
}

set_num_threads( 4 )
memory 2 gb

molecule MOL {
0 1

H	 -2.799582	 0.433858	 0.365075
O	 -2.041679	 -0.058866	 0.103463
C	 -0.959304	 0.780994	 -0.094939
C	 0.354905	 0.037902	 -0.006215
H	 -0.985899	 1.279578	 -1.057596
H	 -0.969809	 1.529522	 0.682889
F	 0.412060	 -0.931028	 -0.902708
F	 1.359641	 0.856111	 -0.239961
F	 0.545380	 -0.506387	 1.171682

	symmetry c1
}
set optking {
	frozen_dihedral = ("
		1 2 3 5
	")
}

ee,wfn = optimize('scf', return_wfn=True)
oeprop( wfn, 'DIPOLE', 'QUADRUPOLE', 'MULLIKEN_CHARGES')
f=open( 'psi4out.xyz', 'w' )
f.write( "9  " )
f.write( str(ee) + "\n" )
f.write( MOL.save_string_xyz() )
f.close()
--------------------------------------------------------------------------

    Molecular point group: c1
  Charge       = 0
  Multiplicity = 1
  Basis Set: CC-PVTZ
  Basis Set:
  @DF-RHF Final Energy:  -450.84294168801375
    Total Energy =                       -450.8429416880140366
    Molecular point group: c1
  Basis Set: CC-PVTZ
  Basis Set:
  Basis Set: CC-PVTZ
  Basis Set:
  @DF-RHF Final Energy:  -450.81297247034161
    Total Energy =                       -450.8129724703414354
  Basis Set: CC-PVTZ
  Basis Set:
  Basis Set: CC-PVTZ
  Basis Set:
  @DF-RHF Final Energy:  -450.84394507164296
    Total Energy =                       -450.8439450716429633
  Basis Set: CC-PVTZ
  Basis Set:
  Basis Set: CC-PVTZ
  Basis Set:
  @DF-RHF Final Energy:  -450.84450170466363
    Total Energy =                       -450.8445017046632870
  Basis Set: CC-PVTZ
  Basis Set:
  Basis Set: CC-PVTZ
  Basis Set:
  @DF-RHF Final Energy:  -450.84452488150208
    Total Energy =                       -450.8445248815021955
  Basis Set: CC-PVTZ
  Basis Set:
  Basis Set: CC-PVTZ
  Basis Set:
  @DF-RHF Final Energy:  -450.84453027785707
    Total Energy =                       -450.8445302778568475
  Basis Set: CC-PVTZ
  Basis Set:
  Charge       = 0
  Multiplicity = 1
  Basis Set: CC-PVTZ
  Basis Set:

    Orbital Energies (a.u.)
    -----------------------

    Doubly Occupied:

       1A    -26.333605     2A    -26.330220     3A    -26.329999
       4A    -20.582621     5A    -11.490676     6A    -11.310100
       7A     -1.741917     8A     -1.638086     9A     -1.636605
      10A     -1.406323    11A     -1.050783    12A     -0.923464
      13A     -0.833218    14A     -0.831550    15A     -0.788467
      16A     -0.739116    17A     -0.714058    18A     -0.703895
      19A     -0.672728    20A     -0.657345    21A     -0.642927
      22A     -0.641763    23A     -0.600392    24A     -0.531102
      25A     -0.483588

  @DF-RHF Final Energy:  -450.84453059928933

   => Energetics <=

    Nuclear Repulsion Energy =            277.8066034654059422
    One-Electron Energy =               -1178.0731742099246731
    Two-Electron Energy =                 449.4220401452294027
    DFT Exchange-Correlation Energy =       0.0000000000000000
    Empirical Dispersion Energy =           0.0000000000000000
    PCM Polarization Energy =               0.0000000000000000
    EFP Energy =                            0.0000000000000000
    Total Energy =                       -450.8445305992893282
    Molecular point group: c1
  Basis Set: CC-PVTZ
  Basis Set:

  -Total Gradient:
     Atom            X                  Y                   Z
    ------   -----------------  -----------------  -----------------
       1        0.000122543117    -0.000086322214     0.000237349392
       2       -0.000128136895     0.000060461851    -0.000330218957
       3       -0.000161914532     0.000140394112     0.000247739290
       4       -0.000009495835     0.000022619025     0.000070130348
       5        0.000133303681    -0.000116673161    -0.000167277817
       6        0.000006645926    -0.000005009980    -0.000002507977
       7        0.000021203918     0.000019661938    -0.000001280456
       8        0.000004753591    -0.000045709891    -0.000025418407
       9        0.000011097028     0.000010578317    -0.000028515415

  **** Optimization is complete! (in 7 steps) ****
    Final optimized geometry and variables:
    Molecular point group: c1

    Geometry (in Angstrom), charge = 0, multiplicity = 1:

    H           -2.664566496383    -0.183151687176     0.909991344109
    O           -1.903459189232    -0.439892062128     0.423580550596
    C           -1.028556548877     0.627899694496     0.290184978104
    C            0.332406899301     0.085911862203    -0.076603069247
    H           -1.327683469597     1.307884501365    -0.499795140493
    H           -0.909318662641     1.187400155630     1.210611156246
    F            0.307221371792    -0.594599764934    -1.198333856516
    F            1.174949149854     1.089094168370    -0.236126659325
    F            0.820095940073    -0.697665593339     0.856958935965

  Mulliken Charges: (a.u.)
   Center  Symbol    Alpha    Beta     Spin     Total
       1     H     0.38951  0.38951  0.00000  0.22098
       2     O     4.18583  4.18583  0.00000 -0.37165
       3     C     2.98605  2.98605  0.00000  0.02790
       4     C     2.67647  2.67647  0.00000  0.64706
       5     H     0.46508  0.46508  0.00000  0.06983
       6     H     0.46485  0.46485  0.00000  0.07030
       7     F     4.60870  4.60870  0.00000 -0.21741
       8     F     4.61437  4.61437  0.00000 -0.22873
       9     F     4.60914  4.60914  0.00000 -0.21828

   Total alpha = 25.00000, Total beta = 25.00000, Total charge = -0.00000

*** Psi4 exiting successfully. Buy a developer a beer!
