                              Psi4 1.0.54 Driver

  ==> Input File <==

--------------------------------------------------------------------------
set {
	reference rhf
	basis cc-pvtz
}

set_num_threads( 4 )
memory 2 gb

molecule MOL {
0 1

O	 -2.081319	 -0.951530	 -0.502732
N	 -1.613558	 0.006676	 0.014756
C	 -0.329345	 -0.171618	 0.743966
O	 -2.068523	 1.100482	 -0.024385
C	 0.112613	 -1.626701	 0.651811
H	 -0.520209	 0.125395	 1.761695
H	 0.376168	 0.492306	 0.273127
C	 1.430719	 -1.855241	 1.387022
H	 -0.661417	 -2.256997	 1.073904
H	 0.219156	 -1.896555	 -0.392490
C	 1.899734	 -3.303558	 1.304069
H	 1.316784	 -1.571254	 2.429043
H	 2.193678	 -1.203875	 0.971061
H	 1.171212	 -3.975962	 1.743188
H	 2.052421	 -3.606496	 0.274200
H	 2.835959	 -3.438097	 1.831842

	symmetry c1
}
set optking {
	frozen_dihedral = ("
		5 3 2 1
	")
}

ee,wfn = optimize('scf', return_wfn=True)
oeprop( wfn, 'DIPOLE', 'QUADRUPOLE', 'MULLIKEN_CHARGES')
f=open( 'psi4out.xyz', 'w' )
f.write( "16  " )
f.write( str(ee) + "\n" )
f.write( MOL.save_string_xyz() )
f.close()
--------------------------------------------------------------------------

    Molecular point group: c1
  Charge       = 0
  Multiplicity = 1
  Basis Set: CC-PVTZ
  Basis Set:
  @DF-RHF Final Energy:  -360.90628880910998
    Total Energy =                       -360.9062888091104924
    Molecular point group: c1
  Basis Set: CC-PVTZ
  Basis Set:
  Basis Set: CC-PVTZ
  Basis Set:
  @DF-RHF Final Energy:  -360.90543097108190
    Total Energy =                       -360.9054309710816710
  Basis Set: CC-PVTZ
  Basis Set:
  Basis Set: CC-PVTZ
  Basis Set:
  @DF-RHF Final Energy:  -360.90194480438612
    Total Energy =                       -360.9019448043859484
  Basis Set: CC-PVTZ
  Basis Set:
  Basis Set: CC-PVTZ
  Basis Set:
  @DF-RHF Final Energy:  -360.90620957937864
    Total Energy =                       -360.9062095793785829
  Basis Set: CC-PVTZ
  Basis Set:
  Basis Set: CC-PVTZ
  Basis Set:
  @DF-RHF Final Energy:  -360.90762252079844
    Total Energy =                       -360.9076225207983271
  Basis Set: CC-PVTZ
  Basis Set:
  Basis Set: CC-PVTZ
  Basis Set:
  @DF-RHF Final Energy:  -360.90841633628690
    Total Energy =                       -360.9084163362866775
  Basis Set: CC-PVTZ
  Basis Set:
  Basis Set: CC-PVTZ
  Basis Set:
  @DF-RHF Final Energy:  -360.90842887083897
    Total Energy =                       -360.9084288708390886
  Basis Set: CC-PVTZ
  Basis Set:
  Charge       = 0
  Multiplicity = 1
  Basis Set: CC-PVTZ
  Basis Set:

    Orbital Energies (a.u.)
    -----------------------

    Doubly Occupied:

       1A    -20.593322     2A    -20.586509     3A    -15.837904
       4A    -11.298252     5A    -11.243348     6A    -11.239674
       7A    -11.224172     8A     -1.636593     9A     -1.420658
      10A     -1.133917    11A     -1.058493    12A     -0.948825
      13A     -0.843448    14A     -0.820910    15A     -0.758593
      16A     -0.753397    17A     -0.730580    18A     -0.666433
      19A     -0.615324    20A     -0.602356    21A     -0.565510
      22A     -0.533866    23A     -0.524700    24A     -0.501912
      25A     -0.494045    26A     -0.487127    27A     -0.469001
      28A     -0.452640

  @DF-RHF Final Energy:  -360.90842903434446

   => Energetics <=

    Nuclear Repulsion Energy =            312.4870913136925878
    One-Electron Energy =               -1110.7080227740425471
    Two-Electron Energy =                 437.3125024260053806
    DFT Exchange-Correlation Energy =       0.0000000000000000
    Empirical Dispersion Energy =           0.0000000000000000
    PCM Polarization Energy =               0.0000000000000000
    EFP Energy =                            0.0000000000000000
    Total Energy =                       -360.9084290343445218
    Molecular point group: c1
  Basis Set: CC-PVTZ
  Basis Set:

  -Total Gradient:
     Atom            X                  Y                   Z
    ------   -----------------  -----------------  -----------------
       1       -0.000000487752     0.000082412857     0.000023652252
       2        0.000003602590    -0.000044972776     0.000000637232
       3        0.000011626465    -0.000005541798     0.000020876324
       4       -0.000030076723    -0.000040666129    -0.000028130533
       5        0.000001515541     0.000021478662    -0.000026332640
       6        0.000000876707     0.000002251000     0.000001100324
       7        0.000010185091    -0.000013290585     0.000001807593
       8        0.000008519728     0.000000107596     0.000004085283
       9       -0.000003154318     0.000003330398     0.000000303697
      10        0.000003422137    -0.000000605191    -0.000001554644
      11       -0.000004147944    -0.000003831549     0.000007094390
      12        0.000000726020     0.000001767562    -0.000002199644
      13       -0.000002637169    -0.000001515182    -0.000004633878
      14        0.000000088222    -0.000003129996    -0.000001302117
      15        0.000000264822     0.000002902649     0.000001346128
      16       -0.000000323417    -0.000000697521     0.000003250233

  **** Optimization is complete! (in 8 steps) ****
    Final optimized geometry and variables:
    Molecular point group: c1

    Geometry (in Angstrom), charge = 0, multiplicity = 1:

    O           -1.777198832655     0.065715206763    -1.012753824655
    N           -1.239248921036     0.961769610300    -0.458583177021
    C            0.064188532280     0.708213558573     0.228155509027
    O           -1.648373031407     2.072948496377    -0.395008382372
    C            0.551406131233    -0.721420317747     0.123690988879
    H           -0.105921474011     1.017253124175     1.248652698988
    H            0.745890785727     1.414857589952    -0.221051075276
    C            1.884324133407    -0.894058692850     0.850691161176
    H           -0.189696661651    -1.388898818700     0.544421312367
    H            0.659516912662    -0.992754036325    -0.918649890395
    C            2.409416989351    -2.323125091197     0.770317018250
    H            1.769856448560    -0.610707644181     1.893185865728
    H            2.620171337727    -0.215806294621     0.427975038809
    H            1.710053364519    -3.021773111401     1.215889685482
    H            2.566873814628    -2.623943861070    -0.259471528403
    H            3.353505251424    -2.419828970061     1.292528333938

  Mulliken Charges: (a.u.)
   Center  Symbol    Alpha    Beta     Spin     Total
       1     O     4.16862  4.16862  0.00000 -0.33725
       2     N     3.27157  3.27157  0.00000  0.45687
       3     C     3.05245  3.05245  0.00000 -0.10490
       4     O     4.17522  4.17522  0.00000 -0.35043
       5     C     3.09270  3.09270  0.00000 -0.18541
       6     H     0.43243  0.43243  0.00000  0.13515
       7     H     0.43242  0.43242  0.00000  0.13516
       8     C     3.09428  3.09428  0.00000 -0.18856
       9     H     0.43948  0.43948  0.00000  0.12103
      10     H     0.43949  0.43949  0.00000  0.12103
      11     C     3.14810  3.14810  0.00000 -0.29620
      12     H     0.45185  0.45185  0.00000  0.09631
      13     H     0.45183  0.45183  0.00000  0.09635
      14     H     0.45198  0.45198  0.00000  0.09603
      15     H     0.45198  0.45198  0.00000  0.09604
      16     H     0.44561  0.44561  0.00000  0.10878

   Total alpha = 28.00000, Total beta = 28.00000, Total charge = -0.00000

*** Psi4 exiting successfully. Buy a developer a beer!
