  ==> Input File <==

--------------------------------------------------------------------------
set {
	reference rhf
	basis 6-31G*
}

set_num_threads( 1 )
memory 2 gb

molecule MOL {
0 1

H	 2.542243	 -0.740385	 -0.783694
O	 2.016064	 -0.864478	 0.000222
C	 1.050492	 0.053836	 0.000068
C	 -0.318135	 -0.576402	 0.000164
O	 1.285279	 1.218255	 -0.000078
C	 -1.454360	 0.441875	 -0.000474
H	 -0.374042	 -1.230163	 -0.866135
H	 -0.374274	 -1.229227	 0.867154
C	 -2.826123	 -0.230780	 0.000056
H	 -1.357605	 1.085198	 -0.868380
H	 -1.357504	 1.086451	 0.866496
H	 -2.959731	 -0.858053	 -0.876869
H	 -3.619374	 0.509403	 -0.000080
H	 -2.959371	 -0.857318	 0.877556

	symmetry c1
}
set optking {
	frozen_dihedral = ("
		7 4 6 10,
		2 3 4 7
	")
}

ee = energy('scf')
oeprop('DIPOLE', 'QUADRUPOLE', 'MULLIKEN_CHARGES')
f=open( 'psi4out.xyz', 'w' )
f.write( "14  " )
f.write( str(ee) + "\n" )
f.write( MOL.save_string_xyz() )
f.close()
--------------------------------------------------------------------------

    Molecular point group: c1

    Geometry (in Angstrom), charge = 0, multiplicity = 1:

       Center              X                  Y                   Z               Mass
    ------------   -----------------  -----------------  -----------------  -----------------
           H          2.545812665780    -0.736630476136    -0.774721900237     1.007825032070
           O          2.019633665780    -0.860723476136     0.009194099763    15.994914619560
           C          1.054061665780     0.057590523864     0.009040099763    12.000000000000
           C         -0.314565334220    -0.572647476136     0.009136099763    12.000000000000
           O          1.288848665780     1.222009523864     0.008894099763    15.994914619560
           C         -1.450790334220     0.445629523864     0.008498099763    12.000000000000
           H         -0.370472334220    -1.226408476136    -0.857162900237     1.007825032070
           H         -0.370704334220    -1.225472476136     0.876126099763     1.007825032070
           C         -2.822553334220    -0.227025476136     0.009028099763    12.000000000000
           H         -1.354035334220     1.088952523864    -0.859407900237     1.007825032070
           H         -1.353934334220     1.090205523864     0.875468099763     1.007825032070
           H         -2.956161334220    -0.854298476136    -0.867896900237     1.007825032070
           H         -3.615804334220     0.513157523864     0.008892099763     1.007825032070
           H         -2.955801334220    -0.853563476136     0.886528099763     1.007825032070

  Charge       = 0
  Multiplicity = 1
  Basis Set: 6-31G*
  Basis Set:

    Orbital Energies (a.u.)
    -----------------------

    Doubly Occupied:

       1A    -20.601964     2A    -20.557748     3A    -11.380725
       4A    -11.240974     5A    -11.225166     6A    -11.217234
       7A     -1.471170     8A     -1.367625     9A     -1.082501
      10A     -0.977337    11A     -0.854268    12A     -0.795162
      13A     -0.707497    14A     -0.683920    15A     -0.665416
      16A     -0.630250    17A     -0.578723    18A     -0.563103
      19A     -0.543821    20A     -0.503589    21A     -0.494911
      22A     -0.482683    23A     -0.478435    24A     -0.444437

  @DF-RHF Final Energy:  -305.86438665257685

   => Energetics <=

    Nuclear Repulsion Energy =            239.9823467212139292
    One-Electron Energy =                -892.5964208739806054
    Two-Electron Energy =                 346.7496875001887702
    DFT Exchange-Correlation Energy =       0.0000000000000000
    Empirical Dispersion Energy =           0.0000000000000000
    PCM Polarization Energy =               0.0000000000000000
    EFP Energy =                            0.0000000000000000
    Total Energy =                       -305.8643866525778776

  Mulliken Charges: (a.u.)
   Center  Symbol    Alpha    Beta     Spin     Total
       1     H     0.26500  0.26500  0.00000  0.47000
       2     O     4.35620  4.35620  0.00000 -0.71240
       3     C     2.63361  2.63361  0.00000  0.73277
       4     C     3.20780  3.20780  0.00000 -0.41561
       5     O     4.26038  4.26038  0.00000 -0.52075
       6     C     3.15305  3.15305  0.00000 -0.30611
       7     H     0.40493  0.40493  0.00000  0.19014
       8     H     0.39814  0.39814  0.00000  0.20372
       9     C     3.24269  3.24269  0.00000 -0.48537
      10     H     0.41184  0.41184  0.00000  0.17633
      11     H     0.40942  0.40942  0.00000  0.18115
      12     H     0.42177  0.42177  0.00000  0.15646
      13     H     0.41459  0.41459  0.00000  0.17083
      14     H     0.42058  0.42058  0.00000  0.15884

   Total alpha = 24.00000, Total beta = 24.00000, Total charge = -0.00000
