  ==> Input File <==

--------------------------------------------------------------------------
set {
	reference rhf
	basis 6-31G*
}

set_num_threads( 4 )
memory 2 gb

molecule MOL {
0 1

H	 -3.135461	 -1.215070	 0.001379
O	 -2.310168	 -0.871793	 -0.309793
C	 -2.026376	 0.340750	 0.341611
C	 -0.673256	 0.843270	 -0.132153
H	 -2.792215	 1.080697	 0.115987
H	 -2.013526	 0.200402	 1.421792
C	 0.486613	 -0.083066	 0.235839
H	 -0.715586	 0.970948	 -1.210718
H	 -0.508072	 1.829858	 0.297090
C	 1.840406	 0.433480	 -0.254303
H	 0.300215	 -1.068318	 -0.178947
H	 0.519509	 -0.203625	 1.318070
C	 1.791901	 0.964863	 -1.686417
H	 2.186201	 1.222134	 0.410654
H	 2.578269	 -0.363993	 -0.190740
H	 1.087671	 1.787153	 -1.774670
H	 2.764610	 1.326223	 -2.006106
H	 1.482113	 0.189781	 -2.381967

	symmetry c1
}
set optking {
	frozen_dihedral = ("
		14 10 7 11
	")
}

ee = optimize('scf')
oeprop('DIPOLE', 'QUADRUPOLE', 'MULLIKEN_CHARGES')
f=open( 'psi4out.xyz', 'w' )
f.write( "18  " )
f.write( str(ee) + "\n" )
f.write( MOL.save_string_xyz() )
f.close()
--------------------------------------------------------------------------

    Molecular point group: c1
  Charge       = 0
  Multiplicity = 1
  Basis Set: 6-31G*
  Basis Set:
  @DF-RHF Final Energy:  -271.17473980919846
    Total Energy =                       -271.1747398091983996
    Molecular point group: c1
  Basis Set: 6-31G*
  Basis Set:
  Basis Set: 6-31G*
  Basis Set:
  @DF-RHF Final Energy:  -271.17580724296113
    Total Energy =                       -271.1758072429612412
  Basis Set: 6-31G*
  Basis Set:
  Basis Set: 6-31G*
  Basis Set:
  @DF-RHF Final Energy:  -271.17689451010290
    Total Energy =                       -271.1768945101032386
  Basis Set: 6-31G*
  Basis Set:
  Basis Set: 6-31G*
  Basis Set:
  @DF-RHF Final Energy:  -271.17698647358736
    Total Energy =                       -271.1769864735873057
  Basis Set: 6-31G*
  Basis Set:
  Basis Set: 6-31G*
  Basis Set:
  @DF-RHF Final Energy:  -271.17699395237173
    Total Energy =                       -271.1769939523718449
  Basis Set: 6-31G*
  Basis Set:
  Basis Set: 6-31G*
  Basis Set:
  @DF-RHF Final Energy:  -271.17700252164263
    Total Energy =                       -271.1770025216427484
  Basis Set: 6-31G*
  Basis Set:
  Charge       = 0
  Multiplicity = 1
  Basis Set: 6-31G*
  Basis Set:

    Orbital Energies (a.u.)
    -----------------------

    Doubly Occupied:

       1A    -20.552915     2A    -11.267956     3A    -11.211653
       4A    -11.211087     5A    -11.206633     6A    -11.204227
       7A     -1.359643     8A     -1.073903     9A     -1.005518
      10A     -0.914896    11A     -0.831573    12A     -0.768314
      13A     -0.704012    14A     -0.642595    15A     -0.613441
      16A     -0.602165    17A     -0.562269    18A     -0.552793
      19A     -0.526017    20A     -0.506500    21A     -0.489332
      22A     -0.461047    23A     -0.453430    24A     -0.449153
      25A     -0.427715

  @DF-RHF Final Energy:  -271.17700280519762

   => Energetics <=

    Nuclear Repulsion Energy =            252.1851966720125802
    One-Electron Energy =                -867.5268253581343743
    Two-Electron Energy =                 344.1646258809239498
    DFT Exchange-Correlation Energy =       0.0000000000000000
    Empirical Dispersion Energy =           0.0000000000000000
    PCM Polarization Energy =               0.0000000000000000
    EFP Energy =                            0.0000000000000000
    Total Energy =                       -271.1770028051978443
    Molecular point group: c1
  Basis Set: 6-31G*
  Basis Set:

  -Total Gradient:
     Atom            X                  Y                   Z
    ------   -----------------  -----------------  -----------------
       1        0.000002652003    -0.000001585544     0.000003374237
       2        0.000037413470    -0.000021863154     0.000018049762
       3       -0.000027863131     0.000026119189    -0.000069844020
       4        0.000003089617     0.000029584219     0.000049128149
       5        0.000005082933     0.000013484117     0.000005628745
       6        0.000006624835    -0.000006400713    -0.000008808933
       7       -0.001612071919     0.001484657775    -0.003416343784
       8       -0.000014794083    -0.000001167917     0.000008795988
       9       -0.000005870691     0.000013146015     0.000011703562
      10       -0.001784334659     0.002960091114    -0.002015593736
      11        0.001655967423    -0.001756014294     0.003165703480
      12        0.000027720337     0.000010967438    -0.000011252527
      13       -0.000031205385    -0.000011527218    -0.000002223921
      14        0.001743533749    -0.002733519326     0.002251412234
      15       -0.000006843137    -0.000004044907     0.000006365110
      16        0.000002249152     0.000008838301    -0.000004600514
      17        0.000002395010    -0.000010267452     0.000013921955
      18       -0.000003745517    -0.000000497641    -0.000005415787

  **** Optimization is complete! (in 7 steps) ****
    Final optimized geometry and variables:
    Molecular point group: c1

    Geometry (in Angstrom), charge = 0, multiplicity = 1:

    H           -2.941312155703    -1.497733404408     0.439588950305
    O           -2.139531556836    -1.146566577615     0.079528823578
    C           -1.836385342020     0.075761859046     0.703256693661
    C           -0.520686268231     0.592808281503     0.146277154134
    H           -2.624725146087     0.802851776472     0.516272267510
    H           -1.758834833375    -0.054632705971     1.781915867023
    C            0.663629608072    -0.325143127600     0.452478938066
    H           -0.637276026645     0.720219690038    -0.925075287130
    H           -0.339738701229     1.581097842304     0.566543801115
    C            2.037250227164     0.220143658126     0.035683685697
    H            0.504513958434    -1.300500426893     0.004547658092
    H            0.691376375963    -0.504879355629     1.526532345574
    C            2.131193047509     0.733757356937    -1.401099038162
    H            2.348799484825     0.994484043102     0.733973457241
    H            2.761592705784    -0.581502622042     0.163139507627
    H            1.523470704799     1.618734990226    -1.557769911848
    H            3.155778787546     0.994396101071    -1.648203745047
    H            1.802857128966    -0.022754874750    -2.108721554618

  Mulliken Charges: (a.u.)
   Center  Symbol    Alpha    Beta     Spin     Total
       1     H     0.28061  0.28061  0.00000  0.43878
       2     O     4.36956  4.36956  0.00000 -0.73912
       3     C     2.99737  2.99737  0.00000  0.00526
       4     C     3.16264  3.16264  0.00000 -0.32527
       5     H     0.42930  0.42930  0.00000  0.14140
       6     H     0.43265  0.43265  0.00000  0.13470
       7     C     3.15403  3.15403  0.00000 -0.30806
       8     H     0.41240  0.41240  0.00000  0.17521
       9     H     0.42456  0.42456  0.00000  0.15089
      10     C     3.15244  3.15244  0.00000 -0.30487
      11     H     0.40840  0.40840  0.00000  0.18320
      12     H     0.42643  0.42643  0.00000  0.14714
      13     C     3.24209  3.24209  0.00000 -0.48418
      14     H     0.42492  0.42492  0.00000  0.15015
      15     H     0.42165  0.42165  0.00000  0.15670
      16     H     0.42077  0.42077  0.00000  0.15845
      17     H     0.42019  0.42019  0.00000  0.15962
      18     H     0.41999  0.41999  0.00000  0.16001

   Total alpha = 25.00000, Total beta = 25.00000, Total charge =  0.00000
