                              Psi4 1.0.54 Driver

  ==> Input File <==

--------------------------------------------------------------------------
set {
	reference rhf
	basis cc-pvtz
}

set_num_threads( 4 )
memory 2 gb

molecule MOL {
0 1

O	 1.145774	 0.592882	 -2.229351
C	 0.424599	 0.769625	 -1.289465
C	 -0.738294	 1.734345	 -1.398228
N	 0.622280	 0.144970	 -0.099307
H	 -0.658421	 2.532177	 -0.670608
H	 -0.717484	 2.153512	 -2.390376
H	 -1.684530	 1.230777	 -1.243208
C	 1.664396	 -0.854993	 0.000772
C	 -0.332189	 0.152037	 0.983602
H	 2.462727	 -0.615153	 -0.690869
H	 1.261798	 -1.821849	 -0.240651
H	 2.081615	 -0.891605	 1.003877
H	 0.198846	 0.116137	 1.926125
H	 -0.930732	 1.046821	 0.981385
H	 -0.997845	 -0.707238	 0.943707

	symmetry c1
}
set optking {
	frozen_dihedral = ("
		2 4 8 10
	")
}

ee,wfn = optimize('scf', return_wfn=True)
oeprop( wfn, 'DIPOLE', 'QUADRUPOLE', 'MULLIKEN_CHARGES')
f=open( 'psi4out.xyz', 'w' )
f.write( "15  " )
f.write( str(ee) + "\n" )
f.write( MOL.save_string_xyz() )
f.close()
--------------------------------------------------------------------------

    Molecular point group: c1
  Charge       = 0
  Multiplicity = 1
  Basis Set: CC-PVTZ
  Basis Set:
  @DF-RHF Final Energy:  -286.13509385167561
    Total Energy =                       -286.1350938516756628
    Molecular point group: c1
  Basis Set: CC-PVTZ
  Basis Set:
  Basis Set: CC-PVTZ
  Basis Set:
  @DF-RHF Final Energy:  -286.13552186793220
    Total Energy =                       -286.1355218679321410
  Basis Set: CC-PVTZ
  Basis Set:
  Basis Set: CC-PVTZ
  Basis Set:
  @DF-RHF Final Energy:  -286.13545875507873
    Total Energy =                       -286.1354587550789006
  Basis Set: CC-PVTZ
  Basis Set:
  Basis Set: CC-PVTZ
  Basis Set:
  @DF-RHF Final Energy:  -286.13560525883099
    Total Energy =                       -286.1356052588308785
  Basis Set: CC-PVTZ
  Basis Set:
  Basis Set: CC-PVTZ
  Basis Set:
  @DF-RHF Final Energy:  -286.13560826155725
    Total Energy =                       -286.1356082615572518
  Basis Set: CC-PVTZ
  Basis Set:
  Basis Set: CC-PVTZ
  Basis Set:
  @DF-RHF Final Energy:  -286.13560962873203
    Total Energy =                       -286.1356096287317996
  Basis Set: CC-PVTZ
  Basis Set:
  Charge       = 0
  Multiplicity = 1
  Basis Set: CC-PVTZ
  Basis Set:

    Orbital Energies (a.u.)
    -----------------------

    Doubly Occupied:

       1A    -20.504391     2A    -15.578187     3A    -11.334826
       4A    -11.263920     5A    -11.246514     6A    -11.226562
       7A     -1.387942     8A     -1.245936     9A     -1.015018
      10A     -0.973153    11A     -0.920311    12A     -0.738861
      13A     -0.683074    14A     -0.661613    15A     -0.653839
      16A     -0.590152    17A     -0.578326    18A     -0.568170
      19A     -0.562096    20A     -0.547981    21A     -0.530348
      22A     -0.506342    23A     -0.414365    24A     -0.371001

  @DF-RHF Final Energy:  -286.13560997665621

   => Energetics <=

    Nuclear Repulsion Energy =            252.9677660887778643
    One-Electron Energy =                -890.0008909750060866
    Two-Electron Energy =                 350.8975149095719530
    DFT Exchange-Correlation Energy =       0.0000000000000000
    Empirical Dispersion Energy =           0.0000000000000000
    PCM Polarization Energy =               0.0000000000000000
    EFP Energy =                            0.0000000000000000
    Total Energy =                       -286.1356099766563261
    Molecular point group: c1
  Basis Set: CC-PVTZ
  Basis Set:

  -Total Gradient:
     Atom            X                  Y                   Z
    ------   -----------------  -----------------  -----------------
       1       -0.000012722623    -0.000002585249    -0.000012151628
       2       -0.000104106732    -0.000090735279    -0.000031154604
       3       -0.000005565066    -0.000007040999    -0.000033430147
       4        0.000188171641     0.000205060553     0.000142918571
       5        0.000006575098    -0.000002293310    -0.000004532059
       6       -0.000009691904     0.000008851072    -0.000005712684
       7        0.000009355670     0.000009245953    -0.000006333781
       8       -0.000169879763    -0.000211564221    -0.000187473218
       9        0.000000262952     0.000004887050    -0.000012020358
      10        0.000081927848     0.000108894088     0.000132231849
      11        0.000024844743    -0.000008115993     0.000000071825
      12       -0.000019255521     0.000011665413    -0.000007132101
      13        0.000002283163    -0.000002249298     0.000007067165
      14        0.000013008486    -0.000017672815     0.000014443984
      15       -0.000005207991    -0.000006346965     0.000003207185

  **** Optimization is complete! (in 7 steps) ****
    Final optimized geometry and variables:
    Molecular point group: c1

    Geometry (in Angstrom), charge = 0, multiplicity = 1:

    O            0.708710656969     0.164737805296    -1.549012646761
    C           -0.030590744756     0.350393883550    -0.625295484628
    C           -1.201094237765     1.300737434327    -0.769894335570
    N            0.157042240075    -0.253042433240     0.577895016489
    H           -1.158853253392     2.095856517133    -0.036392708893
    H           -1.152342774520     1.724115092975    -1.759332167318
    H           -2.144604112746     0.782253605875    -0.650992306631
    C            1.210541251420    -1.239929135838     0.694149039284
    C           -0.832302644640    -0.274934316355     1.629140370258
    H            2.007085250399    -1.003595451774     0.011578624572
    H            0.848633340958    -2.240206882322     0.470672302073
    H            1.593189541963    -1.233535657030     1.706713218536
    H           -0.333200753521    -0.281478416086     2.589477712727
    H           -1.465119836456     0.595202921473     1.597021522500
    H           -1.462699931301    -1.159778179167     1.575010008161

  Mulliken Charges: (a.u.)
   Center  Symbol    Alpha    Beta     Spin     Total
       1     O     4.21979  4.21979  0.00000 -0.43959
       2     C     2.84512  2.84512  0.00000  0.30975
       3     C     3.16083  3.16083  0.00000 -0.32165
       4     N     3.56326  3.56326  0.00000 -0.12651
       5     H     0.44885  0.44885  0.00000  0.10230
       6     H     0.42865  0.42865  0.00000  0.14270
       7     H     0.44903  0.44903  0.00000  0.10194
       8     C     3.09658  3.09658  0.00000 -0.19316
       9     C     3.09559  3.09559  0.00000 -0.19117
      10     H     0.42832  0.42832  0.00000  0.14335
      11     H     0.45707  0.45707  0.00000  0.08585
      12     H     0.45729  0.45729  0.00000  0.08542
      13     H     0.44908  0.44908  0.00000  0.10183
      14     H     0.44522  0.44522  0.00000  0.10957
      15     H     0.45531  0.45531  0.00000  0.08937

   Total alpha = 24.00000, Total beta = 24.00000, Total charge = -0.00000

*** Psi4 exiting successfully. Buy a developer a beer!
