  ==> Input File <==

--------------------------------------------------------------------------
set {
	reference rhf
	basis 6-31G*
}

set_num_threads( 1 )
memory 2 gb

molecule MOL {
0 1

H	 2.860357	 -1.616527	 -0.712271
O	 2.826016	 -1.159218	 0.122261
C	 2.077727	 -0.067559	 -0.035091
C	 0.624473	 -0.343591	 0.253101
O	 2.542965	 0.974826	 -0.363729
C	 -0.265902	 0.883932	 0.072916
H	 0.324016	 -1.163849	 -0.390541
H	 0.565024	 -0.726111	 1.268924
C	 -1.728698	 0.646073	 0.462102
H	 -0.209144	 1.219470	 -0.958188
H	 0.135059	 1.692851	 0.673903
C	 -2.482460	 -0.343073	 -0.431425
H	 -2.245265	 1.602650	 0.432430
H	 -1.779332	 0.308348	 1.496285
C	 -3.960546	 -0.461025	 -0.060175
H	 -2.395034	 -0.026811	 -1.468912
H	 -2.024850	 -1.327147	 -0.371646
H	 -4.472726	 -1.168004	 -0.705284
H	 -4.465146	 0.496508	 -0.151489
H	 -4.081218	 -0.800940	 0.964585

	symmetry c1
}
set optking {
	frozen_dihedral = ("
		16 12 9 6,
		7 4 6 10,
		12 9 6 10,
		5 3 4 7
	")
}

ee = energy('scf')
oeprop('DIPOLE', 'QUADRUPOLE', 'MULLIKEN_CHARGES')
f=open( 'psi4out.xyz', 'w' )
f.write( "20  " )
f.write( str(ee) + "\n" )
f.write( MOL.save_string_xyz() )
f.close()
--------------------------------------------------------------------------

    Molecular point group: c1

    Geometry (in Angstrom), charge = 0, multiplicity = 1:

       Center              X                  Y                   Z               Mass
    ------------   -----------------  -----------------  -----------------  -----------------
           H          2.867902691467    -1.610551789953    -0.706699855023     1.007825032070
           O          2.833561691467    -1.153242789953     0.127832144977    15.994914619560
           C          2.085272691467    -0.061583789953    -0.029519855023    12.000000000000
           C          0.632018691467    -0.337615789953     0.258672144977    12.000000000000
           O          2.550510691467     0.980801210047    -0.358157855023    15.994914619560
           C         -0.258356308533     0.889907210047     0.078487144977    12.000000000000
           H          0.331561691467    -1.157873789953    -0.384969855023     1.007825032070
           H          0.572569691467    -0.720135789953     1.274495144977     1.007825032070
           C         -1.721152308533     0.652048210047     0.467673144977    12.000000000000
           H         -0.201598308533     1.225445210047    -0.952616855023     1.007825032070
           H          0.142604691467     1.698826210047     0.679474144977     1.007825032070
           C         -2.474914308533    -0.337097789953    -0.425853855023    12.000000000000
           H         -2.237719308533     1.608625210047     0.438001144977     1.007825032070
           H         -1.771786308533     0.314323210047     1.501856144977     1.007825032070
           C         -3.953000308533    -0.455049789953    -0.054603855023    12.000000000000
           H         -2.387488308533    -0.020835789953    -1.463340855023     1.007825032070
           H         -2.017304308533    -1.321171789953    -0.366074855023     1.007825032070
           H         -4.465180308533    -1.162028789953    -0.699712855023     1.007825032070
           H         -4.457600308533     0.502483210047    -0.145917855023     1.007825032070
           H         -4.073672308533    -0.794964789953     0.970156144977     1.007825032070

  Charge       = 0
  Multiplicity = 1
  Basis Set: 6-31G*
  Basis Set:

    Orbital Energies (a.u.)
    -----------------------

    Doubly Occupied:

       1A    -20.597787     2A    -20.560057     3A    -11.379785
       4A    -11.241575     5A    -11.223591     6A    -11.222770
       7A    -11.221471     8A    -11.214252     9A     -1.468645
      10A     -1.368775    11A     -1.097252    12A     -1.041212
      13A     -0.959291    14A     -0.865820    15A     -0.819771
      16A     -0.783592    17A     -0.713395    18A     -0.678952
      19A     -0.666222    20A     -0.634946    21A     -0.619173
      22A     -0.587761    23A     -0.561317    24A     -0.556606
      25A     -0.529264    26A     -0.508267    27A     -0.502021
      28A     -0.491444    29A     -0.471218    30A     -0.465072
      31A     -0.459226    32A     -0.443008

  @DF-RHF Final Energy:  -383.92556230134790

   => Energetics <=

    Nuclear Repulsion Energy =            376.1569289850083351
    One-Electron Energy =               -1268.2580463583758501
    Two-Electron Energy =                 508.1755550720192787
    DFT Exchange-Correlation Energy =       0.0000000000000000
    Empirical Dispersion Energy =           0.0000000000000000
    PCM Polarization Energy =               0.0000000000000000
    EFP Energy =                            0.0000000000000000
    Total Energy =                       -383.9255623013482364

  Mulliken Charges: (a.u.)
   Center  Symbol    Alpha    Beta     Spin     Total
       1     H     0.26540  0.26540  0.00000  0.46920
       2     O     4.35752  4.35752  0.00000 -0.71504
       3     C     2.63527  2.63527  0.00000  0.72946
       4     C     3.21129  3.21129  0.00000 -0.42258
       5     O     4.25177  4.25177  0.00000 -0.50354
       6     C     3.15521  3.15521  0.00000 -0.31042
       7     H     0.40920  0.40920  0.00000  0.18160
       8     H     0.39741  0.39741  0.00000  0.20519
       9     C     3.15534  3.15534  0.00000 -0.31067
      10     H     0.41401  0.41401  0.00000  0.17198
      11     H     0.40673  0.40673  0.00000  0.18653
      12     C     3.15464  3.15464  0.00000 -0.30927
      13     H     0.41775  0.41775  0.00000  0.16451
      14     H     0.42336  0.42336  0.00000  0.15328
      15     C     3.23916  3.23916  0.00000 -0.47832
      16     H     0.42206  0.42206  0.00000  0.15589
      17     H     0.42418  0.42418  0.00000  0.15163
      18     H     0.41856  0.41856  0.00000  0.16287
      19     H     0.42017  0.42017  0.00000  0.15966
      20     H     0.42098  0.42098  0.00000  0.15805

   Total alpha = 32.00000, Total beta = 32.00000, Total charge =  0.00000
