  ==> Input File <==

--------------------------------------------------------------------------
set {
	reference rhf
	basis 6-31G*
}

set_num_threads( 4 )
memory 2 gb

molecule MOL {
0 1

H	 2.462945	 -1.853951	 1.525540
C	 1.907476	 -1.464605	 0.676952
C	 0.802146	 -0.526169	 1.150978
H	 1.479742	 -2.298945	 0.132265
H	 2.615912	 -0.968014	 0.022696
N	 -0.000257	 -0.000071	 0.054619
H	 0.151517	 -1.082295	 1.814140
H	 1.228127	 0.282740	 1.751723
C	 -1.363055	 0.315058	 0.462241
C	 0.648864	 1.111388	 -0.627991
C	 -2.412078	 -0.285320	 -0.468531
H	 -1.482241	 1.391144	 0.451970
H	 -1.549931	 -0.001174	 1.492681
C	 0.240420	 1.224753	 -2.093447
H	 1.719762	 0.956941	 -0.589533
H	 0.459779	 2.056777	 -0.111006
H	 -2.262839	 0.075384	 -1.480151
H	 -2.369300	 -1.368867	 -0.491760
H	 -3.410332	 -0.003975	 -0.144961
H	 0.482640	 0.308276	 -2.619787
H	 -0.822636	 1.405246	 -2.211291
H	 0.766808	 2.046786	 -2.570421

	symmetry c1
}
set optking {
	frozen_dihedral = ("
		3 6 9 11
	")
}

ee = optimize('scf')
oeprop('DIPOLE', 'QUADRUPOLE', 'MULLIKEN_CHARGES')
f=open( 'psi4out.xyz', 'w' )
f.write( "22  " )
f.write( str(ee) + "\n" )
f.write( MOL.save_string_xyz() )
f.close()
--------------------------------------------------------------------------

    Molecular point group: c1
  Charge       = 0
  Multiplicity = 1
  Basis Set: 6-31G*
  Basis Set:
  @DF-RHF Final Energy:  -290.36658573863224
    Total Energy =                       -290.3665857386323523
    Molecular point group: c1
  Basis Set: 6-31G*
  Basis Set:
  Basis Set: 6-31G*
  Basis Set:
  @DF-RHF Final Energy:  -290.36804909957431
    Total Energy =                       -290.3680490995745345
  Basis Set: 6-31G*
  Basis Set:
  Basis Set: 6-31G*
  Basis Set:
  @DF-RHF Final Energy:  -290.36841278992466
    Total Energy =                       -290.3684127899243208
  Basis Set: 6-31G*
  Basis Set:
  Basis Set: 6-31G*
  Basis Set:
  @DF-RHF Final Energy:  -290.36876501422097
    Total Energy =                       -290.3687650142210259
  Basis Set: 6-31G*
  Basis Set:
  @DF-RHF Final Energy:  -290.36880790529011
    Total Energy =                       -290.3688079052900548
  Basis Set: 6-31G*
  Basis Set:
  @DF-RHF Final Energy:  -290.36882691981845
    Total Energy =                       -290.3688269198189573
  Basis Set: 6-31G*
  Basis Set:
  Basis Set: 6-31G*
  Basis Set:
  @DF-RHF Final Energy:  -290.36883438359189
    Total Energy =                       -290.3688343835916612
  Basis Set: 6-31G*
  Basis Set:
  Basis Set: 6-31G*
  Basis Set:
  @DF-RHF Final Energy:  -290.36883868828579
    Total Energy =                       -290.3688386882857912
  Basis Set: 6-31G*
  Basis Set:
  Charge       = 0
  Multiplicity = 1
  Basis Set: 6-31G*
  Basis Set:

    Orbital Energies (a.u.)
    -----------------------

    Doubly Occupied:

       1A    -15.537630     2A    -11.241176     3A    -11.239725
       4A    -11.239654     5A    -11.206712     6A    -11.205757
       7A    -11.201814     8A     -1.221522     9A     -1.025919
      10A     -1.019120    11A     -0.957586    12A     -0.852931
      13A     -0.835579    14A     -0.773596    15A     -0.658417
      16A     -0.635494    17A     -0.615802    18A     -0.599140
      19A     -0.570150    20A     -0.557081    21A     -0.539880
      22A     -0.523488    23A     -0.517551    24A     -0.497910
      25A     -0.490207    26A     -0.479286    27A     -0.463993
      28A     -0.458532    29A     -0.340750

  @DF-RHF Final Energy:  -290.36883891168935

   => Energetics <=

    Nuclear Repulsion Energy =            337.9063334725075833
    One-Electron Energy =               -1061.5375385669308343
    Two-Electron Energy =                 433.2623661827338992
    DFT Exchange-Correlation Energy =       0.0000000000000000
    Empirical Dispersion Energy =           0.0000000000000000
    PCM Polarization Energy =               0.0000000000000000
    EFP Energy =                            0.0000000000000000
    Total Energy =                       -290.3688389116892949
    Molecular point group: c1
  Basis Set: 6-31G*
  Basis Set:

  -Total Gradient:
     Atom            X                  Y                   Z
    ------   -----------------  -----------------  -----------------
       1        0.000009147349    -0.000004332430     0.000004634666
       2        0.000014402473    -0.000000913421    -0.000001612899
       3        0.000446329456     0.001457781551     0.000261116173
       4       -0.000001202935     0.000006047447     0.000005654491
       5        0.000004538689    -0.000002719951    -0.000005505842
       6       -0.000622719361    -0.001547503632    -0.000750163654
       7       -0.000004511503    -0.000002909093     0.000008376458
       8       -0.000004536110     0.000001280389    -0.000004217243
       9        0.000019075299    -0.001089276917     0.001418968299
      10        0.000001287508     0.000001208698    -0.000017234130
      11        0.000106662558     0.001189512101    -0.000910254048
      12        0.000000341882    -0.000009636355     0.000000314007
      13        0.000003493876    -0.000008781232     0.000012676099
      14        0.000010015068     0.000001568832    -0.000010355048
      15        0.000009927367     0.000000856229    -0.000007084871
      16        0.000001346396     0.000004890755     0.000000848698
      17        0.000007318751     0.000006517000    -0.000006103224
      18       -0.000003011783    -0.000001982261     0.000000675989
      19        0.000000689884    -0.000001723103     0.000003501673
      20        0.000005067779     0.000003335985    -0.000001306767
      21       -0.000004437833    -0.000003126650    -0.000001570194
      22        0.000000775193    -0.000000093942    -0.000001358631

  **** Optimization is complete! (in 9 steps) ****
    Final optimized geometry and variables:
    Molecular point group: c1

    Geometry (in Angstrom), charge = 0, multiplicity = 1:

    H            2.449796275554    -1.884669725435     1.800167182037
    C            2.001739922412    -1.449257858437     0.911604516613
    C            0.807889844060    -0.583632648904     1.307290961888
    H            1.678832805141    -2.253880524200     0.260160802390
    H            2.778535894583    -0.891858039886     0.401172802144
    N            0.032199332772    -0.103858234644     0.169226544524
    H            0.152171725494    -1.195858776859     1.914648342799
    H            1.143792135039     0.240702366625     1.944869432416
    C           -1.333207891948     0.280028349897     0.532409916734
    C            0.740850324845     0.936363810381    -0.563620883695
    C           -2.390749312945    -0.345256619192    -0.374601557945
    H           -1.441382086059     1.364941176675     0.531543016154
    H           -1.532610852520    -0.033557272371     1.550676550015
    C            0.149502128244     1.256983052513    -1.932387083000
    H            1.758785336161     0.604406057484    -0.716895185112
    H            0.800347295596     1.856855903575     0.027395778757
    H           -2.268225900533    -0.047181331902    -1.407914247024
    H           -2.325633626496    -1.427454703577    -0.333579487976
    H           -3.387259366121    -0.051188298839    -0.054531677542
    H            0.065057865268     0.357290358286    -2.531896173576
    H           -0.830704181513     1.714475133686    -1.862743235559
    H            0.796573915523     1.956155858172    -2.453832954159

  Mulliken Charges: (a.u.)
   Center  Symbol    Alpha    Beta     Spin     Total
       1     H     0.42186  0.42186  0.00000  0.15628
       2     C     3.24093  3.24093  0.00000 -0.48186
       3     C     3.05506  3.05506  0.00000 -0.11012
       4     H     0.41391  0.41391  0.00000  0.17218
       5     H     0.42077  0.42077  0.00000  0.15846
       6     N     3.78601  3.78601  0.00000 -0.57203
       7     H     0.41851  0.41851  0.00000  0.16298
       8     H     0.43419  0.43419  0.00000  0.13162
       9     C     3.06120  3.06120  0.00000 -0.12239
      10     C     3.05499  3.05499  0.00000 -0.10997
      11     C     3.23034  3.23034  0.00000 -0.46069
      12     H     0.42726  0.42726  0.00000  0.14548
      13     H     0.42079  0.42079  0.00000  0.15843
      14     C     3.24324  3.24324  0.00000 -0.48649
      15     H     0.41761  0.41761  0.00000  0.16478
      16     H     0.43501  0.43501  0.00000  0.12997
      17     H     0.41776  0.41776  0.00000  0.16448
      18     H     0.41869  0.41869  0.00000  0.16262
      19     H     0.42697  0.42697  0.00000  0.14605
      20     H     0.41419  0.41419  0.00000  0.17163
      21     H     0.41989  0.41989  0.00000  0.16022
      22     H     0.42082  0.42082  0.00000  0.15837

   Total alpha = 29.00000, Total beta = 29.00000, Total charge =  0.00000
