  ==> Input File <==

--------------------------------------------------------------------------
set {
	reference rhf
	basis 6-31G*
}

set_num_threads( 4 )
memory 2 gb

molecule MOL {
0 1

O	 -2.002918	 -0.491364	 0.539780
C	 -1.083277	 0.139568	 0.115197
C	 0.323299	 -0.082943	 0.642902
C	 -1.271021	 1.203124	 -0.943779
C	 1.355627	 -0.005344	 -0.493127
H	 0.396251	 -1.044647	 1.143147
H	 0.528637	 0.693580	 1.371677
C	 2.786168	 -0.195604	 0.007473
H	 1.132807	 -0.760304	 -1.243899
H	 1.259610	 0.958506	 -0.981915
H	 3.495561	 -0.130713	 -0.811210
H	 2.912696	 -1.165395	 0.480041
H	 3.049284	 0.565503	 0.735850
H	 -0.812840	 2.138492	 -0.635845
H	 -2.324555	 1.354814	 -1.132965
H	 -0.780516	 0.893472	 -1.862869

	symmetry c1
}
set optking {
	frozen_dihedral = ("
		4 2 3 5
	")
}

ee = optimize('scf')
oeprop('DIPOLE', 'QUADRUPOLE', 'MULLIKEN_CHARGES')
f=open( 'psi4out.xyz', 'w' )
f.write( "16  " )
f.write( str(ee) + "\n" )
f.write( MOL.save_string_xyz() )
f.close()
--------------------------------------------------------------------------

    Molecular point group: c1
  Charge       = 0
  Multiplicity = 1
  Basis Set: 6-31G*
  Basis Set:
  @DF-RHF Final Energy:  -270.02714883799979
    Total Energy =                       -270.0271488379995617
    Molecular point group: c1
  Basis Set: 6-31G*
  Basis Set:
  Basis Set: 6-31G*
  Basis Set:
  @DF-RHF Final Energy:  -270.02888264255682
    Total Energy =                       -270.0288826425568800
  Basis Set: 6-31G*
  Basis Set:
  Basis Set: 6-31G*
  Basis Set:
  @DF-RHF Final Energy:  -270.02928938779451
    Total Energy =                       -270.0292893877943925
  Basis Set: 6-31G*
  Basis Set:
  Basis Set: 6-31G*
  Basis Set:
  @DF-RHF Final Energy:  -270.02868637276117
    Total Energy =                       -270.0286863727611717
  Basis Set: 6-31G*
  Basis Set:
  @DF-RHF Final Energy:  -270.02936980741447
    Total Energy =                       -270.0293698074144118
  @DF-RHF Final Energy:  -270.02909410059976
    Total Energy =                       -270.0290941005999912
  Basis Set: 6-31G*
  Basis Set:
  @DF-RHF Final Energy:  -270.02939940593677
    Total Energy =                       -270.0293994059368856
  Basis Set: 6-31G*
  Basis Set:
  Basis Set: 6-31G*
  Basis Set:
  @DF-RHF Final Energy:  -270.02940230901777
    Total Energy =                       -270.0294023090176552
  Basis Set: 6-31G*
  Basis Set:
  Basis Set: 6-31G*
  Basis Set:
  @DF-RHF Final Energy:  -270.02940340488544
    Total Energy =                       -270.0294034048853291
  Basis Set: 6-31G*
  Basis Set:
  Charge       = 0
  Multiplicity = 1
  Basis Set: 6-31G*
  Basis Set:

    Orbital Energies (a.u.)
    -----------------------

    Doubly Occupied:

       1A    -20.547596     2A    -11.325426     3A    -11.235248
       4A    -11.231048     5A    -11.228027     6A    -11.221513
       7A     -1.393415     8A     -1.085745     9A     -1.009789
      10A     -0.951744    11A     -0.834513    12A     -0.734189
      13A     -0.657861    14A     -0.651120    15A     -0.621485
      16A     -0.602169    17A     -0.577618    18A     -0.551979
      19A     -0.537446    20A     -0.520771    21A     -0.504700
      22A     -0.488478    23A     -0.473209    24A     -0.398399

  @DF-RHF Final Energy:  -270.02940361924539

   => Energetics <=

    Nuclear Repulsion Energy =            236.8206239177281702
    One-Electron Energy =                -834.9330833234071179
    Two-Electron Energy =                 328.0830557864335333
    DFT Exchange-Correlation Energy =       0.0000000000000000
    Empirical Dispersion Energy =           0.0000000000000000
    PCM Polarization Energy =               0.0000000000000000
    EFP Energy =                            0.0000000000000000
    Total Energy =                       -270.0294036192453859
    Molecular point group: c1
  Basis Set: 6-31G*
  Basis Set:

  -Total Gradient:
     Atom            X                  Y                   Z
    ------   -----------------  -----------------  -----------------
       1       -0.000000747657    -0.000000503526    -0.000003164066
       2       -0.000173510940     0.001440986416     0.001136202621
       3       -0.000055876744    -0.001712820836    -0.000554784297
       4        0.000147458017    -0.000680251222    -0.000715006818
       5        0.000081075707     0.000964018663     0.000146292248
       6       -0.000000033069    -0.000000419230    -0.000003154555
       7        0.000000650532     0.000001000868     0.000001046252
       8        0.000002198597    -0.000000364549    -0.000001401509
       9        0.000001130977    -0.000001259328     0.000001642512
      10       -0.000001528219    -0.000001496517    -0.000000168142
      11        0.000001531681     0.000000560362     0.000000296890
      12        0.000000743177    -0.000000229331    -0.000000637966
      13       -0.000001986189    -0.000000908820    -0.000000434614
      14       -0.000001083231    -0.000001926358    -0.000003441270
      15        0.000000146862    -0.000001675030    -0.000000536842
      16       -0.000000169499    -0.000004711562    -0.000002750443

  **** Optimization is complete! (in 10 steps) ****
    Final optimized geometry and variables:
    Molecular point group: c1

    Geometry (in Angstrom), charge = 0, multiplicity = 1:

    O           -2.005290708482    -0.603081480629     0.601805272594
    C           -1.121142015396     0.049597320301     0.136464397329
    C            0.312099130710    -0.143036928504     0.604310473105
    C           -1.401720332006     1.100527297550    -0.917365096184
    C            1.390042001859    -0.071354284554    -0.482958272911
    H            0.348474970219    -1.093572880269     1.123224438276
    H            0.505464721835     0.630070767237     1.348295322990
    C            2.785681880722    -0.340475624500     0.078494233459
    H            1.171255725322    -0.797380124917    -1.262534917396
    H            1.378729309356     0.905302911615    -0.957400930703
    H            3.536906348042    -0.285035067845    -0.702579052505
    H            2.844058421114    -1.327737419986     0.526363438952
    H            3.047002287176     0.385808142999     0.842698550803
    H           -0.923062648519     2.043329591630    -0.670662725642
    H           -2.469975927462     1.242978423948    -1.001992364131
    H           -1.009884478809     0.779943986023    -1.877984564349

  Mulliken Charges: (a.u.)
   Center  Symbol    Alpha    Beta     Spin     Total
       1     O     4.26230  4.26230  0.00000 -0.52460
       2     C     2.73159  2.73159  0.00000  0.53682
       3     C     3.20582  3.20582  0.00000 -0.41165
       4     C     3.29199  3.29199  0.00000 -0.58397
       5     C     3.16337  3.16337  0.00000 -0.32674
       6     H     0.39876  0.39876  0.00000  0.20248
       7     H     0.40843  0.40843  0.00000  0.18314
       8     C     3.23990  3.23990  0.00000 -0.47981
       9     H     0.41619  0.41619  0.00000  0.16762
      10     H     0.41797  0.41797  0.00000  0.16407
      11     H     0.41558  0.41558  0.00000  0.16885
      12     H     0.41708  0.41708  0.00000  0.16583
      13     H     0.41959  0.41959  0.00000  0.16082
      14     H     0.41078  0.41078  0.00000  0.17844
      15     H     0.39571  0.39571  0.00000  0.20858
      16     H     0.40494  0.40494  0.00000  0.19011

   Total alpha = 24.00000, Total beta = 24.00000, Total charge =  0.00000
