  ==> Input File <==

--------------------------------------------------------------------------
set {
	reference rhf
	basis 6-31G*
}

set_num_threads( 4 )
memory 2 gb

molecule MOL {
0 1

O	 -0.988096	 -1.408613	 0.050699
C	 -0.676749	 -0.249230	 -0.009274
C	 -1.746085	 0.827156	 -0.009539
N	 0.623947	 0.147590	 -0.102813
H	 -1.701500	 1.431508	 -0.908902
H	 -2.703425	 0.330732	 0.036390
H	 -1.647323	 1.487769	 0.845106
C	 1.480421	 -0.000324	 1.057553
C	 1.133318	 1.015453	 -1.141852
H	 2.471807	 -0.302628	 0.738518
H	 1.071433	 -0.750495	 1.711704
H	 1.567462	 0.935025	 1.606159
H	 2.167020	 0.759640	 -1.341997
H	 0.584119	 0.897446	 -2.062389
H	 1.097726	 2.063380	 -0.849629

	symmetry c1
}
set optking {
	frozen_dihedral = ("
		8 4 2 3
	")
}

ee = optimize('scf')
oeprop('DIPOLE', 'QUADRUPOLE', 'MULLIKEN_CHARGES')
f=open( 'psi4out.xyz', 'w' )
f.write( "15  " )
f.write( str(ee) + "\n" )
f.write( MOL.save_string_xyz() )
f.close()
--------------------------------------------------------------------------

    Molecular point group: c1
  Charge       = 0
  Multiplicity = 1
  Basis Set: 6-31G*
  Basis Set:
  @DF-RHF Final Energy:  -286.00107322393950
    Total Energy =                       -286.0010732239395566
    Molecular point group: c1
  Basis Set: 6-31G*
  Basis Set:
  Basis Set: 6-31G*
  Basis Set:
  @DF-RHF Final Energy:  -286.00723325314999
    Total Energy =                       -286.0072332531500479
  Basis Set: 6-31G*
  Basis Set:
  Basis Set: 6-31G*
  Basis Set:
  @DF-RHF Final Energy:  -286.01031374030606
    Total Energy =                       -286.0103137403060032
  Basis Set: 6-31G*
  Basis Set:
  Basis Set: 6-31G*
  Basis Set:
  @DF-RHF Final Energy:  -286.01166177742755
    Total Energy =                       -286.0116617774275483
  Basis Set: 6-31G*
  Basis Set:
  Basis Set: 6-31G*
  Basis Set:
  @DF-RHF Final Energy:  -286.01202613186365
    Total Energy =                       -286.0120261318639905
  Basis Set: 6-31G*
  Basis Set:
  Basis Set: 6-31G*
  Basis Set:
  @DF-RHF Final Energy:  -286.01208349236697
    Total Energy =                       -286.0120834923669122
  Basis Set: 6-31G*
  Basis Set:
  Basis Set: 6-31G*
  Basis Set:
  @DF-RHF Final Energy:  -286.01209117757554
    Total Energy =                       -286.0120911775755985
  Basis Set: 6-31G*
  Basis Set:
  Charge       = 0
  Multiplicity = 1
  Basis Set: 6-31G*
  Basis Set:

    Orbital Energies (a.u.)
    -----------------------

    Doubly Occupied:

       1A    -20.537164     2A    -15.571369     3A    -11.347812
       4A    -11.259139     5A    -11.255119     6A    -11.233073
       7A     -1.400137     8A     -1.239727     9A     -1.012082
      10A     -0.968844    11A     -0.911901    12A     -0.738794
      13A     -0.681496    14A     -0.658772    15A     -0.648166
      16A     -0.597910    17A     -0.581844    18A     -0.575586
      19A     -0.559895    20A     -0.550040    21A     -0.528453
      22A     -0.497131    23A     -0.420935    24A     -0.371073

  @DF-RHF Final Energy:  -286.01209269310004

   => Energetics <=

    Nuclear Repulsion Energy =            252.6183316151931706
    One-Electron Energy =                -888.9679229030891747
    Two-Electron Energy =                 350.3374985947959885
    DFT Exchange-Correlation Energy =       0.0000000000000000
    Empirical Dispersion Energy =           0.0000000000000000
    PCM Polarization Energy =               0.0000000000000000
    EFP Energy =                            0.0000000000000000
    Total Energy =                       -286.0120926931000440
    Molecular point group: c1
  Basis Set: 6-31G*
  Basis Set:

  -Total Gradient:
     Atom            X                  Y                   Z
    ------   -----------------  -----------------  -----------------
       1       -0.000032686994     0.000000145720     0.000034522511
       2       -0.001778040591     0.000498008161    -0.011856955300
       3        0.000870939385     0.001887618972     0.007995299967
       4        0.002165762224    -0.010735025486     0.002643092382
       5        0.000004459425     0.000026200955     0.000028205998
       6       -0.000007126948     0.000044265875     0.000010573268
       7        0.000049895415    -0.000027205582     0.000032392943
       8       -0.001189026694     0.008263808528     0.001176886430
       9        0.000059212121     0.000076060334     0.000013329472
      10       -0.000035777566    -0.000005083254    -0.000015531605
      11       -0.000030115754    -0.000012313006    -0.000016423576
      12       -0.000017072694    -0.000017749564    -0.000013411364
      13       -0.000035986598     0.000000746527     0.000012595305
      14       -0.000018022732    -0.000002828607    -0.000023230806
      15       -0.000006411999     0.000003350427    -0.000021345626

  **** Optimization is complete! (in 8 steps) ****
    Final optimized geometry and variables:
    Molecular point group: c1

    Geometry (in Angstrom), charge = 0, multiplicity = 1:

    O           -1.020668047189    -1.377617559463     0.442782087014
    C           -0.659093076586    -0.333555862783    -0.004554656588
    C           -1.639129093048     0.812809454912    -0.169375784990
    N            0.704687048301    -0.089339487749    -0.224351295750
    H           -1.661261566434     1.218611252836    -1.173744305917
    H           -2.624924065706     0.459084765056     0.093072932046
    H           -1.351583185857     1.617297991669     0.501174731991
    C            1.511034241341    -0.127788395985     0.988095267368
    C            1.066526455306     1.020165101995    -1.086227326270
    H            2.555583688143    -0.228728669622     0.720193416043
    H            1.226728512641    -0.981009293791     1.584455930977
    H            1.396372604041     0.780185108075     1.581759839394
    H            2.118040548734     0.933839729148    -1.329905270158
    H            0.515221731236     0.975241297980    -2.016085592502
    H            0.907359658097     1.998815358036    -0.631577651061

  Mulliken Charges: (a.u.)
   Center  Symbol    Alpha    Beta     Spin     Total
       1     O     4.27209  4.27209  0.00000 -0.54417
       2     C     2.64490  2.64490  0.00000  0.71019
       3     C     3.29411  3.29411  0.00000 -0.58822
       4     N     3.80555  3.80555  0.00000 -0.61109
       5     H     0.40671  0.40671  0.00000  0.18657
       6     H     0.39211  0.39211  0.00000  0.21579
       7     H     0.40638  0.40638  0.00000  0.18723
       8     C     3.15314  3.15314  0.00000 -0.30627
       9     C     3.15105  3.15105  0.00000 -0.30211
      10     H     0.41124  0.41124  0.00000  0.17751
      11     H     0.39208  0.39208  0.00000  0.21584
      12     H     0.42736  0.42736  0.00000  0.14528
      13     H     0.40709  0.40709  0.00000  0.18583
      14     H     0.40994  0.40994  0.00000  0.18012
      15     H     0.42625  0.42625  0.00000  0.14751

   Total alpha = 24.00000, Total beta = 24.00000, Total charge = -0.00000
