  ==> Input File <==

--------------------------------------------------------------------------
set {
	reference rhf
	basis cc-pvtz
}

set_num_threads( 4 )
memory 2 gb

molecule MOL {
0 1

O	 -2.374409	 1.338660	 -0.336961
C	 -2.104891	 0.204655	 -0.107126
C	 -0.881910	 -0.448129	 -0.720509
C	 -2.949910	 -0.638219	 0.818225
C	 0.084209	 -0.937409	 0.365798
H	 -0.389632	 0.292917	 -1.337457
H	 -1.176205	 -1.278455	 -1.353607
C	 1.335398	 -1.587453	 -0.221121
H	 0.351815	 -0.092581	 0.987795
H	 -0.420708	 -1.653208	 1.009995
C	 2.308602	 -2.146771	 0.818084
H	 1.853892	 -0.863791	 -0.845185
H	 1.032014	 -2.395794	 -0.880777
C	 2.972879	 -1.093333	 1.701194
H	 3.081944	 -2.701827	 0.296393
H	 1.789521	 -2.867955	 1.444009
H	 3.494886	 -0.355335	 1.100814
H	 3.697840	 -1.551196	 2.364190
H	 2.254352	 -0.568225	 2.318657
H	 -3.440322	 -1.417144	 0.243099
H	 -3.694377	 -0.025850	 1.303346
H	 -2.331085	 -1.129829	 1.560495

	symmetry c1
}
set optking {
	frozen_dihedral = ("
		6 3 2 1
	")
}

ee = optimize('scf')
oeprop('DIPOLE', 'QUADRUPOLE', 'MULLIKEN_CHARGES')
f=open( 'psi4out.xyz', 'w' )
f.write( "22  " )
f.write( str(ee) + "\n" )
f.write( MOL.save_string_xyz() )
f.close()
--------------------------------------------------------------------------

    Molecular point group: c1
  Charge       = 0
  Multiplicity = 1
  Basis Set: CC-PVTZ
  Basis Set:
  @DF-RHF Final Energy:  -348.22119668937154
    Total Energy =                       -348.2211966893714248
    Molecular point group: c1
  Basis Set: CC-PVTZ
  Basis Set:
  Basis Set: CC-PVTZ
  Basis Set:
  @DF-RHF Final Energy:  -348.22087242147200
    Total Energy =                       -348.2208724214717108
  Basis Set: CC-PVTZ
  Basis Set:
  Basis Set: CC-PVTZ
  Basis Set:
  @DF-RHF Final Energy:  -348.22186424251476
    Total Energy =                       -348.2218642425142434
  Basis Set: CC-PVTZ
  Basis Set:
  Basis Set: CC-PVTZ
  Basis Set:
  @DF-RHF Final Energy:  -348.22262102787244
    Total Energy =                       -348.2226210278727763
  Basis Set: CC-PVTZ
  Basis Set:
  @DF-RHF Final Energy:  -348.22270930449690
    Total Energy =                       -348.2227093044966750
  @DF-RHF Final Energy:  -348.22273048436210
    Total Energy =                       -348.2227304843622164
  @DF-RHF Final Energy:  -348.22274745644279
    Total Energy =                       -348.2227474564425620
  @DF-RHF Final Energy:  -348.22276339606020
    Total Energy =                       -348.2227633960595767
  @DF-RHF Final Energy:  -348.22280774500899
    Total Energy =                       -348.2228077450090495
  Basis Set: CC-PVTZ
  Basis Set:
  @DF-RHF Final Energy:  -348.22290316940456
    Total Energy =                       -348.2229031694038213
  Basis Set: CC-PVTZ
  Basis Set:
  Basis Set: CC-PVTZ
  Basis Set:
  @DF-RHF Final Energy:  -348.22292777428441
    Total Energy =                       -348.2229277742846989
  Basis Set: CC-PVTZ
  Basis Set:
  Basis Set: CC-PVTZ
  Basis Set:
  @DF-RHF Final Energy:  -348.22292967568961
    Total Energy =                       -348.2229296756902386
  Basis Set: CC-PVTZ
  Basis Set:
  Charge       = 0
  Multiplicity = 1
  Basis Set: CC-PVTZ
  Basis Set:

    Orbital Energies (a.u.)
    -----------------------

    Doubly Occupied:

       1A    -20.537060     2A    -11.319113     3A    -11.230016
       4A    -11.228111     5A    -11.226041     6A    -11.222474
       7A    -11.220992     8A    -11.212071     9A     -1.396728
      10A     -1.099939    11A     -1.047054    12A     -0.997744
      13A     -0.941164    14A     -0.862863    15A     -0.789395
      16A     -0.733924    17A     -0.664171    18A     -0.647104
      19A     -0.633594    20A     -0.618756    21A     -0.604042
      22A     -0.585779    23A     -0.560643    24A     -0.540694
      25A     -0.533670    26A     -0.527361    27A     -0.497628
      28A     -0.492011    29A     -0.473460    30A     -0.469289
      31A     -0.465284    32A     -0.398735

  @DF-RHF Final Energy:  -348.22292985425150

   => Energetics <=

    Nuclear Repulsion Energy =            373.4857317843143960
    One-Electron Energy =               -1211.8635091613459736
    Two-Electron Energy =                 490.1548475227801873
    DFT Exchange-Correlation Energy =       0.0000000000000000
    Empirical Dispersion Energy =           0.0000000000000000
    PCM Polarization Energy =               0.0000000000000000
    EFP Energy =                            0.0000000000000000
    Total Energy =                       -348.2229298542514471
    Molecular point group: c1
  Basis Set: CC-PVTZ
  Basis Set:

  -Total Gradient:
     Atom            X                  Y                   Z
    ------   -----------------  -----------------  -----------------
       1       -0.000193390765    -0.000141337017    -0.000259337745
       2        0.000376556935     0.000130801466     0.000444732700
       3       -0.000299328692    -0.000184756699    -0.000488933490
       4        0.000018201725     0.000033345162     0.000047057484
       5        0.000004826000     0.000009510829     0.000049221981
       6        0.000178617048     0.000136626504     0.000268597694
       7        0.000003463164     0.000001389210    -0.000009190395
       8       -0.000023939601    -0.000016801074    -0.000029533336
       9        0.000023255692     0.000008728421     0.000011230206
      10        0.000017083576     0.000012061718     0.000014584349
      11        0.000005180284     0.000005030595    -0.000004456545
      12        0.000002262763    -0.000010430257    -0.000007863574
      13       -0.000006270361    -0.000005790943    -0.000000405356
      14       -0.000015184240     0.000004248883     0.000000213357
      15       -0.000000225669     0.000012086949    -0.000003477445
      16        0.000006481492    -0.000008152899    -0.000005205114
      17        0.000000415531    -0.000007416365    -0.000000006975
      18       -0.000003290505    -0.000001024961     0.000005703222
      19       -0.000018513462     0.000014267808    -0.000001918490
      20       -0.000026167434     0.000029786690    -0.000031140918
      21       -0.000025238254    -0.000026849357    -0.000010038422
      22       -0.000024795234     0.000004675332     0.000010166811

  **** Optimization is complete! (in 13 steps) ****
    Final optimized geometry and variables:
    Molecular point group: c1

    Geometry (in Angstrom), charge = 0, multiplicity = 1:

    O           -2.197747747148     1.989974693711    -0.700777628719
    C           -1.920456184085     0.871572622467    -0.410961589243
    C           -0.685480403609     0.198151070898    -0.974442998763
    C           -2.796622312566     0.071578835546     0.527713160124
    C            0.293395443747    -0.308354508646     0.089691425422
    H           -0.199359381883     0.917060807419    -1.619815029845
    H           -1.011968108146    -0.635828266571    -1.591092812163
    C            1.557136423308    -0.900091315398    -0.532153713308
    H            0.552894702748     0.514024891125     0.747880010852
    H           -0.184213769365    -1.063276052111     0.706656870948
    C            2.545692742135    -1.492664356270     0.473299671375
    H            2.058245730851    -0.135377372394    -1.119979791859
    H            1.266845918182    -1.679069126067    -1.231824553940
    C            3.186697813368    -0.474733282852     1.413439954609
    H            3.330979774755    -1.998464719961    -0.079497510226
    H            2.045942329600    -2.260310441721     1.058340736713
    H            3.688588163714     0.308795757836     0.855097556613
    H            3.924613952254    -0.951180714648     2.048352770236
    H            2.457536798817    -0.003448846209     2.061426725543
    H           -2.949786604359    -0.935735072064     0.158513333473
    H           -3.745576771758     0.571553990132     0.646743168864
    H           -2.316106050092    -0.006156958877     1.496670093139

  Mulliken Charges: (a.u.)
   Center  Symbol    Alpha    Beta     Spin     Total
       1     O     4.17257  4.17257  0.00000 -0.34515
       2     C     2.85822  2.85822  0.00000  0.28357
       3     C     3.09541  3.09541  0.00000 -0.19081
       4     C     3.16448  3.16448  0.00000 -0.32895
       5     C     3.11054  3.11054  0.00000 -0.22107
       6     H     0.43844  0.43844  0.00000  0.12312
       7     H     0.44727  0.44727  0.00000  0.10545
       8     C     3.09675  3.09675  0.00000 -0.19350
       9     H     0.44315  0.44315  0.00000  0.11369
      10     H     0.45032  0.45032  0.00000  0.09936
      11     C     3.09041  3.09041  0.00000 -0.18081
      12     H     0.44903  0.44903  0.00000  0.10194
      13     H     0.44836  0.44836  0.00000  0.10329
      14     C     3.15196  3.15196  0.00000 -0.30392
      15     H     0.44702  0.44702  0.00000  0.10595
      16     H     0.45455  0.45455  0.00000  0.09090
      17     H     0.45327  0.45327  0.00000  0.09346
      18     H     0.44557  0.44557  0.00000  0.10886
      19     H     0.45397  0.45397  0.00000  0.09207
      20     H     0.44890  0.44890  0.00000  0.10220
      21     H     0.43228  0.43228  0.00000  0.13543
      22     H     0.44753  0.44753  0.00000  0.10494

   Total alpha = 32.00000, Total beta = 32.00000, Total charge = -0.00000
