  ==> Input File <==

--------------------------------------------------------------------------
set {
	reference rhf
	basis 6-31G*
}

set_num_threads( 4 )
memory 2 gb

molecule MOL {
0 1

O	 2.600899	 1.006540	 0.661933
C	 2.701189	 0.057885	 -0.047330
C	 2.129138	 -0.065202	 -1.438875
O	 3.347903	 -1.046386	 0.304773
C	 1.384837	 1.188007	 -1.894505
H	 2.952518	 -0.312545	 -2.100734
H	 1.473930	 -0.932601	 -1.443233
C	 0.708983	 1.041444	 -3.262071
H	 2.073454	 2.027410	 -1.912596
H	 0.633651	 1.433249	 -1.151539
C	 1.670292	 0.876606	 -4.442674
H	 0.098129	 1.924966	 -3.432273
H	 0.019635	 0.198711	 -3.237352
C	 0.953193	 0.845067	 -5.793886
H	 2.388651	 1.694979	 -4.435963
H	 2.248108	 -0.038006	 -4.330486
C	 1.903497	 0.675442	 -6.980597
H	 0.382688	 1.763693	 -5.919917
H	 0.227100	 0.033601	 -5.797356
C	 1.179822	 0.648771	 -8.326436
H	 2.630365	 1.484947	 -6.978064
H	 2.471530	 -0.244471	 -6.858608
H	 1.879648	 0.527463	 -9.147493
H	 0.629903	 1.570537	 -8.494161
H	 0.469441	 -0.171853	 -8.373447
C	 4.728119	 -1.109107	 -0.004993
H	 4.882018	 -1.033965	 -1.071845
H	 5.068212	 -2.067527	 0.355250
H	 5.265056	 -0.311663	 0.488280

	symmetry c1
}
set optking {
	frozen_dihedral = ("
		1 2 4 26
	")
}

ee = optimize('scf')
oeprop('DIPOLE', 'QUADRUPOLE', 'MULLIKEN_CHARGES')
f=open( 'psi4out.xyz', 'w' )
f.write( "29  " )
f.write( str(ee) + "\n" )
f.write( MOL.save_string_xyz() )
f.close()
--------------------------------------------------------------------------

    Molecular point group: c1
  Charge       = 0
  Multiplicity = 1
  Basis Set: 6-31G*
  Basis Set:
  @DF-RHF Final Energy:  -501.02241842028923
    Total Energy =                       -501.0224184202891138
    Molecular point group: c1
  Basis Set: 6-31G*
  Basis Set:
  Basis Set: 6-31G*
  Basis Set:
  @DF-RHF Final Energy:  -501.02072540900463
    Total Energy =                       -501.0207254090048536
  Basis Set: 6-31G*
  Basis Set:
  Basis Set: 6-31G*
  Basis Set:
  @DF-RHF Final Energy:  -501.02343492501825
    Total Energy =                       -501.0234349250180230
  Basis Set: 6-31G*
  Basis Set:
  Basis Set: 6-31G*
  Basis Set:
  @DF-RHF Final Energy:  -501.02397344789370
    Total Energy =                       -501.0239734478938090
  Basis Set: 6-31G*
  Basis Set:
  Basis Set: 6-31G*
  Basis Set:
  @DF-RHF Final Energy:  -501.02398891124051
    Total Energy =                       -501.0239889112401670
  Basis Set: 6-31G*
  Basis Set:
  Basis Set: 6-31G*
  Basis Set:
  @DF-RHF Final Energy:  -501.02399100988634
    Total Energy =                       -501.0239910098855489
  Basis Set: 6-31G*
  Basis Set:
  Charge       = 0
  Multiplicity = 1
  Basis Set: 6-31G*
  Basis Set:

    Orbital Energies (a.u.)
    -----------------------

    Doubly Occupied:

       1A    -20.584946     2A    -20.557305     3A    -11.374846
       4A    -11.291644     5A    -11.239049     6A    -11.222053
       7A    -11.220200     8A    -11.219001     9A    -11.218195
      10A    -11.216821    11A    -11.210911    12A     -1.458517
      13A     -1.367146    14A     -1.100354    15A     -1.067756
      16A     -1.015990    17A     -0.975476    18A     -0.938112
      19A     -0.867264    20A     -0.802902    21A     -0.793366
      22A     -0.762388    23A     -0.699590    24A     -0.679246
      25A     -0.670242    26A     -0.653451    27A     -0.628613
      28A     -0.619119    29A     -0.597047    30A     -0.589251
      31A     -0.569430    32A     -0.549138    33A     -0.544952
      34A     -0.531365    35A     -0.519799    36A     -0.504984
      37A     -0.493261    38A     -0.480958    39A     -0.474551
      40A     -0.465261    41A     -0.464829    42A     -0.452523
      43A     -0.442032    44A     -0.433219

  @DF-RHF Final Energy:  -501.02399011819307

   => Energetics <=

    Nuclear Repulsion Energy =            612.4566520562093501
    One-Electron Energy =               -1895.8270818472371957
    Two-Electron Energy =                 782.3464396728345491
    DFT Exchange-Correlation Energy =       0.0000000000000000
    Empirical Dispersion Energy =           0.0000000000000000
    PCM Polarization Energy =               0.0000000000000000
    EFP Energy =                            0.0000000000000000
    Total Energy =                       -501.0239901181932964
    Molecular point group: c1
  Basis Set: 6-31G*
  Basis Set:

  -Total Gradient:
     Atom            X                  Y                   Z
    ------   -----------------  -----------------  -----------------
       1       -0.002790051526    -0.001359442497     0.000948731045
       2        0.003749207609     0.001567319175    -0.002567610462
       3        0.000032314306     0.000048336806    -0.000043867227
       4       -0.000561769171     0.000808053613     0.004034824993
       5       -0.000041627195    -0.000027526300     0.000001783945
       6        0.000018826620    -0.000009407071    -0.000051006849
       7        0.000009091881     0.000016697153     0.000009372941
       8        0.000002583187     0.000005786764     0.000006091600
       9       -0.000005507334     0.000009279850     0.000003965456
      10       -0.000010260081    -0.000017652878     0.000020310816
      11        0.000019677386     0.000005804629     0.000016745587
      12        0.000032724223     0.000008589955     0.000012837441
      13       -0.000027566429     0.000017542812     0.000001365003
      14       -0.000001054367    -0.000011598970    -0.000004342782
      15       -0.000015757981     0.000004965815    -0.000005864967
      16        0.000038718181    -0.000015188126     0.000035817128
      17       -0.000000441353    -0.000016579717     0.000000868520
      18        0.000007744261     0.000003874964    -0.000001015792
      19       -0.000007004156     0.000003292037    -0.000000667410
      20       -0.000000992640    -0.000001171905     0.000000393380
      21       -0.000004364751    -0.000000711671     0.000001504827
      22        0.000003519598    -0.000000555292    -0.000000686386
      23        0.000000212535     0.000001059004     0.000000466399
      24       -0.000001032173    -0.000000043595     0.000000569110
      25        0.000000681467    -0.000000725769    -0.000001007096
      26       -0.000469647335    -0.001036119472    -0.002417379073
      27        0.000023212466    -0.000007684706    -0.000011321140
      28       -0.000003731214    -0.000005415285    -0.000000788483
      29        0.000002293987     0.000009220678     0.000009909465

  **** Optimization is complete! (in 7 steps) ****
    Final optimized geometry and variables:
    Molecular point group: c1

    Geometry (in Angstrom), charge = 0, multiplicity = 1:

    O            0.407616354150     0.587025749457     3.483944016951
    C            0.564020008520    -0.322835618102     2.746912613951
    C           -0.008086119339    -0.419559815999     1.352956243547
    O            1.226674687972    -1.440603938906     3.131062714883
    C           -0.747032262122     0.839548687411     0.905859831716
    H            0.804613490881    -0.672182076815     0.678368758323
    H           -0.668384276231    -1.283969478267     1.349363103007
    C           -1.431722389368     0.704617290373    -0.458396936542
    H           -0.053492852401     1.675492197220     0.887672128669
    H           -1.491711348447     1.084638402271     1.655034243618
    C           -0.479136614359     0.531990986997    -1.644966775413
    H           -2.033190268851     1.595565858316    -0.622592288042
    H           -2.130526195744    -0.130094089178    -0.431780831614
    C           -1.204454742057     0.509302034323    -2.991979316385
    H            0.247466346283     1.343184356609    -1.641699504553
    H            0.090020523071    -0.388833736269    -1.537687250757
    C           -0.263379633515     0.328275776450    -4.184336016899
    H           -1.764362179592     1.434827954187    -3.114386481264
    H           -1.940367277726    -0.293186099762    -2.991035720645
    C           -0.995454354527     0.310188482132    -5.525758155042
    H            0.473111256142     1.129072477934    -4.186332357345
    H            0.294295869605    -0.598463740008    -4.065753999290
    H           -0.302063306626     0.180572535406    -6.350964870301
    H           -1.535321204255     1.238422787809    -5.690177516975
    H           -1.715786712780    -0.501910044472    -5.568373318802
    C            2.621081923256    -1.459054834141     2.916196645116
    H            2.857404750418    -1.386522162484     1.859529432500
    H            2.978293842387    -2.404267236706     3.294118630872
    H            3.101444595632    -0.649853331824     3.452537146361

  Mulliken Charges: (a.u.)
   Center  Symbol    Alpha    Beta     Spin     Total
       1     O     4.25173  4.25173  0.00000 -0.50345
       2     C     2.61352  2.61352  0.00000  0.77296
       3     C     3.21438  3.21438  0.00000 -0.42876
       4     O     4.31613  4.31613  0.00000 -0.63225
       5     C     3.15446  3.15446  0.00000 -0.30892
       6     H     0.40634  0.40634  0.00000  0.18731
       7     H     0.39819  0.39819  0.00000  0.20361
       8     C     3.15655  3.15655  0.00000 -0.31311
       9     H     0.41479  0.41479  0.00000  0.17041
      10     H     0.40625  0.40625  0.00000  0.18750
      11     C     3.15503  3.15503  0.00000 -0.31006
      12     H     0.41762  0.41762  0.00000  0.16476
      13     H     0.42304  0.42304  0.00000  0.15391
      14     C     3.15031  3.15031  0.00000 -0.30062
      15     H     0.42303  0.42303  0.00000  0.15394
      16     H     0.42474  0.42474  0.00000  0.15052
      17     C     3.15149  3.15149  0.00000 -0.30298
      18     H     0.42285  0.42285  0.00000  0.15429
      19     H     0.42354  0.42354  0.00000  0.15292
      20     C     3.23940  3.23940  0.00000 -0.47881
      21     H     0.42292  0.42292  0.00000  0.15416
      22     H     0.42383  0.42383  0.00000  0.15234
      23     H     0.41909  0.41909  0.00000  0.16183
      24     H     0.42126  0.42126  0.00000  0.15747
      25     H     0.42157  0.42157  0.00000  0.15686
      26     C     3.09296  3.09296  0.00000 -0.18592
      27     H     0.42305  0.42305  0.00000  0.15391
      28     H     0.40257  0.40257  0.00000  0.19486
      29     H     0.40935  0.40935  0.00000  0.18129

   Total alpha = 44.00000, Total beta = 44.00000, Total charge = -0.00000
