  ==> Input File <==

--------------------------------------------------------------------------
set {
	reference rhf
	basis cc-pvtz
}

set_num_threads( 4 )
memory 2 gb

molecule MOL {
0 1

H	 -2.442545	 1.101257	 1.522743
C	 -1.776127	 1.538596	 2.262679
O	 -0.455298	 1.177214	 2.033871
H	 -1.840853	 2.614802	 2.195749
H	 -2.109957	 1.229290	 3.251503
C	 -0.215249	 -0.190205	 2.098510
C	 1.220006	 -0.474266	 1.732865
H	 -0.402090	 -0.558854	 3.107053
H	 -0.870963	 -0.728744	 1.417743
O	 1.401606	 -0.295166	 0.366636
H	 1.870996	 0.189285	 2.297968
H	 1.459534	 -1.499684	 2.014141
C	 2.714315	 -0.441627	 -0.061017
H	 2.765292	 -0.641548	 -1.128869
H	 3.305661	 0.447341	 0.150952
H	 3.143725	 -1.278506	 0.470147

	symmetry c1
}
set optking {
	frozen_dihedral = ("
		7 10 13 14
	")
}

ee = optimize('scf')
oeprop('DIPOLE', 'QUADRUPOLE', 'MULLIKEN_CHARGES')
f=open( 'psi4out.xyz', 'w' )
f.write( "16  " )
f.write( str(ee) + "\n" )
f.write( MOL.save_string_xyz() )
f.close()
--------------------------------------------------------------------------

    Molecular point group: c1
  Charge       = 0
  Multiplicity = 1
  Basis Set: CC-PVTZ
  Basis Set:
  @DF-RHF Final Energy:  -307.09606885883557
    Total Energy =                       -307.0960688588356788
    Molecular point group: c1
  Basis Set: CC-PVTZ
  Basis Set:
  Basis Set: CC-PVTZ
  Basis Set:
  @DF-RHF Final Energy:  -307.09688275172169
    Total Energy =                       -307.0968827517218074
  Basis Set: CC-PVTZ
  Basis Set:
  Basis Set: CC-PVTZ
  Basis Set:
  @DF-RHF Final Energy:  -307.09709139746218
    Total Energy =                       -307.0970913974622363
  Basis Set: CC-PVTZ
  Basis Set:
  Charge       = 0
  Multiplicity = 1
  Basis Set: CC-PVTZ
  Basis Set:

    Orbital Energies (a.u.)
    -----------------------

    Doubly Occupied:

       1A    -20.547779     2A    -20.546949     3A    -11.267574
       4A    -11.266846     5A    -11.261566     6A    -11.261463
       7A     -1.391244     8A     -1.373978     9A     -1.031996
      10A     -0.937175    11A     -0.892235    12A     -0.824363
      13A     -0.686217    14A     -0.682539    15A     -0.659144
      16A     -0.637376    17A     -0.632495    18A     -0.597788
      19A     -0.551247    20A     -0.538134    21A     -0.508767
      22A     -0.479626    23A     -0.464644    24A     -0.422533
      25A     -0.413278

  @DF-RHF Final Energy:  -307.09709250117726

   => Energetics <=

    Nuclear Repulsion Energy =            258.8554312048266866
    One-Electron Energy =                -932.1511383613714088
    Two-Electron Energy =                 366.1986146553671801
    DFT Exchange-Correlation Energy =       0.0000000000000000
    Empirical Dispersion Energy =           0.0000000000000000
    PCM Polarization Energy =               0.0000000000000000
    EFP Energy =                            0.0000000000000000
    Total Energy =                       -307.0970925011775421
    Molecular point group: c1
  Basis Set: CC-PVTZ
  Basis Set:

  -Total Gradient:
     Atom            X                  Y                   Z
    ------   -----------------  -----------------  -----------------
       1        0.000001585490    -0.000000613276    -0.000001096896
       2        0.000002529815    -0.000001449339     0.000004937592
       3        0.000001486362     0.000006620498     0.000022123399
       4        0.000001787900    -0.000001675231     0.000000157779
       5       -0.000004541615     0.000001727210     0.000001776073
       6       -0.000009380614     0.000015743013    -0.000158504960
       7       -0.000167136524    -0.001890585955    -0.000233867467
       8        0.000060185741    -0.000000782527    -0.000024542398
       9       -0.000038946697    -0.000022997589    -0.000000551230
      10        0.000392314964     0.002137342609     0.000503694911
      11        0.000020694624     0.000001045367     0.000000121905
      12       -0.000005360567    -0.000002300099    -0.000026968453
      13        0.000001929702     0.002096572337    -0.000579860985
      14       -0.000179915660    -0.002346262674     0.000448780287
      15       -0.000053971958     0.000013799978     0.000016747660
      16       -0.000023260964    -0.000006184324     0.000027052787

  **** Optimization is complete! (in 4 steps) ****
    Final optimized geometry and variables:
    Molecular point group: c1

    Geometry (in Angstrom), charge = 0, multiplicity = 1:

    H           -2.920952829916     0.884804447534     0.107966175601
    C           -2.258067352078     1.318644485440     0.853095301719
    O           -0.936779606309     0.954330172446     0.631685245719
    H           -2.319552865201     2.395168811251     0.788356229791
    H           -2.598875134958     1.007865311888     1.839084730240
    C           -0.700670084009    -0.413848288407     0.694528525741
    C            0.735830611294    -0.701151678987     0.336972962809
    H           -0.894137022705    -0.784284112655     1.701186921658
    H           -1.353710373877    -0.949249551577     0.008695271606
    O            0.923140359303    -0.524094391867    -1.029042114635
    H            1.384003666290    -0.038980718140     0.907204481660
    H            0.971787184373    -1.727025442902     0.617811080643
    C            2.237807184273    -0.664290255054    -1.457361365143
    H            2.224113814451    -0.861406407151    -2.519876977130
    H            2.817980720913     0.233597714167    -1.262188834182
    H            2.728391560709    -1.503814230198    -0.968916229999

  Mulliken Charges: (a.u.)
   Center  Symbol    Alpha    Beta     Spin     Total
       1     H     0.47015  0.47015  0.00000  0.05970
       2     C     3.03200  3.03200  0.00000 -0.06400
       3     O     4.17057  4.17057  0.00000 -0.34113
       4     H     0.44637  0.44637  0.00000  0.10727
       5     H     0.47368  0.47368  0.00000  0.05264
       6     C     2.96117  2.96117  0.00000  0.07767
       7     C     2.96018  2.96018  0.00000  0.07963
       8     H     0.47608  0.47608  0.00000  0.04784
       9     H     0.47086  0.47086  0.00000  0.05827
      10     O     4.17175  4.17175  0.00000 -0.34350
      11     H     0.47149  0.47149  0.00000  0.05703
      12     H     0.47514  0.47514  0.00000  0.04971
      13     C     3.03084  3.03084  0.00000 -0.06167
      14     H     0.44884  0.44884  0.00000  0.10232
      15     H     0.46504  0.46504  0.00000  0.06992
      16     H     0.47585  0.47585  0.00000  0.04830

   Total alpha = 25.00000, Total beta = 25.00000, Total charge = -0.00000
