  ==> Input File <==

--------------------------------------------------------------------------
set {
	reference rhf
	basis 6-31G*
}

set_num_threads( 1 )
memory 2 gb

molecule MOL {
0 1

O	 -2.821284	 1.308784	 0.050015
C	 -2.668393	 0.129504	 0.026799
C	 -3.801418	 -0.864233	 0.023705
O	 -1.481751	 -0.454642	 0.000584
H	 -4.429023	 -0.673623	 -0.838643
H	 -3.443790	 -1.883038	 -0.000311
H	 -4.404969	 -0.706459	 0.909546
C	 -0.334255	 0.388708	 0.000906
C	 0.891947	 -0.504646	 0.000751
H	 -0.365390	 1.025305	 -0.873475
H	 -0.365484	 1.024911	 0.875569
C	 2.191998	 0.301789	 0.000897
H	 0.855148	 -1.151283	 -0.871571
H	 0.855132	 -1.151660	 0.872805
C	 3.441114	 -0.581407	 0.000108
H	 2.215074	 0.954890	 -0.869742
H	 2.215465	 0.953923	 0.872248
C	 4.739576	 0.224112	 -0.001102
H	 3.419457	 -1.233487	 -0.870178
H	 3.420834	 -1.233096	 0.870717
H	 4.804918	 0.861552	 -0.878265
H	 5.606527	 -0.429058	 -0.001824
H	 4.806469	 0.861674	 0.875853

	symmetry c1
}
set optking {
	frozen_dihedral = ("
		13 9 8 10,
		16 12 9 13,
		19 15 12 16,
		1 2 4 8
	")
}

ee = energy('scf')
oeprop('DIPOLE', 'QUADRUPOLE', 'MULLIKEN_CHARGES')
f=open( 'psi4out.xyz', 'w' )
f.write( "23  " )
f.write( str(ee) + "\n" )
f.write( MOL.save_string_xyz() )
f.close()
--------------------------------------------------------------------------

    Molecular point group: c1

    Geometry (in Angstrom), charge = 0, multiplicity = 1:

       Center              X                  Y                   Z               Mass
    ------------   -----------------  -----------------  -----------------  -----------------
           O         -2.821356127068     1.308886582461     0.038428528218    15.994914619560
           C         -2.668465127068     0.129606582461     0.015212528218    12.000000000000
           C         -3.801490127068    -0.864130417539     0.012118528218    12.000000000000
           O         -1.481823127068    -0.454539417539    -0.011002471782    15.994914619560
           H         -4.429095127068    -0.673520417539    -0.850229471782     1.007825032070
           H         -3.443862127068    -1.882935417539    -0.011897471782     1.007825032070
           H         -4.405041127068    -0.706356417539     0.897959528218     1.007825032070
           C         -0.334327127068     0.388810582461    -0.010680471782    12.000000000000
           C          0.891874872932    -0.504543417539    -0.010835471782    12.000000000000
           H         -0.365462127068     1.025407582461    -0.885061471782     1.007825032070
           H         -0.365556127068     1.025013582461     0.863982528218     1.007825032070
           C          2.191925872932     0.301891582461    -0.010689471782    12.000000000000
           H          0.855075872932    -1.151180417539    -0.883157471782     1.007825032070
           H          0.855059872932    -1.151557417539     0.861218528218     1.007825032070
           C          3.441041872932    -0.581304417539    -0.011478471782    12.000000000000
           H          2.215001872932     0.954992582461    -0.881328471782     1.007825032070
           H          2.215392872932     0.954025582461     0.860661528218     1.007825032070
           C          4.739503872932     0.224214582461    -0.012688471782    12.000000000000
           H          3.419384872932    -1.233384417539    -0.881764471782     1.007825032070
           H          3.420761872932    -1.232993417539     0.859130528218     1.007825032070
           H          4.804845872932     0.861654582461    -0.889851471782     1.007825032070
           H          5.606454872932    -0.428955417539    -0.013410471782     1.007825032070
           H          4.806396872932     0.861776582461     0.864266528218     1.007825032070

  Charge       = 0
  Multiplicity = 1
  Basis Set: 6-31G*
  Basis Set:

    Orbital Energies (a.u.)
    -----------------------

    Doubly Occupied:

       1A    -20.603031     2A    -20.540545     3A    -11.374109
       4A    -11.281526     5A    -11.232408     6A    -11.224450
       7A    -11.223835     8A    -11.221719     9A    -11.212984
      10A     -1.467997    11A     -1.360760    12A     -1.094271
      13A     -1.042285    14A     -1.003475    15A     -0.930945
      16A     -0.841674    17A     -0.802725    18A     -0.774429
      19A     -0.692288    20A     -0.685059    21A     -0.667934
      22A     -0.646730    23A     -0.606063    24A     -0.588473
      25A     -0.582199    26A     -0.566711    27A     -0.558704
      28A     -0.537213    29A     -0.523325    30A     -0.504946
      31A     -0.491032    32A     -0.477988    33A     -0.471180
      34A     -0.465765    35A     -0.451246    36A     -0.435340

  @DF-RHF Final Energy:  -422.97952874695090

   => Energetics <=

    Nuclear Repulsion Energy =            449.6158053518217912
    One-Electron Energy =               -1466.8199528734107844
    Two-Electron Energy =                 594.2246187746363830
    DFT Exchange-Correlation Energy =       0.0000000000000000
    Empirical Dispersion Energy =           0.0000000000000000
    PCM Polarization Energy =               0.0000000000000000
    EFP Energy =                            0.0000000000000000
    Total Energy =                       -422.9795287469526102

  Mulliken Charges: (a.u.)
   Center  Symbol    Alpha    Beta     Spin     Total
       1     O     4.28391  4.28391  0.00000 -0.56781
       2     C     2.61532  2.61532  0.00000  0.76936
       3     C     3.28774  3.28774  0.00000 -0.57549
       4     O     4.31273  4.31273  0.00000 -0.62547
       5     H     0.39749  0.39749  0.00000  0.20502
       6     H     0.39985  0.39985  0.00000  0.20029
       7     H     0.39751  0.39751  0.00000  0.20498
       8     C     2.99561  2.99561  0.00000  0.00878
       9     C     3.16480  3.16480  0.00000 -0.32961
      10     H     0.41099  0.41099  0.00000  0.17802
      11     H     0.41029  0.41029  0.00000  0.17942
      12     C     3.16000  3.16000  0.00000 -0.32001
      13     H     0.41423  0.41423  0.00000  0.17153
      14     H     0.41425  0.41425  0.00000  0.17150
      15     C     3.15143  3.15143  0.00000 -0.30286
      16     H     0.42080  0.42080  0.00000  0.15840
      17     H     0.42073  0.42073  0.00000  0.15853
      18     C     3.23987  3.23987  0.00000 -0.47974
      19     H     0.42139  0.42139  0.00000  0.15722
      20     H     0.42138  0.42138  0.00000  0.15724
      21     H     0.42084  0.42084  0.00000  0.15831
      22     H     0.41799  0.41799  0.00000  0.16402
      23     H     0.42083  0.42083  0.00000  0.15835

   Total alpha = 36.00000, Total beta = 36.00000, Total charge =  0.00000
