  ==> Input File <==

--------------------------------------------------------------------------
set {
	reference rhf
	basis cc-pvtz
}

set_num_threads( 4 )
memory 2 gb

molecule MOL {
0 1

H	 -2.698799	 -0.000846	 0.036018
C	 -1.694291	 -0.000483	 0.434279
O	 -0.828718	 -0.000608	 -0.655022
H	 -1.576855	 0.881100	 1.056504
H	 -1.576401	 -0.881658	 1.057001
C	 -0.736033	 -1.158302	 -1.448137
C	 -0.180234	 -2.351834	 -0.679476
C	 -2.043387	 -1.486408	 -2.160474
H	 -0.009069	 -0.883980	 -2.202384
H	 0.726184	 -2.073970	 -0.155780
H	 0.057144	 -3.154277	 -1.368303
H	 -0.888966	 -2.740555	 0.042451
H	 -2.429021	 -0.608409	 -2.663909
H	 -1.873782	 -2.257478	 -2.903076
H	 -2.801571	 -1.852055	 -1.477832

	symmetry c1
}
set optking {
	frozen_dihedral = ("
		6 3 2 1
	")
}

ee = optimize('scf')
oeprop('DIPOLE', 'QUADRUPOLE', 'MULLIKEN_CHARGES')
f=open( 'psi4out.xyz', 'w' )
f.write( "15  " )
f.write( str(ee) + "\n" )
f.write( MOL.save_string_xyz() )
f.close()
--------------------------------------------------------------------------

    Molecular point group: c1
  Charge       = 0
  Multiplicity = 1
  Basis Set: CC-PVTZ
  Basis Set:
  @DF-RHF Final Energy:  -232.22381550195391
    Total Energy =                       -232.2238155019535952
    Molecular point group: c1
  Basis Set: CC-PVTZ
  Basis Set:
  Basis Set: CC-PVTZ
  Basis Set:
  @DF-RHF Final Energy:  -232.22570395242644
    Total Energy =                       -232.2257039524262723
  Basis Set: CC-PVTZ
  Basis Set:
  Basis Set: CC-PVTZ
  Basis Set:
  @DF-RHF Final Energy:  -232.22610326160392
    Total Energy =                       -232.2261032616040666
  Basis Set: CC-PVTZ
  Basis Set:
  Basis Set: CC-PVTZ
  Basis Set:
  @DF-RHF Final Energy:  -232.22610922180414
    Total Energy =                       -232.2261092218039948
  Basis Set: CC-PVTZ
  Basis Set:
  Basis Set: CC-PVTZ
  Basis Set:
  @DF-RHF Final Energy:  -232.22611226655371
    Total Energy =                       -232.2261122665536277
  Basis Set: CC-PVTZ
  Basis Set:
  Charge       = 0
  Multiplicity = 1
  Basis Set: CC-PVTZ
  Basis Set:

    Orbital Energies (a.u.)
    -----------------------

    Doubly Occupied:

       1A    -20.541798     2A    -11.272643     3A    -11.258582
       4A    -11.209186     5A    -11.208184     6A     -1.373521
       7A     -1.051570     8A     -0.940395     9A     -0.931468
      10A     -0.781491    11A     -0.675742    12A     -0.642458
      13A     -0.635035    14A     -0.573771    15A     -0.565369
      16A     -0.552820    17A     -0.534062    18A     -0.498460
      19A     -0.497320    20A     -0.444806    21A     -0.409396

  @DF-RHF Final Energy:  -232.22611258704410

   => Energetics <=

    Nuclear Repulsion Energy =            199.0376318528363981
    One-Electron Energy =                -709.3313327775659900
    Two-Electron Energy =                 278.0675883376855495
    DFT Exchange-Correlation Energy =       0.0000000000000000
    Empirical Dispersion Energy =           0.0000000000000000
    PCM Polarization Energy =               0.0000000000000000
    EFP Energy =                            0.0000000000000000
    Total Energy =                       -232.2261125870440424
    Molecular point group: c1
  Basis Set: CC-PVTZ
  Basis Set:

  -Total Gradient:
     Atom            X                  Y                   Z
    ------   -----------------  -----------------  -----------------
       1        0.000028875724     0.000522283728    -0.000001632603
       2        0.000141595446    -0.000754236806     0.000160008658
       3       -0.000478452301     0.000413729414    -0.000430124071
       4       -0.000013940636     0.000002956221     0.000005341045
       5       -0.000002499181     0.000020992758    -0.000015301586
       6        0.000309035980    -0.000164874036     0.000307675181
       7       -0.000002460720    -0.000030598908    -0.000024069797
       8       -0.000000396653     0.000011295577    -0.000004761289
       9        0.000006490626    -0.000009801134    -0.000000012208
      10       -0.000000159007     0.000001620654     0.000002784999
      11        0.000007555930    -0.000000914257     0.000005166772
      12        0.000004784672    -0.000011282303    -0.000014735229
      13        0.000002514834     0.000000859849     0.000006960706
      14       -0.000001171064    -0.000000956355     0.000001848411
      15       -0.000001773647    -0.000001074400     0.000000851013

  **** Optimization is complete! (in 6 steps) ****
    Final optimized geometry and variables:
    Molecular point group: c1

    Geometry (in Angstrom), charge = 0, multiplicity = 1:

    H           -1.650038647214     1.049351358042     0.931855205621
    C           -0.627458315263     0.996756960553     1.292780502429
    O            0.296483864640     0.981631275203     0.252443008939
    H           -0.430643820662     1.885918908412     1.874802568877
    H           -0.533853327161     0.136616232676     1.947671782633
    C            0.382295576638    -0.161982907013    -0.561557836844
    C            0.947683571688    -1.365266749564     0.185162227281
    C           -0.930172235216    -0.482372862745    -1.267439849334
    H            1.103135373537     0.124291103043    -1.317273527307
    H            1.858970415297    -1.091433339208     0.702241674536
    H            1.179102192995    -2.158523690875    -0.516474249240
    H            0.248369463944    -1.765343420110     0.909921795075
    H           -1.318890890107     0.399309045065    -1.762327891435
    H           -0.767544754565    -1.248608261821    -2.016461215914
    H           -1.683413845911    -0.850761937084    -0.580458662863

  Mulliken Charges: (a.u.)
   Center  Symbol    Alpha    Beta     Spin     Total
       1     H     0.46870  0.46870  0.00000  0.06261
       2     C     3.03934  3.03934  0.00000 -0.07867
       3     O     4.18323  4.18323  0.00000 -0.36646
       4     H     0.44133  0.44133  0.00000  0.11734
       5     H     0.47094  0.47094  0.00000  0.05812
       6     C     2.93393  2.93393  0.00000  0.13214
       7     C     3.15579  3.15579  0.00000 -0.31158
       8     C     3.16060  3.16060  0.00000 -0.32121
       9     H     0.44702  0.44702  0.00000  0.10597
      10     H     0.44423  0.44423  0.00000  0.11153
      11     H     0.45066  0.45066  0.00000  0.09869
      12     H     0.45626  0.45626  0.00000  0.08748
      13     H     0.44382  0.44382  0.00000  0.11236
      14     H     0.44874  0.44874  0.00000  0.10251
      15     H     0.45542  0.45542  0.00000  0.08917

   Total alpha = 21.00000, Total beta = 21.00000, Total charge =  0.00000
