  ==> Input File <==

--------------------------------------------------------------------------
set {
	reference rhf
	basis cc-pvtz
}

set_num_threads( 4 )
memory 2 gb

molecule MOL {
0 1

H	 -2.459946	 2.113999	 1.342012
O	 -1.778523	 1.525510	 1.074543
C	 -2.302264	 0.528872	 0.237390
C	 -1.175688	 -0.398187	 -0.171891
H	 -3.076390	 -0.034419	 0.754310
H	 -2.755590	 0.973394	 -0.646196
C	 0.196029	 0.106276	 0.266738
H	 -1.201873	 -0.515469	 -1.250677
H	 -1.365975	 -1.378728	 0.252664
C	 1.330220	 -0.826136	 -0.155230
H	 0.359542	 1.097229	 -0.145561
H	 0.212134	 0.218135	 1.348778
C	 2.719700	 -0.407669	 0.328325
H	 1.339388	 -0.911200	 -1.239363
H	 1.119001	 -1.821953	 0.224128
C	 3.241564	 0.893452	 -0.276737
H	 3.418299	 -1.204729	 0.093035
H	 2.711776	 -0.323368	 1.411960
H	 3.254204	 0.841071	 -1.360784
H	 2.634460	 1.745075	 0.005842
H	 4.254264	 1.092401	 0.054971

	symmetry c1
}
set optking {
	frozen_dihedral = ("
		2 3 4 8
	")
}

ee = optimize('scf')
oeprop('DIPOLE', 'QUADRUPOLE', 'MULLIKEN_CHARGES')
f=open( 'psi4out.xyz', 'w' )
f.write( "21  " )
f.write( str(ee) + "\n" )
f.write( MOL.save_string_xyz() )
f.close()
--------------------------------------------------------------------------

    Molecular point group: c1
  Charge       = 0
  Multiplicity = 1
  Basis Set: CC-PVTZ
  Basis Set:
  @DF-RHF Final Energy:  -310.32259498134556
    Total Energy =                       -310.3225949813459010
    Molecular point group: c1
  Basis Set: CC-PVTZ
  Basis Set:
  Basis Set: CC-PVTZ
  Basis Set:
  @DF-RHF Final Energy:  -310.32310187974940
    Total Energy =                       -310.3231018797494016
  Basis Set: CC-PVTZ
  Basis Set:
  Basis Set: CC-PVTZ
  Basis Set:
  @DF-RHF Final Energy:  -310.32455972043005
    Total Energy =                       -310.3245597204303294
  Basis Set: CC-PVTZ
  Basis Set:
  Basis Set: CC-PVTZ
  Basis Set:
  @DF-RHF Final Energy:  -310.32462504851509
    Total Energy =                       -310.3246250485154292
  Basis Set: CC-PVTZ
  Basis Set:
  Basis Set: CC-PVTZ
  Basis Set:
  @DF-RHF Final Energy:  -310.32462775585333
    Total Energy =                       -310.3246277558531574
  Basis Set: CC-PVTZ
  Basis Set:
  Basis Set: CC-PVTZ
  Basis Set:
  @DF-RHF Final Energy:  -310.32462911155312
    Total Energy =                       -310.3246291115534063
  Basis Set: CC-PVTZ
  Basis Set:
  Charge       = 0
  Multiplicity = 1
  Basis Set: CC-PVTZ
  Basis Set:

    Orbital Energies (a.u.)
    -----------------------

    Doubly Occupied:

       1A    -20.545850     2A    -11.266734     3A    -11.211067
       4A    -11.207369     5A    -11.204883     6A    -11.201227
       7A    -11.200336     8A     -1.363827     9A     -1.079224
      10A     -1.026598    11A     -0.951839    12A     -0.876280
      13A     -0.800318    14A     -0.772204    15A     -0.697729
      16A     -0.657961    17A     -0.617230    18A     -0.603999
      19A     -0.585720    20A     -0.564557    21A     -0.532932
      22A     -0.522354    23A     -0.496505    24A     -0.493543
      25A     -0.482213    26A     -0.457064    27A     -0.449336
      28A     -0.436238    29A     -0.425291

  @DF-RHF Final Energy:  -310.32462925963034

   => Energetics <=

    Nuclear Repulsion Energy =            318.5306871473916317
    One-Electron Energy =               -1052.2497871340615347
    Two-Electron Energy =                 423.3944707270393337
    DFT Exchange-Correlation Energy =       0.0000000000000000
    Empirical Dispersion Energy =           0.0000000000000000
    PCM Polarization Energy =               0.0000000000000000
    EFP Energy =                            0.0000000000000000
    Total Energy =                       -310.3246292596305693
    Molecular point group: c1
  Basis Set: CC-PVTZ
  Basis Set:

  -Total Gradient:
     Atom            X                  Y                   Z
    ------   -----------------  -----------------  -----------------
       1        0.000002284508    -0.000015179207    -0.000014298921
       2        0.000454689646     0.001247237260    -0.001697822943
       3       -0.000218587077    -0.001152615787     0.002229455024
       4       -0.001873322794    -0.002273534077    -0.000284545025
       5        0.000005696927    -0.000014154791    -0.000009077914
       6        0.000004796813    -0.000015444981    -0.000008914521
       7        0.000014290937     0.000022510734    -0.000017349760
       8        0.001624895492     0.002208574528    -0.000223334476
       9       -0.000007493706     0.000003663717     0.000000751490
      10       -0.000001996954    -0.000012468995     0.000025245361
      11        0.000012510548     0.000010410863     0.000000804876
      12        0.000001107814    -0.000000507978     0.000002903024
      13        0.000006415536    -0.000011546233    -0.000014948218
      14        0.000000898780    -0.000002824565     0.000004560708
      15       -0.000005311606    -0.000003099455     0.000004761683
      16       -0.000008890895     0.000002766398     0.000005114395
      17       -0.000001030811     0.000002098657    -0.000006324854
      18        0.000003604930    -0.000005832549    -0.000002265914
      19        0.000003064100    -0.000003693608     0.000004422537
      20       -0.000015938449     0.000008605195    -0.000003271083
      21       -0.000001683740     0.000005034876     0.000004134532

  **** Optimization is complete! (in 7 steps) ****
    Final optimized geometry and variables:
    Molecular point group: c1

    Geometry (in Angstrom), charge = 0, multiplicity = 1:

    H           -2.913775828136     1.856939965558     1.113013404448
    O           -2.178005665005     1.319618360820     0.885299527070
    C           -2.596984291236     0.285741727340     0.031022251271
    C           -1.417795122101    -0.631870331186    -0.344937673244
    H           -3.377992677522    -0.298299359818     0.508513394025
    H           -3.023548787254     0.714995421608    -0.871162985944
    C           -0.037612709261    -0.129578698492     0.082037152117
    H           -1.408132239877    -0.750931345841    -1.423408100807
    H           -1.577727388963    -1.617886789439     0.077291026849
    C            1.073013840407    -1.077018786893    -0.368019083166
    H            0.124416880097     0.859916552833    -0.326546542995
    H           -0.005964179828    -0.020260403174     1.159676351845
    C            2.475418761290    -0.682199370602     0.098506323326
    H            1.067794457696    -1.153674672856    -1.453460187827
    H            0.856040621318    -2.074527609533     0.005546109258
    C            3.002577944552     0.620387513271    -0.498534150354
    H            3.161342852705    -1.484377959248    -0.157025532597
    H            2.484287472095    -0.610227750060     1.182830758753
    H            2.998730987772     0.580815097305    -1.583345908334
    H            2.408060482307     1.473869515594    -0.196626808907
    H            4.022376274673     0.804375060444    -0.179703103037

  Mulliken Charges: (a.u.)
   Center  Symbol    Alpha    Beta     Spin     Total
       1     H     0.40061  0.40061  0.00000  0.19878
       2     O     4.18814  4.18814  0.00000 -0.37628
       3     C     2.96617  2.96617  0.00000  0.06767
       4     C     3.10780  3.10780  0.00000 -0.21560
       5     H     0.47066  0.47066  0.00000  0.05869
       6     H     0.47250  0.47250  0.00000  0.05500
       7     C     3.08491  3.08491  0.00000 -0.16981
       8     H     0.45425  0.45425  0.00000  0.09151
       9     H     0.45251  0.45251  0.00000  0.09497
      10     C     3.09594  3.09594  0.00000 -0.19187
      11     H     0.44818  0.44818  0.00000  0.10364
      12     H     0.44715  0.44715  0.00000  0.10570
      13     C     3.08935  3.08935  0.00000 -0.17870
      14     H     0.45661  0.45661  0.00000  0.08679
      15     H     0.45188  0.45188  0.00000  0.09625
      16     C     3.15275  3.15275  0.00000 -0.30550
      17     H     0.45007  0.45007  0.00000  0.09986
      18     H     0.45493  0.45493  0.00000  0.09014
      19     H     0.45623  0.45623  0.00000  0.08754
      20     H     0.45176  0.45176  0.00000  0.09648
      21     H     0.44761  0.44761  0.00000  0.10478

   Total alpha = 29.00000, Total beta = 29.00000, Total charge =  0.00000
