  ==> Input File <==

--------------------------------------------------------------------------
set {
	reference rhf
	basis 6-31G*
}

set_num_threads( 4 )
memory 2 gb

molecule MOL {
0 1

H	 3.729471	 -0.928294	 -0.070608
O	 2.826016	 -1.159218	 0.122261
C	 2.077727	 -0.067559	 -0.035091
C	 0.624473	 -0.343591	 0.253101
O	 2.542965	 0.974826	 -0.363729
C	 -0.265902	 0.883932	 0.072916
H	 0.324016	 -1.163849	 -0.390541
H	 0.565024	 -0.726111	 1.268924
C	 -1.728698	 0.646073	 0.462102
H	 -0.209144	 1.219470	 -0.958188
H	 0.135059	 1.692851	 0.673903
C	 -2.003984	 0.641095	 1.968472
H	 -2.035306	 -0.312899	 0.050854
H	 -2.358521	 1.394451	 -0.016864
C	 -3.456130	 0.296670	 2.298806
H	 -1.344006	 -0.077194	 2.450692
H	 -1.766062	 1.611261	 2.396904
H	 -3.627144	 0.301013	 3.370743
H	 -3.719918	 -0.688569	 1.925244
H	 -4.140054	 1.012754	 1.851919

	symmetry c1
}
set optking {
	frozen_dihedral = ("
		12 9 6 10
	")
}

ee = optimize('scf')
oeprop('DIPOLE', 'QUADRUPOLE', 'MULLIKEN_CHARGES')
f=open( 'psi4out.xyz', 'w' )
f.write( "20  " )
f.write( str(ee) + "\n" )
f.write( MOL.save_string_xyz() )
f.close()
--------------------------------------------------------------------------

    Molecular point group: c1
  Charge       = 0
  Multiplicity = 1
  Basis Set: 6-31G*
  Basis Set:
  @DF-RHF Final Energy:  -383.94783215311185
    Total Energy =                       -383.9478321531115625
    Molecular point group: c1
  Basis Set: 6-31G*
  Basis Set:
  Basis Set: 6-31G*
  Basis Set:
  @DF-RHF Final Energy:  -383.94826350967548
    Total Energy =                       -383.9482635096753143
  Basis Set: 6-31G*
  Basis Set:
  Basis Set: 6-31G*
  Basis Set:
  @DF-RHF Final Energy:  -383.94814219453389
    Total Energy =                       -383.9481421945338866
  Basis Set: 6-31G*
  Basis Set:
  Basis Set: 6-31G*
  Basis Set:
  @DF-RHF Final Energy:  -383.94833069638884
    Total Energy =                       -383.9483306963886662
  Basis Set: 6-31G*
  Basis Set:
  Basis Set: 6-31G*
  Basis Set:
  @DF-RHF Final Energy:  -383.94832974959053
    Total Energy =                       -383.9483297495900729
  Basis Set: 6-31G*
  Basis Set:
  Basis Set: 6-31G*
  Basis Set:
  @DF-RHF Final Energy:  -383.94833707294424
    Total Energy =                       -383.9483370729442413
  Basis Set: 6-31G*
  Basis Set:
  Charge       = 0
  Multiplicity = 1
  Basis Set: 6-31G*
  Basis Set:

    Orbital Energies (a.u.)
    -----------------------

    Doubly Occupied:

       1A    -20.612585     2A    -20.551669     3A    -11.381218
       4A    -11.240491     5A    -11.222791     6A    -11.220544
       7A    -11.219944     8A    -11.212180     9A     -1.474635
      10A     -1.365696    11A     -1.095889    12A     -1.041289
      13A     -0.960726    14A     -0.868755    15A     -0.813916
      16A     -0.780191    17A     -0.699572    18A     -0.690172
      19A     -0.663049    20A     -0.634986    21A     -0.604223
      22A     -0.593345    23A     -0.574236    24A     -0.556403
      25A     -0.540770    26A     -0.510274    27A     -0.496551
      28A     -0.479327    29A     -0.471682    30A     -0.467726
      31A     -0.456525    32A     -0.443401

  @DF-RHF Final Energy:  -383.94833743356247

   => Energetics <=

    Nuclear Repulsion Energy =            375.4301532708822720
    One-Electron Energy =               -1266.8674626256547526
    Two-Electron Energy =                 507.4889719212096679
    DFT Exchange-Correlation Energy =       0.0000000000000000
    Empirical Dispersion Energy =           0.0000000000000000
    PCM Polarization Energy =               0.0000000000000000
    EFP Energy =                            0.0000000000000000
    Total Energy =                       -383.9483374335627559
    Molecular point group: c1
  Basis Set: 6-31G*
  Basis Set:

  -Total Gradient:
     Atom            X                  Y                   Z
    ------   -----------------  -----------------  -----------------
       1        0.000005583232    -0.000003103724     0.000001837543
       2        0.000006191791     0.000004132283    -0.000010606893
       3       -0.000012671555    -0.000001747831    -0.000008647706
       4       -0.000009313636    -0.000003856279    -0.000028345639
       5        0.000005583267    -0.000005038239     0.000017101570
       6        0.000141186637    -0.001701771000    -0.000730069813
       7        0.000002150713     0.000008168925     0.000016742736
       8        0.000007004777     0.000003950772     0.000012586318
       9        0.000340308338    -0.001540602862     0.000187474058
      10       -0.000210976248     0.001849809358     0.000583552434
      11        0.000005262956    -0.000003025799    -0.000000279867
      12       -0.000277250017     0.001399753590    -0.000045804383
      13        0.000002641084    -0.000003860108     0.000000965537
      14       -0.000006336068    -0.000004653584     0.000000222504
      15        0.000001170941    -0.000000776251     0.000003133207
      16       -0.000012449952     0.000001937352     0.000007199722
      17        0.000012076960    -0.000001079146    -0.000007443886
      18       -0.000001108905    -0.000001136463     0.000000717138
      19       -0.000000212569     0.000001884276    -0.000003845547
      20        0.000001158247     0.000001014726     0.000003510965

  **** Optimization is complete! (in 7 steps) ****
    Final optimized geometry and variables:
    Molecular point group: c1

    Geometry (in Angstrom), charge = 0, multiplicity = 1:

    H            3.620865311434    -1.117139670590    -0.723287015870
    O            2.729120678790    -1.347958025446    -0.481887157469
    C            1.963270531035    -0.270119019593    -0.649342514956
    C            0.526683470098    -0.546752549709    -0.288285793435
    O            2.402737175255     0.762680241925    -1.038215087148
    C           -0.385445288226     0.662363033597    -0.478243738988
    H            0.197448697458    -1.385633545902    -0.895541046150
    H            0.518794575114    -0.902827602471     0.737346301617
    C           -1.850106487810     0.382681045323    -0.118058283274
    H           -0.320000951544     0.999601431510    -1.507009171932
    H           -0.013781914978     1.487671958243     0.121377460544
    C           -2.139678761028     0.371949656824     1.385692572184
    H           -2.165478527696    -0.561500575726    -0.559259488528
    H           -2.468941268870     1.149722746214    -0.577648338430
    C           -3.612958289980     0.115915336024     1.701482387171
    H           -1.534781131787    -0.384856887476     1.879830643734
    H           -1.839695037323     1.327261262832     1.810255448261
    H           -3.792708090703     0.123509968477     2.771969500429
    H           -3.934380549759    -0.848700262562     1.318903063147
    H           -4.247109217687     0.875938454592     1.253970678433

  Mulliken Charges: (a.u.)
   Center  Symbol    Alpha    Beta     Spin     Total
       1     H     0.26785  0.26785  0.00000  0.46430
       2     O     4.35158  4.35158  0.00000 -0.70315
       3     C     2.62241  2.62241  0.00000  0.75519
       4     C     3.21184  3.21184  0.00000 -0.42369
       5     O     4.27928  4.27928  0.00000 -0.55855
       6     C     3.15555  3.15555  0.00000 -0.31109
       7     H     0.39867  0.39867  0.00000  0.20265
       8     H     0.39741  0.39741  0.00000  0.20517
       9     C     3.15643  3.15643  0.00000 -0.31287
      10     H     0.40873  0.40873  0.00000  0.18253
      11     H     0.41093  0.41093  0.00000  0.17814
      12     C     3.15356  3.15356  0.00000 -0.30711
      13     H     0.42373  0.42373  0.00000  0.15255
      14     H     0.41780  0.41780  0.00000  0.16439
      15     C     3.23943  3.23943  0.00000 -0.47886
      16     H     0.42376  0.42376  0.00000  0.15247
      17     H     0.42058  0.42058  0.00000  0.15885
      18     H     0.41829  0.41829  0.00000  0.16342
      19     H     0.42143  0.42143  0.00000  0.15714
      20     H     0.42075  0.42075  0.00000  0.15850

   Total alpha = 32.00000, Total beta = 32.00000, Total charge = -0.00000
