  ==> Input File <==

--------------------------------------------------------------------------
set {
	reference rhf
	basis 6-31G*
}

set_num_threads( 1 )
memory 2 gb

molecule MOL {
0 1

H	 -4.236494	 0.538104	 0.039757
O	 -3.517110	 -0.026191	 -0.205115
C	 -2.306886	 0.532354	 0.237577
C	 -1.177863	 -0.397191	 -0.171080
H	 -2.156308	 1.517575	 -0.201710
H	 -2.315015	 0.655684	 1.319734
C	 0.198102	 0.111031	 0.262842
H	 -1.208843	 -0.518759	 -1.250427
H	 -1.368741	 -1.376554	 0.258909
C	 1.331804	 -0.827780	 -0.158768
H	 0.361943	 1.100838	 -0.156218
H	 0.217265	 0.229072	 1.345532
C	 2.723619	 -0.410569	 0.329459
H	 1.342964	 -0.912588	 -1.244120
H	 1.116806	 -1.824343	 0.220779
C	 3.579790	 -1.558768	 0.866994
H	 2.603892	 0.331712	 1.114808
H	 3.254054	 0.087740	 -0.479548
H	 3.068769	 -2.083815	 1.669629
H	 3.817738	 -2.284190	 0.096073
H	 4.519383	 -1.185950	 1.263134

	symmetry c1
}
set optking {
	frozen_dihedral = ("
		2 3 4 8,
		8 4 7 10,
		4 7 10 14,
		1 2 3 5
	")
}

ee = energy('scf')
oeprop('DIPOLE', 'QUADRUPOLE', 'MULLIKEN_CHARGES')
f=open( 'psi4out.xyz', 'w' )
f.write( "21  " )
f.write( str(ee) + "\n" )
f.write( MOL.save_string_xyz() )
f.close()
--------------------------------------------------------------------------

    Molecular point group: c1

    Geometry (in Angstrom), charge = 0, multiplicity = 1:

       Center              X                  Y                   Z               Mass
    ------------   -----------------  -----------------  -----------------  -----------------
           H         -4.285609309354     0.898521879882    -0.128218949948     1.007825032070
           O         -3.566225309354     0.334226879882    -0.373090949948    15.994914619560
           C         -2.356001309354     0.892771879882     0.069601050052    12.000000000000
           C         -1.226978309354    -0.036773120118    -0.339055949948    12.000000000000
           H         -2.205423309354     1.877992879882    -0.369685949948     1.007825032070
           H         -2.364130309354     1.016101879882     1.151758050052     1.007825032070
           C          0.148986690646     0.471448879882     0.094866050052    12.000000000000
           H         -1.257958309354    -0.158341120118    -1.418402949948     1.007825032070
           H         -1.417856309354    -1.016136120118     0.090933050052     1.007825032070
           C          1.282688690646    -0.467362120118    -0.326743949948    12.000000000000
           H          0.312827690646     1.461255879882    -0.324193949948     1.007825032070
           H          0.168149690646     0.589489879882     1.177556050052     1.007825032070
           C          2.674503690646    -0.050151120118     0.161483050052    12.000000000000
           H          1.293848690646    -0.552170120118    -1.412095949948     1.007825032070
           H          1.067690690646    -1.463925120118     0.052803050052     1.007825032070
           C          3.530674690646    -1.198350120118     0.699018050052    12.000000000000
           H          2.554776690646     0.692129879882     0.946832050052     1.007825032070
           H          3.204938690646     0.448157879882    -0.647523949948     1.007825032070
           H          3.019653690646    -1.723397120118     1.501653050052     1.007825032070
           H          3.768622690646    -1.923772120118    -0.071902949948     1.007825032070
           H          4.470267690646    -0.825532120118     1.095158050052     1.007825032070

  Charge       = 0
  Multiplicity = 1
  Basis Set: 6-31G*
  Basis Set:

    Orbital Energies (a.u.)
    -----------------------

    Doubly Occupied:

       1A    -20.551900     2A    -11.267161     3A    -11.216752
       4A    -11.213778     5A    -11.212294     6A    -11.210570
       7A    -11.208608     8A     -1.358723     9A     -1.085445
      10A     -1.034023    11A     -0.956586    12A     -0.869010
      13A     -0.802816    14A     -0.789202    15A     -0.692186
      16A     -0.662754    17A     -0.628567    18A     -0.598013
      19A     -0.583900    20A     -0.562148    21A     -0.546869
      22A     -0.521898    23A     -0.507226    24A     -0.485603
      25A     -0.477409    26A     -0.460132    27A     -0.456258
      28A     -0.443641    29A     -0.434025

  @DF-RHF Final Energy:  -310.20942220534488

   => Energetics <=

    Nuclear Repulsion Energy =            309.1562220691330936
    One-Electron Energy =               -1033.0564441085314229
    Two-Electron Energy =                 413.6907998340537347
    DFT Exchange-Correlation Energy =       0.0000000000000000
    Empirical Dispersion Energy =           0.0000000000000000
    PCM Polarization Energy =               0.0000000000000000
    EFP Energy =                            0.0000000000000000
    Total Energy =                       -310.2094222053446515

  Mulliken Charges: (a.u.)
   Center  Symbol    Alpha    Beta     Spin     Total
       1     H     0.28117  0.28117  0.00000  0.43766
       2     O     4.37172  4.37172  0.00000 -0.74343
       3     C     2.98982  2.98982  0.00000  0.02036
       4     C     3.15991  3.15991  0.00000 -0.31983
       5     H     0.43288  0.43288  0.00000  0.13424
       6     H     0.43288  0.43288  0.00000  0.13423
       7     C     3.16179  3.16179  0.00000 -0.32358
       8     H     0.41469  0.41469  0.00000  0.17061
       9     H     0.41455  0.41455  0.00000  0.17089
      10     C     3.15301  3.15301  0.00000 -0.30602
      11     H     0.42286  0.42286  0.00000  0.15429
      12     H     0.42343  0.42343  0.00000  0.15315
      13     C     3.15397  3.15397  0.00000 -0.30793
      14     H     0.42050  0.42050  0.00000  0.15901
      15     H     0.42105  0.42105  0.00000  0.15789
      16     C     3.23996  3.23996  0.00000 -0.47992
      17     H     0.42195  0.42195  0.00000  0.15610
      18     H     0.42097  0.42097  0.00000  0.15805
      19     H     0.42183  0.42183  0.00000  0.15634
      20     H     0.42076  0.42076  0.00000  0.15848
      21     H     0.42030  0.42030  0.00000  0.15940

   Total alpha = 29.00000, Total beta = 29.00000, Total charge =  0.00000
