  ==> Input File <==

--------------------------------------------------------------------------
set {
	reference rhf
	basis 6-31G*
}

set_num_threads( 1 )
memory 2 gb

molecule MOL {
0 1

O	 -2.439739	 -0.935931	 -0.423848
C	 -1.921153	 0.064240	 -0.045697
C	 -2.624470	 1.379923	 0.150949
O	 -0.632575	 0.154573	 0.251549
H	 -2.168117	 2.136577	 -0.476876
H	 -3.669540	 1.273223	 -0.098610
H	 -2.519365	 1.700893	 1.180846
C	 0.160891	 -1.019931	 0.106212
C	 1.589627	 -0.672828	 0.480843
H	 0.089836	 -1.367806	 -0.916050
H	 -0.238459	 -1.792301	 0.749618
C	 1.751280	 -0.174084	 1.918035
H	 1.932259	 0.092934	 -0.212082
H	 2.217068	 -1.545281	 0.318356
C	 3.196814	 0.191310	 2.252578
H	 1.114235	 0.695010	 2.069532
H	 1.401020	 -0.937882	 2.604540
H	 3.285289	 0.540816	 3.276321
H	 3.564959	 0.979027	 1.601234
H	 3.854229	 -0.665884	 2.138111

	symmetry c1
}
set optking {
	frozen_dihedral = ("
		16 12 9 8,
		2 4 8 10,
		1 2 4 8
	")
}

ee = energy('scf')
oeprop('DIPOLE', 'QUADRUPOLE', 'MULLIKEN_CHARGES')
f=open( 'psi4out.xyz', 'w' )
f.write( "20  " )
f.write( str(ee) + "\n" )
f.write( MOL.save_string_xyz() )
f.close()
--------------------------------------------------------------------------

    Molecular point group: c1

    Geometry (in Angstrom), charge = 0, multiplicity = 1:

       Center              X                  Y                   Z               Mass
    ------------   -----------------  -----------------  -----------------  -----------------
           O         -2.315925252266    -0.813982919665    -1.009027432328    15.994914619560
           C         -1.797339252266     0.186188080335    -0.630876432328    12.000000000000
           C         -2.500656252266     1.501871080335    -0.434230432328    12.000000000000
           O         -0.508761252266     0.276521080335    -0.333630432328    15.994914619560
           H         -2.044303252266     2.258525080335    -1.062055432328     1.007825032070
           H         -3.545726252266     1.395171080335    -0.683789432328     1.007825032070
           H         -2.395551252266     1.822841080335     0.595666567672     1.007825032070
           C          0.284704747734    -0.897982919665    -0.478967432328    12.000000000000
           C          1.713440747734    -0.550879919665    -0.104336432328    12.000000000000
           H          0.213649747734    -1.245857919665    -1.501229432328     1.007825032070
           H         -0.114645252266    -1.670352919665     0.164438567672     1.007825032070
           C          1.875093747734    -0.052135919665     1.332855567672    12.000000000000
           H          2.056072747734     0.214882080335    -0.797261432328     1.007825032070
           H          2.340881747734    -1.423332919665    -0.266823432328     1.007825032070
           C          3.320627747734     0.313258080335     1.667398567672    12.000000000000
           H          1.238048747734     0.816958080335     1.484352567672     1.007825032070
           H          1.524833747734    -0.815933919665     2.019360567672     1.007825032070
           H          3.409102747734     0.662764080335     2.691141567672     1.007825032070
           H          3.688772747734     1.100975080335     1.016054567672     1.007825032070
           H          3.978042747734    -0.543935919665     1.552931567672     1.007825032070

  Charge       = 0
  Multiplicity = 1
  Basis Set: 6-31G*
  Basis Set:

    Orbital Energies (a.u.)
    -----------------------

    Doubly Occupied:

       1A    -20.602203     2A    -20.544327     3A    -11.374827
       4A    -11.282364     5A    -11.233677     6A    -11.225449
       7A    -11.220132     8A    -11.213157     9A     -1.468303
      10A     -1.362519    11A     -1.085894    12A     -1.028250
      13A     -0.981400    14A     -0.880038    15A     -0.812056
      16A     -0.774184    17A     -0.689967    18A     -0.684143
      19A     -0.666969    20A     -0.631637    21A     -0.600812
      22A     -0.592584    23A     -0.572533    24A     -0.550100
      25A     -0.545157    26A     -0.532475    27A     -0.511437
      28A     -0.483398    29A     -0.473894    30A     -0.471158
      31A     -0.449261    32A     -0.439139

  @DF-RHF Final Energy:  -383.94544584880401

   => Energetics <=

    Nuclear Repulsion Energy =            385.6357334162527764
    One-Electron Energy =               -1287.1957299551668257
    Two-Electron Energy =                 517.6145506901101498
    DFT Exchange-Correlation Energy =       0.0000000000000000
    Empirical Dispersion Energy =           0.0000000000000000
    PCM Polarization Energy =               0.0000000000000000
    EFP Energy =                            0.0000000000000000
    Total Energy =                       -383.9454458488038426

  Mulliken Charges: (a.u.)
   Center  Symbol    Alpha    Beta     Spin     Total
       1     O     4.28314  4.28314  0.00000 -0.56627
       2     C     2.61906  2.61906  0.00000  0.76189
       3     C     3.28176  3.28176  0.00000 -0.56351
       4     O     4.30855  4.30855  0.00000 -0.61710
       5     H     0.40050  0.40050  0.00000  0.19901
       6     H     0.39677  0.39677  0.00000  0.20645
       7     H     0.40077  0.40077  0.00000  0.19845
       8     C     3.00265  3.00265  0.00000 -0.00529
       9     C     3.16520  3.16520  0.00000 -0.33040
      10     H     0.40767  0.40767  0.00000  0.18465
      11     H     0.41144  0.41144  0.00000  0.17711
      12     C     3.15523  3.15523  0.00000 -0.31045
      13     H     0.41586  0.41586  0.00000  0.16828
      14     H     0.41724  0.41724  0.00000  0.16552
      15     C     3.24030  3.24030  0.00000 -0.48060
      16     H     0.41129  0.41129  0.00000  0.17742
      17     H     0.42250  0.42250  0.00000  0.15501
      18     H     0.41764  0.41764  0.00000  0.16472
      19     H     0.42048  0.42048  0.00000  0.15905
      20     H     0.42197  0.42197  0.00000  0.15606

   Total alpha = 32.00000, Total beta = 32.00000, Total charge = -0.00000
