  ==> Input File <==

--------------------------------------------------------------------------
set {
	reference rhf
	basis cc-pvtz
}

set_num_threads( 4 )
memory 2 gb

molecule MOL {
0 1

H	 -2.931752	 1.714088	 1.166502
O	 -2.182256	 1.679143	 1.733499
C	 -1.014524	 1.754058	 0.975596
C	 -0.793473	 0.591216	 0.050087
H	 -0.193934	 1.809210	 1.681211
H	 -0.986884	 2.674821	 0.395828
C	 -1.534243	 -0.493009	 -0.013340
H	 0.058438	 0.692161	 -0.602067
H	 -1.101195	 -1.466332	 -0.144046
H	 -2.604242	 -0.437780	 0.050785

	symmetry c1
}
set optking {
	frozen_dihedral = ("
		3 4 7 9
	")
}

ee = optimize('scf')
oeprop('DIPOLE', 'QUADRUPOLE', 'MULLIKEN_CHARGES')
f=open( 'psi4out.xyz', 'w' )
f.write( "10  " )
f.write( str(ee) + "\n" )
f.write( MOL.save_string_xyz() )
f.close()
--------------------------------------------------------------------------

    Molecular point group: c1
  Charge       = 0
  Multiplicity = 1
  Basis Set: CC-PVTZ
  Basis Set:
  @DF-RHF Final Energy:  -191.96071627889754
    Total Energy =                       -191.9607162788975074
    Molecular point group: c1
  Basis Set: CC-PVTZ
  Basis Set:
  Basis Set: CC-PVTZ
  Basis Set:
  @DF-RHF Final Energy:  -191.97685165026445
    Total Energy =                       -191.9768516502644502
  Basis Set: CC-PVTZ
  Basis Set:
  Basis Set: CC-PVTZ
  Basis Set:
  @DF-RHF Final Energy:  -191.98329008562803
    Total Energy =                       -191.9832900856281412
  Basis Set: CC-PVTZ
  Basis Set:
  Basis Set: CC-PVTZ
  Basis Set:
  @DF-RHF Final Energy:  -191.98345467523666
    Total Energy =                       -191.9834546752367146
  Basis Set: CC-PVTZ
  Basis Set:
  @DF-RHF Final Energy:  -191.98345924770243
    Total Energy =                       -191.9834592477025126
  @DF-RHF Final Energy:  -191.94248432632816
    Total Energy =                       -191.9424843263282412
  @DF-RHF Final Energy:  -191.93871695699119
    Total Energy =                       -191.9387169569912430
  @DF-RHF Final Energy:  -191.97552988532232
    Total Energy =                       -191.9755298853224872
  @DF-RHF Final Energy:  -191.95911027065736
    Total Energy =                       -191.9591102706573338
  @DF-RHF Final Energy:  -191.97990305913214
    Total Energy =                       -191.9799030591321127
  @DF-RHF Final Energy:  -191.98334575064800
    Total Energy =                       -191.9833457506480272
  @DF-RHF Final Energy:  -191.98344810288563
    Total Energy =                       -191.9834481028856317
  @DF-RHF Final Energy:  -191.98345909976234
    Total Energy =                       -191.9834590997623422
  @DF-RHF Final Energy:  -191.98345724786213
    Total Energy =                       -191.9834572478620771
  @DF-RHF Final Energy:  -191.98345540470012
    Total Energy =                       -191.9834554047001802
  @DF-RHF Final Energy:  -191.98345204054812
    Total Energy =                       -191.9834520405482294
  @DF-RHF Final Energy:  -191.95749243689295
    Total Energy =                       -191.9574924368930056
  @DF-RHF Final Energy:  -191.98053978919299
    Total Energy =                       -191.9805397891929886
  @DF-RHF Final Energy:  -191.98270270723845
    Total Energy =                       -191.9827027072384453
  @DF-RHF Final Energy:  -191.98149563496520
    Total Energy =                       -191.9814956349651993
  Basis Set: CC-PVTZ
  Basis Set:
  @DF-RHF Final Energy:  -191.98339914996308
    Total Energy =                       -191.9833991499631338
  Basis Set: CC-PVTZ
  Basis Set:
  Basis Set: CC-PVTZ
  Basis Set:
  @DF-RHF Final Energy:  -191.98345590772624
    Total Energy =                       -191.9834559077261815
  Basis Set: CC-PVTZ
  Basis Set:
  Basis Set: CC-PVTZ
  Basis Set:
  @DF-RHF Final Energy:  -191.98345881671978
    Total Energy =                       -191.9834588167198035
  Basis Set: CC-PVTZ
  Basis Set:
  Charge       = 0
  Multiplicity = 1
  Basis Set: CC-PVTZ
  Basis Set:

    Orbital Energies (a.u.)
    -----------------------

    Doubly Occupied:

       1A    -20.555533     2A    -11.281680     3A    -11.231538
       4A    -11.215888     5A     -1.375547     6A     -1.062562
       7A     -0.932405     8A     -0.771547     9A     -0.692618
      10A     -0.660645    11A     -0.622182    12A     -0.576513
      13A     -0.541005    14A     -0.491953    15A     -0.454903
      16A     -0.361063

  @DF-RHF Final Energy:  -191.98345920160625

   => Energetics <=

    Nuclear Repulsion Energy =            119.1983297913357092
    One-Electron Energy =                -496.7084115361349745
    Two-Electron Energy =                 185.5266225431929286
    DFT Exchange-Correlation Energy =       0.0000000000000000
    Empirical Dispersion Energy =           0.0000000000000000
    PCM Polarization Energy =               0.0000000000000000
    EFP Energy =                            0.0000000000000000
    Total Energy =                       -191.9834592016063368
    Molecular point group: c1
  Basis Set: CC-PVTZ
  Basis Set:

  -Total Gradient:
     Atom            X                  Y                   Z
    ------   -----------------  -----------------  -----------------
       1       -0.000073731970    -0.000009303218     0.000014162053
       2       -0.000086181859    -0.000033996061    -0.000021915906
       3        0.013121581620    -0.007852027876     0.011342131541
       4       -0.019928276273     0.012012650203    -0.008359088296
       5        0.000047625048    -0.000048800340    -0.000041952058
       6        0.000011602166    -0.000000154846    -0.000044732142
       7        0.002288809736    -0.000629819543    -0.027241529721
       8       -0.000002256672    -0.000103714108     0.000003366293
       9        0.004689376558    -0.003357140781     0.024400424206
      10       -0.000068548355     0.000022306569    -0.000050865970

  **** Optimization is complete! (in 24 steps) ****
    Final optimized geometry and variables:
    Molecular point group: c1

    Geometry (in Angstrom), charge = 0, multiplicity = 1:

    H           -1.501237663366     0.975298938920     0.390852077049
    O           -0.787600784768     0.782706526204     0.971954057865
    C            0.416190910211     0.801870543029     0.267908932086
    C            0.596380291664    -0.320641237186    -0.717692818287
    H            1.206188851273     0.683899208806     0.998891292656
    H            0.569497558364     1.768812920836    -0.207244607136
    C           -0.067564301625    -1.458014493246    -0.745219454776
    H            1.552195526690    -0.277573995113    -1.218864989430
    H            0.409057715743    -2.394930429082    -0.965667006868
    H           -0.987941252810    -1.547213324170    -0.194882936808

  Mulliken Charges: (a.u.)
   Center  Symbol    Alpha    Beta     Spin     Total
       1     H     0.39109  0.39109  0.00000  0.21782
       2     O     4.19799  4.19799  0.00000 -0.39598
       3     C     2.95278  2.95278  0.00000  0.09445
       4     C     3.08831  3.08831  0.00000 -0.17662
       5     H     0.45092  0.45092  0.00000  0.09815
       6     H     0.46517  0.46517  0.00000  0.06966
       7     C     3.16736  3.16736  0.00000 -0.33472
       8     H     0.42859  0.42859  0.00000  0.14282
       9     H     0.42540  0.42540  0.00000  0.14921
      10     H     0.43239  0.43239  0.00000  0.13521

   Total alpha = 16.00000, Total beta = 16.00000, Total charge = -0.00000
