  ==> Input File <==

--------------------------------------------------------------------------
set {
	reference rhf
	basis 6-31G*
}

set_num_threads( 4 )
memory 2 gb

molecule MOL {
0 1

H	 3.302973	 -0.411670	 0.003647
C	 2.242404	 -0.233868	 0.002863
C	 1.365620	 -1.291240	 -0.207077
C	 1.759025	 1.047143	 0.211034
H	 1.748538	 -2.282716	 -0.367935
C	 0.003009	 -1.066407	 -0.208711
H	 2.440286	 1.862538	 0.373083
C	 0.391811	 1.271394	 0.209162
H	 -0.691228	 -1.869820	 -0.369066
C	 -0.488460	 0.219100	 0.000000
H	 0.009969	 2.264945	 0.370412
C	 -1.949954	 0.470334	 0.000000
O	 -2.781584	 -0.381627	 0.000000
H	 -2.238022	 1.526388	 0.000000

	symmetry c1
}
set optking {
	frozen_dihedral = ("
		8 10 12 14
	")
}

ee = optimize('scf')
oeprop('DIPOLE', 'QUADRUPOLE', 'MULLIKEN_CHARGES')
f=open( 'psi4out.xyz', 'w' )
f.write( "14  " )
f.write( str(ee) + "\n" )
f.write( MOL.save_string_xyz() )
f.close()
--------------------------------------------------------------------------

    Molecular point group: c1
  Charge       = 0
  Multiplicity = 1
  Basis Set: 6-31G*
  Basis Set:
  @DF-RHF Final Energy:  -343.43256478950372
    Total Energy =                       -343.4325647895042266
    Molecular point group: c1
  Basis Set: 6-31G*
  Basis Set:
  Basis Set: 6-31G*
  Basis Set:
  @DF-RHF Final Energy:  -343.43177836413099
    Total Energy =                       -343.4317783641308779
  Basis Set: 6-31G*
  Basis Set:
  Basis Set: 6-31G*
  Basis Set:
  @DF-RHF Final Energy:  -343.43261960920961
    Total Energy =                       -343.4326196092094960
  Basis Set: 6-31G*
  Basis Set:
  Basis Set: 6-31G*
  Basis Set:
  @DF-RHF Final Energy:  -343.43262925181574
    Total Energy =                       -343.4326292518156833
  Basis Set: 6-31G*
  Basis Set:
  Charge       = 0
  Multiplicity = 1
  Basis Set: 6-31G*
  Basis Set:

    Orbital Energies (a.u.)
    -----------------------

    Doubly Occupied:

       1A    -20.562023     2A    -11.331219     3A    -11.254259
       4A    -11.251376     5A    -11.247526     6A    -11.245774
       7A    -11.245135     8A    -11.243225     9A     -1.402716
      10A     -1.171157    11A     -1.047249    12A     -1.031534
      13A     -0.889312    14A     -0.843940    15A     -0.790738
      16A     -0.720806    17A     -0.677717    18A     -0.651468
      19A     -0.619090    20A     -0.615150    21A     -0.602350
      22A     -0.554757    23A     -0.526150    24A     -0.506519
      25A     -0.501222    26A     -0.421564    27A     -0.350050
      28A     -0.346728

  @DF-RHF Final Energy:  -343.43262944929620

   => Energetics <=

    Nuclear Repulsion Energy =            323.2286215735035739
    One-Electron Energy =               -1106.0209968764547739
    Two-Electron Energy =                 439.3597458536548857
    DFT Exchange-Correlation Energy =       0.0000000000000000
    Empirical Dispersion Energy =           0.0000000000000000
    PCM Polarization Energy =               0.0000000000000000
    EFP Energy =                            0.0000000000000000
    Total Energy =                       -343.4326294492963143
    Molecular point group: c1
  Basis Set: 6-31G*
  Basis Set:

  -Total Gradient:
     Atom            X                  Y                   Z
    ------   -----------------  -----------------  -----------------
       1       -0.000000492784    -0.000000041071     0.000013588340
       2       -0.000004180543    -0.000023914929    -0.000043007033
       3        0.000030201297     0.000015398238    -0.000028385757
       4       -0.000025993740     0.000012248099     0.000039206908
       5       -0.000001918304    -0.000001303153     0.000003219936
       6       -0.000023731969     0.000009873126     0.000069980766
       7        0.000002459039    -0.000000444411    -0.000006500789
       8       -0.000002556587    -0.000283030101     0.001576378375
       9        0.000001654328     0.000003497227    -0.000023599989
      10        0.000020676440     0.000411218955    -0.002945491028
      11       -0.000001986490    -0.000002937838     0.000000543095
      12        0.000017571973    -0.000155790962     0.003316606653
      13        0.000003517998    -0.000010568893     0.000002289962
      14       -0.000015220656     0.000025795714    -0.001974829440

  **** Optimization is complete! (in 5 steps) ****
    Final optimized geometry and variables:
    Molecular point group: c1

    Geometry (in Angstrom), charge = 0, multiplicity = 1:

    H            3.302567103444    -0.412812096626     0.010250345877
    C            2.242126298663    -0.234146915755     0.006376717027
    C            1.364795816119    -1.291040236722    -0.205105857668
    C            1.759173558633     1.046958856807     0.213589549806
    H            1.747327464630    -2.282989789222    -0.363869438513
    C            0.002375376031    -1.065895410455    -0.207066890511
    H            2.440317600938     1.861492373441     0.380412044259
    C            0.392051132902     1.273058437936     0.203527899638
    H           -0.692216380989    -1.870172695287    -0.361080255226
    C           -0.488311148804     0.221767299030    -0.009364046859
    H            0.010941168825     2.267550976626     0.361221898175
    C           -1.950519645944     0.469804952395     0.009776306755
    O           -2.779846433322    -0.384027630682    -0.012161506620
    H           -2.241567067432     1.524823802296     0.026366444866

  Mulliken Charges: (a.u.)
   Center  Symbol    Alpha    Beta     Spin     Total
       1     H     0.39412  0.39412  0.00000  0.21177
       2     C     3.09118  3.09118  0.00000 -0.18235
       3     C     3.10433  3.10433  0.00000 -0.20866
       4     C     3.10444  3.10444  0.00000 -0.20888
       5     H     0.39395  0.39395  0.00000  0.21211
       6     C     3.08768  3.08768  0.00000 -0.17536
       7     H     0.39467  0.39467  0.00000  0.21065
       8     C     3.10205  3.10205  0.00000 -0.20409
       9     H     0.37744  0.37744  0.00000  0.24512
      10     C     3.05344  3.05344  0.00000 -0.10689
      11     H     0.39251  0.39251  0.00000  0.21498
      12     C     2.83253  2.83253  0.00000  0.33493
      13     O     4.24832  4.24832  0.00000 -0.49663
      14     H     0.42335  0.42335  0.00000  0.15330

   Total alpha = 28.00000, Total beta = 28.00000, Total charge = -0.00000
