  ==> Input File <==

--------------------------------------------------------------------------
set {
	reference rhf
	basis cc-pvtz
}

set_num_threads( 4 )
memory 2 gb

molecule MOL {
0 1

H	 -0.894043	 -1.225607	 -0.380029
N	 -1.173824	 -0.310545	 -0.096857
C	 -0.022588	 0.563366	 0.065815
H	 -1.790508	 0.040224	 -0.799902
C	 1.270420	 -0.230572	 -0.014245
H	 -0.045354	 1.293678	 -0.735129
H	 -0.043155	 1.123061	 1.001180
H	 1.336273	 -0.754933	 -0.959364
H	 2.130728	 0.422015	 0.082222
H	 1.323344	 -0.967006	 0.781773

	symmetry c1
}
set optking {
	frozen_dihedral = ("
		1 2 3 6
	")
}

ee = optimize('scf')
oeprop('DIPOLE', 'QUADRUPOLE', 'MULLIKEN_CHARGES')
f=open( 'psi4out.xyz', 'w' )
f.write( "10  " )
f.write( str(ee) + "\n" )
f.write( MOL.save_string_xyz() )
f.close()
--------------------------------------------------------------------------

    Molecular point group: c1
  Charge       = 0
  Multiplicity = 1
  Basis Set: CC-PVTZ
  Basis Set:
  @DF-RHF Final Energy:  -134.29987979267440
    Total Energy =                       -134.2998797926744032
    Molecular point group: c1
  Basis Set: CC-PVTZ
  Basis Set:
  Basis Set: CC-PVTZ
  Basis Set:
  @DF-RHF Final Energy:  -134.30109262378704
    Total Energy =                       -134.3010926237871558
  Basis Set: CC-PVTZ
  Basis Set:
  Basis Set: CC-PVTZ
  Basis Set:
  @DF-RHF Final Energy:  -134.30126267954608
    Total Energy =                       -134.3012626795460847
  Basis Set: CC-PVTZ
  Basis Set:
  Basis Set: CC-PVTZ
  Basis Set:
  @DF-RHF Final Energy:  -134.30126856999857
    Total Energy =                       -134.3012685699986548
  Basis Set: CC-PVTZ
  Basis Set:
  Charge       = 0
  Multiplicity = 1
  Basis Set: CC-PVTZ
  Basis Set:

    Orbital Energies (a.u.)
    -----------------------

    Doubly Occupied:

       1A    -15.523259     2A    -11.240650     3A    -11.210925
       4A     -1.174725     5A     -0.990393     6A     -0.830085
       7A     -0.663534     8A     -0.619199     9A     -0.595298
      10A     -0.527151    11A     -0.504684    12A     -0.493653
      13A     -0.377970

  @DF-RHF Final Energy:  -134.30126947211764

   => Energetics <=

    Nuclear Repulsion Energy =             83.4653806087311239
    One-Electron Energy =                -346.0302468884229938
    Two-Electron Energy =                 128.2635968075742596
    DFT Exchange-Correlation Energy =       0.0000000000000000
    Empirical Dispersion Energy =           0.0000000000000000
    PCM Polarization Energy =               0.0000000000000000
    EFP Energy =                            0.0000000000000000
    Total Energy =                       -134.3012694721175819
    Molecular point group: c1
  Basis Set: CC-PVTZ
  Basis Set:

  -Total Gradient:
     Atom            X                  Y                   Z
    ------   -----------------  -----------------  -----------------
       1        0.000240756368    -0.000514768887     0.001903996857
       2       -0.000588082567     0.000945982738    -0.002090118670
       3        0.001356845728    -0.001575441359    -0.000894633603
       4        0.000017430137     0.000007682542    -0.000005010869
       5       -0.000074325757     0.000010035611     0.000033712683
       6       -0.000966502274     0.001125499625     0.001050156022
       7       -0.000002335836    -0.000021405932     0.000012232459
       8       -0.000007182979     0.000010213677     0.000016266058
       9        0.000025399346     0.000006039455    -0.000009702399
      10       -0.000002002166     0.000006162530    -0.000016898538

  **** Optimization is complete! (in 5 steps) ****
    Final optimized geometry and variables:
    Molecular point group: c1

    Geometry (in Angstrom), charge = 0, multiplicity = 1:

    H           -0.950441684575    -1.222573775979    -0.327976131649
    N           -1.196987926278    -0.301221561298    -0.041091894463
    C           -0.030242967166     0.567514311038     0.068871416970
    H           -1.879283561806     0.052935881541    -0.672986366507
    C            1.270564459707    -0.216937118622     0.032304951966
    H           -0.025947856433     1.319198088853    -0.715925253092
    H           -0.083729143110     1.112069734150     1.006580246098
    H            1.397880395896    -0.717829481539    -0.921924023438
    H            2.120953730118     0.436945712579     0.185148079367
    H            1.283642110181    -0.969730849054     0.813338932319

  Mulliken Charges: (a.u.)
   Center  Symbol    Alpha    Beta     Spin     Total
       1     H     0.42874  0.42874  0.00000  0.14252
       2     N     3.69476  3.69476  0.00000 -0.38952
       3     C     3.01080  3.01080  0.00000 -0.02160
       4     H     0.42715  0.42715  0.00000  0.14570
       5     C     3.14706  3.14706  0.00000 -0.29411
       6     H     0.46609  0.46609  0.00000  0.06781
       7     H     0.46454  0.46454  0.00000  0.07092
       8     H     0.45797  0.45797  0.00000  0.08405
       9     H     0.45167  0.45167  0.00000  0.09666
      10     H     0.45122  0.45122  0.00000  0.09757

   Total alpha = 13.00000, Total beta = 13.00000, Total charge =  0.00000
