  ==> Input File <==

--------------------------------------------------------------------------
set {
	reference rhf
	basis 6-31G*
}

set_num_threads( 4 )
memory 2 gb

molecule MOL {
0 1

H	 -2.844226	 0.396523	 -0.089117
O	 -2.035884	 -0.060112	 0.102722
C	 -0.955155	 0.788182	 -0.092531
C	 0.353668	 0.040312	 -0.004810
H	 -0.985057	 1.290372	 -1.054184
H	 -0.974469	 1.533190	 0.688632
F	 0.394464	 -0.937475	 -0.903053
F	 1.368604	 0.853376	 -0.249821
F	 0.546173	 -0.502608	 1.179981

	symmetry c1
}
set optking {
	frozen_dihedral = ("
		1 2 3 5
	")
}

ee = optimize('scf')
oeprop('DIPOLE', 'QUADRUPOLE', 'MULLIKEN_CHARGES')
f=open( 'psi4out.xyz', 'w' )
f.write( "9  " )
f.write( str(ee) + "\n" )
f.write( MOL.save_string_xyz() )
f.close()
--------------------------------------------------------------------------

    Molecular point group: c1
  Charge       = 0
  Multiplicity = 1
  Basis Set: 6-31G*
  Basis Set:
  @DF-RHF Final Energy:  -450.65790750367046
    Total Energy =                       -450.6579075036704580
    Molecular point group: c1
  Basis Set: 6-31G*
  Basis Set:
  Basis Set: 6-31G*
  Basis Set:
  @DF-RHF Final Energy:  -450.65929840675801
    Total Energy =                       -450.6592984067579550
  Basis Set: 6-31G*
  Basis Set:
  Basis Set: 6-31G*
  Basis Set:
  @DF-RHF Final Energy:  -450.65963452286684
    Total Energy =                       -450.6596345228664973
  Basis Set: 6-31G*
  Basis Set:
  Basis Set: 6-31G*
  Basis Set:
  @DF-RHF Final Energy:  -450.65964495670625
    Total Energy =                       -450.6596449567066998
  Basis Set: 6-31G*
  Basis Set:
  Charge       = 0
  Multiplicity = 1
  Basis Set: 6-31G*
  Basis Set:

    Orbital Energies (a.u.)
    -----------------------

    Doubly Occupied:

       1A    -26.336643     2A    -26.332625     3A    -26.332604
       4A    -20.589247     5A    -11.496705     6A    -11.309804
       7A     -1.733377     8A     -1.631182     9A     -1.629439
      10A     -1.401430    11A     -1.047956    12A     -0.916427
      13A     -0.825191    14A     -0.823007    15A     -0.782355
      16A     -0.732837    17A     -0.706602    18A     -0.695851
      19A     -0.666426    20A     -0.649105    21A     -0.636951
      22A     -0.634164    23A     -0.594695    24A     -0.528085
      25A     -0.479007

  @DF-RHF Final Energy:  -450.65964731828632

   => Energetics <=

    Nuclear Repulsion Energy =            277.1304537519078508
    One-Electron Energy =               -1176.5567735357294623
    Two-Electron Energy =                 448.7666724655351800
    DFT Exchange-Correlation Energy =       0.0000000000000000
    Empirical Dispersion Energy =           0.0000000000000000
    PCM Polarization Energy =               0.0000000000000000
    EFP Energy =                            0.0000000000000000
    Total Energy =                       -450.6596473182863747
    Molecular point group: c1
  Basis Set: 6-31G*
  Basis Set:

  -Total Gradient:
     Atom            X                  Y                   Z
    ------   -----------------  -----------------  -----------------
       1        0.000028096758    -0.000095266897    -0.000291998556
       2        0.000006489816     0.000265922114     0.000335895371
       3        0.000157970521    -0.000344642438    -0.000114906373
       4        0.000067592309     0.000175088797     0.000087236066
       5       -0.000188123502     0.000164672242     0.000096433000
       6       -0.000028062183    -0.000001881349    -0.000004188264
       7        0.000033707912    -0.000036684920    -0.000038828379
       8       -0.000057997352    -0.000112601687    -0.000028403632
       9       -0.000019674279    -0.000014605861    -0.000041239235

  **** Optimization is complete! (in 5 steps) ****
    Final optimized geometry and variables:
    Molecular point group: c1

    Geometry (in Angstrom), charge = 0, multiplicity = 1:

    H           -2.811807654562     0.332191862098    -0.093264395827
    O           -1.988156176755    -0.079979176708     0.124409986067
    C           -0.938930267304     0.803285052546    -0.100552619313
    C            0.349001273451     0.022977872202    -0.021140824838
    H           -0.982078466329     1.258775405417    -1.084115201832
    H           -0.893440420577     1.588548524761     0.646891177264
    F            0.413289108954    -0.919314008911    -0.941608946184
    F            1.372466216288     0.844510411535    -0.214070122816
    F            0.509360781710    -0.548421968474     1.155944024643

  Mulliken Charges: (a.u.)
   Center  Symbol    Alpha    Beta     Spin     Total
       1     H     0.27137  0.27137  0.00000  0.45725
       2     O     4.36327  4.36327  0.00000 -0.72653
       3     C     3.05287  3.05287  0.00000 -0.10574
       4     C     2.45274  2.45274  0.00000  1.09452
       5     H     0.41072  0.41072  0.00000  0.17855
       6     H     0.40996  0.40996  0.00000  0.18007
       7     F     4.67705  4.67705  0.00000 -0.35409
       8     F     4.68543  4.68543  0.00000 -0.37086
       9     F     4.67659  4.67659  0.00000 -0.35317

   Total alpha = 25.00000, Total beta = 25.00000, Total charge = -0.00000
