                              Psi4 1.0.54 Driver

  ==> Input File <==

--------------------------------------------------------------------------
set {
	reference rhf
	basis cc-pvtz
}

set_num_threads( 4 )
memory 2 gb

molecule MOL {
0 1

H	 1.922112	 -0.564415	 0.569315
C	 1.076554	 -0.621623	 -0.100364
O	 0.000000	 0.000000	 0.518769
H	 1.336683	 -0.130080	 -1.035550
H	 0.865891	 -1.668358	 -0.309701
C	 -1.165153	 0.000000	 -0.236961
H	 -1.229451	 0.882440	 -0.870223
H	 -2.002557	 0.000000	 0.445289
H	 -1.229451	 -0.882440	 -0.870223

	symmetry c1
}
set optking {
	frozen_dihedral = ("
		2 3 6 7
	")
}

ee,wfn = optimize('scf', return_wfn=True)
oeprop( wfn, 'DIPOLE', 'QUADRUPOLE', 'MULLIKEN_CHARGES')
f=open( 'psi4out.xyz', 'w' )
f.write( "9  " )
f.write( str(ee) + "\n" )
f.write( MOL.save_string_xyz() )
f.close()
--------------------------------------------------------------------------

    Molecular point group: c1
  Charge       = 0
  Multiplicity = 1
  Basis Set: CC-PVTZ
  Basis Set:
  @DF-RHF Final Energy:  -154.12529811483392
    Total Energy =                       -154.1252981148338961
    Molecular point group: c1
  Basis Set: CC-PVTZ
  Basis Set:
  Basis Set: CC-PVTZ
  Basis Set:
  @DF-RHF Final Energy:  -154.12539634244936
    Total Energy =                       -154.1253963424495623
  Basis Set: CC-PVTZ
  Basis Set:
  Basis Set: CC-PVTZ
  Basis Set:
  @DF-RHF Final Energy:  -154.12541229281740
    Total Energy =                       -154.1254122928173160
  Basis Set: CC-PVTZ
  Basis Set:
  Charge       = 0
  Multiplicity = 1
  Basis Set: CC-PVTZ
  Basis Set:

    Orbital Energies (a.u.)
    -----------------------

    Doubly Occupied:

       1A    -20.548664     2A    -11.263401     3A    -11.262844
       4A     -1.380344     5A     -0.975981     6A     -0.872482
       7A     -0.662089     8A     -0.654829     9A     -0.645888
      10A     -0.555371    11A     -0.528626    12A     -0.476156
      13A     -0.417673

  @DF-RHF Final Energy:  -154.12541247794871

   => Energetics <=

    Nuclear Repulsion Energy =             84.7120372371533534
    One-Electron Energy =                -377.1862030273616142
    Two-Electron Energy =                 138.3487533122595607
    DFT Exchange-Correlation Energy =       0.0000000000000000
    Empirical Dispersion Energy =           0.0000000000000000
    PCM Polarization Energy =               0.0000000000000000
    EFP Energy =                            0.0000000000000000
    Total Energy =                       -154.1254124779486858
    Molecular point group: c1
  Basis Set: CC-PVTZ
  Basis Set:

  -Total Gradient:
     Atom            X                  Y                   Z
    ------   -----------------  -----------------  -----------------
       1        0.000023889919    -0.000008514895    -0.000006783354
       2       -0.000557661713    -0.002084237775     0.000956001691
       3        0.000440233014     0.003348577370    -0.000770891788
       4       -0.000020079581    -0.000002460356     0.000009900516
       5       -0.000024897674     0.000018572318     0.000002626663
       6        0.001541051577    -0.002665160352    -0.002375711587
       7       -0.001389145297     0.001394318900     0.002187900520
       8       -0.000017605370     0.000002161213    -0.000003736799
       9        0.000004215124    -0.000003256422     0.000000694138

  **** Optimization is complete! (in 4 steps) ****
    Final optimized geometry and variables:
    Molecular point group: c1

    Geometry (in Angstrom), charge = 0, multiplicity = 1:

    H            1.955334491719    -0.337668823939     0.533865316520
    C            1.117836219021    -0.397918344014    -0.146133451728
    O            0.027315642278     0.203150713905     0.469947243186
    H            1.386459354188     0.105345575381    -1.072952258885
    H            0.921197869352    -1.444292613546    -0.367727023940
    C           -1.141979532041     0.212501706883    -0.284638878141
    H           -1.206621440964     1.107502767760    -0.898246457088
    H           -1.981542306495     0.216193846967     0.397697403590
    H           -1.220876741230    -0.663505871699    -0.921908428450

  Mulliken Charges: (a.u.)
   Center  Symbol    Alpha    Beta     Spin     Total
       1     H     0.44920  0.44920  0.00000  0.10161
       2     C     3.02143  3.02143  0.00000 -0.04286
       3     O     4.16991  4.16991  0.00000 -0.33982
       4     H     0.47372  0.47372  0.00000  0.05255
       5     H     0.47216  0.47216  0.00000  0.05568
       6     C     3.01939  3.01939  0.00000 -0.03878
       7     H     0.46687  0.46687  0.00000  0.06626
       8     H     0.45219  0.45219  0.00000  0.09562
       9     H     0.47512  0.47512  0.00000  0.04975

   Total alpha = 13.00000, Total beta = 13.00000, Total charge = -0.00000

*** Psi4 exiting successfully. Buy a developer a beer!
