  ==> Input File <==

--------------------------------------------------------------------------
set {
	reference rhf
	basis 6-31G*
}

set_num_threads( 4 )
memory 2 gb

molecule MOL {
0 1

H	 -1.622074	 1.841373	 -0.326771
C	 -1.860135	 0.782196	 -0.351909
O	 -0.774054	 0.001095	 -0.743181
H	 -2.633812	 0.626176	 -1.091781
H	 -2.252871	 0.490944	 0.617691
C	 0.406953	 0.000033	 0.038965
C	 1.527284	 -0.003667	 -0.998752
C	 0.498933	 1.262172	 0.902524
C	 0.494271	 -1.259566	 0.906664
H	 1.452513	 0.873252	 -1.631882
H	 1.448863	 -0.881882	 -1.629595
H	 2.502020	 -0.005104	 -0.521731
H	 0.364280	 2.147110	 0.289513
H	 1.472180	 1.321775	 1.378800
H	 -0.247853	 1.275162	 1.689097
H	 0.356778	 -2.146106	 0.296587
H	 1.467182	 -1.320941	 1.383330
H	 -0.252763	 -1.267328	 1.693119

	symmetry c1
}
set optking {
	frozen_dihedral = ("
		2 3 6 7
	")
}

ee = optimize('scf')
oeprop('DIPOLE', 'QUADRUPOLE', 'MULLIKEN_CHARGES')
f=open( 'psi4out.xyz', 'w' )
f.write( "18  " )
f.write( str(ee) + "\n" )
f.write( MOL.save_string_xyz() )
f.close()
--------------------------------------------------------------------------

    Molecular point group: c1
  Charge       = 0
  Multiplicity = 1
  Basis Set: 6-31G*
  Basis Set:
  @DF-RHF Final Energy:  -271.17037900828274
    Total Energy =                       -271.1703790082829073
    Molecular point group: c1
  Basis Set: 6-31G*
  Basis Set:
  Basis Set: 6-31G*
  Basis Set:
  @DF-RHF Final Energy:  -271.17097922253134
    Total Energy =                       -271.1709792225311730
  Basis Set: 6-31G*
  Basis Set:
  Basis Set: 6-31G*
  Basis Set:
  @DF-RHF Final Energy:  -271.17229274903622
    Total Energy =                       -271.1722927490361599
  Basis Set: 6-31G*
  Basis Set:
  Basis Set: 6-31G*
  Basis Set:
  @DF-RHF Final Energy:  -271.17230913109387
    Total Energy =                       -271.1723091310937548
  Basis Set: 6-31G*
  Basis Set:
  @DF-RHF Final Energy:  -271.17242956337236
    Total Energy =                       -271.1724295633723045
  Basis Set: 6-31G*
  Basis Set:
  @DF-RHF Final Energy:  -271.17246173441436
    Total Energy =                       -271.1724617344144121
  Basis Set: 6-31G*
  Basis Set:
  Basis Set: 6-31G*
  Basis Set:
  @DF-RHF Final Energy:  -271.17245323453665
    Total Energy =                       -271.1724532345367606
  Basis Set: 6-31G*
  Basis Set:
  Basis Set: 6-31G*
  Basis Set:
  @DF-RHF Final Energy:  -271.17246362236870
    Total Energy =                       -271.1724636223686957
  Basis Set: 6-31G*
  Basis Set:
  Charge       = 0
  Multiplicity = 1
  Basis Set: 6-31G*
  Basis Set:

    Orbital Energies (a.u.)
    -----------------------

    Doubly Occupied:

       1A    -20.544318     2A    -11.281658     3A    -11.261952
       4A    -11.213064     5A    -11.204645     6A    -11.203219
       7A     -1.367154     8A     -1.073733     9A     -0.949871
      10A     -0.935954    11A     -0.911448    12A     -0.751432
      13A     -0.656347    14A     -0.645967    15A     -0.636719
      16A     -0.584744    17A     -0.575416    18A     -0.549993
      19A     -0.539880    20A     -0.525336    21A     -0.514924
      22A     -0.491268    23A     -0.483027    24A     -0.440566
      25A     -0.398005

  @DF-RHF Final Energy:  -271.17246372624254

   => Energetics <=

    Nuclear Repulsion Energy =            271.9186205810995034
    One-Electron Energy =                -906.7008876175646037
    Two-Electron Energy =                 363.6098033102226736
    DFT Exchange-Correlation Energy =       0.0000000000000000
    Empirical Dispersion Energy =           0.0000000000000000
    PCM Polarization Energy =               0.0000000000000000
    EFP Energy =                            0.0000000000000000
    Total Energy =                       -271.1724637262424267
    Molecular point group: c1
  Basis Set: 6-31G*
  Basis Set:

  -Total Gradient:
     Atom            X                  Y                   Z
    ------   -----------------  -----------------  -----------------
       1        0.000011093810     0.000001970707    -0.000001839376
       2        0.001064035730     0.002453278953    -0.001813442605
       3       -0.001612722715    -0.002950826249     0.002695970217
       4        0.000002170481    -0.000002280505    -0.000002868882
       5       -0.000002312875     0.000001895406    -0.000001184155
       6        0.000556966989    -0.002114742916    -0.000821712096
       7       -0.000075835075     0.002621731785    -0.000043685977
       8        0.000019014847     0.000002468394    -0.000009231145
       9        0.000030204214    -0.000014286736    -0.000002034637
      10        0.000000651492    -0.000000049274    -0.000015176647
      11       -0.000006839333    -0.000008307101     0.000018201714
      12       -0.000007348221     0.000015179076     0.000006673893
      13       -0.000000630697     0.000006251233    -0.000001629879
      14        0.000006999459     0.000001570840     0.000002418397
      15        0.000005111024    -0.000008488087    -0.000007746494
      16        0.000005621150    -0.000000181445    -0.000001451583
      17        0.000004521915    -0.000006448785     0.000015815651
      18       -0.000000702194     0.000001264703    -0.000017076395

  **** Optimization is complete! (in 9 steps) ****
    Final optimized geometry and variables:
    Molecular point group: c1

    Geometry (in Angstrom), charge = 0, multiplicity = 1:

    H           -1.737279739072     1.665721797588    -0.362888773588
    C           -1.921646075195     0.597726227885    -0.305739617629
    O           -0.813188944353    -0.157041981148    -0.680809581509
    H           -2.709583261403     0.350302718324    -1.004754310503
    H           -2.270511558072     0.358851293967     0.696257828065
    C            0.391427914069    -0.119273511410     0.073294295773
    C            1.509640906294    -0.121935204681    -0.967502661214
    C            0.526967630315     1.129653172358     0.951475194636
    C            0.435617503875    -1.380836070799     0.936238429349
    H            1.457599220970     0.774904363268    -1.574928536251
    H            1.406573323679    -0.978574810169    -1.624199510637
    H            2.486537771598    -0.165238359482    -0.495708576477
    H            0.479275230931     2.037818099846     0.360395283747
    H            1.489984767705     1.111385543050     1.450181558047
    H           -0.236520721485     1.178997566529     1.719795351820
    H            0.349030732297    -2.262007472333     0.310629538107
    H            1.362799595264    -1.445039303359     1.497737946669
    H           -0.388333137062    -1.388952429512     1.643316649975

  Mulliken Charges: (a.u.)
   Center  Symbol    Alpha    Beta     Spin     Total
       1     H     0.42885  0.42885  0.00000  0.14231
       2     C     3.07592  3.07592  0.00000 -0.15184
       3     O     4.32409  4.32409  0.00000 -0.64819
       4     H     0.41248  0.41248  0.00000  0.17503
       5     H     0.43201  0.43201  0.00000  0.13597
       6     C     2.84007  2.84007  0.00000  0.31986
       7     C     3.23156  3.23156  0.00000 -0.46311
       8     C     3.25775  3.25775  0.00000 -0.51551
       9     C     3.23351  3.23351  0.00000 -0.46701
      10     H     0.41801  0.41801  0.00000  0.16398
      11     H     0.41326  0.41326  0.00000  0.17349
      12     H     0.42594  0.42594  0.00000  0.14812
      13     H     0.41477  0.41477  0.00000  0.17045
      14     H     0.41481  0.41481  0.00000  0.17038
      15     H     0.41698  0.41698  0.00000  0.16604
      16     H     0.41349  0.41349  0.00000  0.17302
      17     H     0.42523  0.42523  0.00000  0.14954
      18     H     0.42127  0.42127  0.00000  0.15747

   Total alpha = 25.00000, Total beta = 25.00000, Total charge =  0.00000
