  ==> Input File <==

--------------------------------------------------------------------------
set {
	reference rhf
	basis 6-31G*
}

set_num_threads( 4 )
memory 2 gb

molecule MOL {
0 1

H	 0.310797	 -3.003291	 -4.287140
O	 1.255883	 -3.027770	 -4.322997
C	 1.779812	 -1.819558	 -3.833328
C	 1.653701	 -1.679016	 -2.320360
H	 2.825002	 -1.816466	 -4.114829
H	 1.309133	 -0.971380	 -4.329145
C	 0.208631	 -1.624849	 -1.818657
H	 2.171548	 -2.512153	 -1.852295
H	 2.175224	 -0.771904	 -2.019481
C	 0.115918	 -1.429151	 -0.302766
H	 -0.300920	 -2.542888	 -2.097812
H	 -0.317293	 -0.810209	 -2.316761
C	 -1.309753	 -1.282496	 0.241564
H	 0.607798	 -2.262024	 0.196459
H	 0.680421	 -0.538882	 -0.033587
C	 -2.037799	 -0.007733	 -0.193645
H	 -1.890610	 -2.142323	 -0.085726
H	 -1.285946	 -1.330893	 1.329189
C	 -3.489788	 0.042957	 0.286558
H	 -2.017067	 0.064384	 -1.280144
H	 -1.513726	 0.868678	 0.179924
C	 -4.216917	 1.317354	 -0.141063
H	 -4.025645	 -0.823308	 -0.095450
H	 -3.513059	 -0.038752	 1.371301
H	 -4.239342	 1.411634	 -1.223113
H	 -5.243387	 1.322503	 0.212445
H	 -3.726170	 2.201406	 0.256408

	symmetry c1
}
set optking {
	frozen_dihedral = ("
		14 10 13 16
	")
}

ee = optimize('scf')
oeprop('DIPOLE', 'QUADRUPOLE', 'MULLIKEN_CHARGES')
f=open( 'psi4out.xyz', 'w' )
f.write( "27  " )
f.write( str(ee) + "\n" )
f.write( MOL.save_string_xyz() )
f.close()
--------------------------------------------------------------------------

    Molecular point group: c1
  Charge       = 0
  Multiplicity = 1
  Basis Set: 6-31G*
  Basis Set:
  @DF-RHF Final Energy:  -388.28106744763073
    Total Energy =                       -388.2810674476311306
    Molecular point group: c1
  Basis Set: 6-31G*
  Basis Set:
  Basis Set: 6-31G*
  Basis Set:
  @DF-RHF Final Energy:  -388.28162829979067
    Total Energy =                       -388.2816282997902135
  Basis Set: 6-31G*
  Basis Set:
  Basis Set: 6-31G*
  Basis Set:
  @DF-RHF Final Energy:  -388.28175306490294
    Total Energy =                       -388.2817530649036826
  Basis Set: 6-31G*
  Basis Set:
  Basis Set: 6-31G*
  Basis Set:
  @DF-RHF Final Energy:  -388.28176804324193
    Total Energy =                       -388.2817680432414136
  Basis Set: 6-31G*
  Basis Set:
  Basis Set: 6-31G*
  Basis Set:
  @DF-RHF Final Energy:  -388.28176923628314
    Total Energy =                       -388.2817692362830257
  Basis Set: 6-31G*
  Basis Set:
  Charge       = 0
  Multiplicity = 1
  Basis Set: 6-31G*
  Basis Set:

    Orbital Energies (a.u.)
    -----------------------

    Doubly Occupied:

       1A    -20.552206     2A    -11.267046     3A    -11.220049
       4A    -11.217420     5A    -11.216461     6A    -11.215802
       7A    -11.215359     8A    -11.214719     9A    -11.209911
      10A     -1.359006    11A     -1.095415    12A     -1.061863
      13A     -1.011758    14A     -0.948846    15A     -0.887991
      16A     -0.820243    17A     -0.801721    18A     -0.778931
      19A     -0.694236    20A     -0.647785    21A     -0.640509
      22A     -0.613850    23A     -0.605676    24A     -0.583905
      25A     -0.576548    26A     -0.554085    27A     -0.545580
      28A     -0.520426    29A     -0.507616    30A     -0.501879
      31A     -0.483196    32A     -0.474440    33A     -0.466856
      34A     -0.461692    35A     -0.453589    36A     -0.441846
      37A     -0.422972

  @DF-RHF Final Energy:  -388.28176998119824

   => Energetics <=

    Nuclear Repulsion Energy =            458.5942345535486879
    One-Electron Energy =               -1435.1691360284692109
    Two-Electron Energy =                 588.2931314937222851
    DFT Exchange-Correlation Energy =       0.0000000000000000
    Empirical Dispersion Energy =           0.0000000000000000
    PCM Polarization Energy =               0.0000000000000000
    EFP Energy =                            0.0000000000000000
    Total Energy =                       -388.2817699811982948
    Molecular point group: c1
  Basis Set: 6-31G*
  Basis Set:

  -Total Gradient:
     Atom            X                  Y                   Z
    ------   -----------------  -----------------  -----------------
       1       -0.000007447045     0.000002053058     0.000008186344
       2       -0.000009661951    -0.000008442899    -0.000004987738
       3        0.000018941632    -0.000019513991     0.000015535363
       4       -0.000002881745    -0.000028302789    -0.000022944452
       5        0.000002030699     0.000000643907    -0.000006095002
       6        0.000000705074     0.000000595735     0.000006118619
       7        0.000029896441    -0.000043983063     0.000024288446
       8        0.000012935684     0.000007552534     0.000002661951
       9       -0.000016325745     0.000008433825    -0.000001069603
      10       -0.000109024231    -0.000251014904    -0.000314477972
      11        0.000032616586     0.000018409107    -0.000037302555
      12       -0.000019290932     0.000031818962     0.000043442333
      13       -0.000076741196    -0.000079584788    -0.000190879220
      14        0.000143357785     0.000218818351     0.000253983682
      15       -0.000015481982     0.000014347158    -0.000003804603
      16        0.000046934933     0.000107597215     0.000203967967
      17        0.000014378907     0.000040467098    -0.000014341147
      18       -0.000037623019    -0.000034088748     0.000033542784
      19        0.000011263809     0.000034556080     0.000016521242
      20        0.000005985395    -0.000001878453    -0.000016648049
      21       -0.000030619891    -0.000017739182     0.000003119057
      22       -0.000004126439    -0.000004054320    -0.000000122453
      23        0.000013764171     0.000004628813    -0.000006437108
      24       -0.000004150264    -0.000001886625     0.000006401902
      25        0.000004241521     0.000001009681     0.000000376050
      26       -0.000002035163    -0.000001072681    -0.000002859096
      27       -0.000001643032     0.000000630922     0.000003823265

  **** Optimization is complete! (in 6 steps) ****
    Final optimized geometry and variables:
    Molecular point group: c1

    Geometry (in Angstrom), charge = 0, multiplicity = 1:

    H            0.974477811649    -1.853531499000    -2.884720305214
    O            1.915212278323    -1.953924183946    -2.895502185625
    C            2.520384252754    -0.797077829907    -2.376639055189
    C            2.349930491107    -0.655052267945    -0.868227447541
    H            3.571792115307    -0.881169803441    -2.619702364421
    H            2.141851097123     0.090641429550    -2.882132249883
    C            0.896570385469    -0.482613432133    -0.419796493171
    H            2.779197722600    -1.530633919255    -0.388367644663
    H            2.932686219629     0.204248180336    -0.540355710723
    C            0.763658054344    -0.291395193571     1.093578970216
    H            0.319722778321    -1.358114344784    -0.712362024118
    H            0.461379406688     0.367562710415    -0.941162655351
    C           -0.678484727689    -0.209413027934     1.607608276632
    H            1.262435657649    -1.119325890270     1.592589988951
    H            1.301903181325     0.607293866223     1.390374846166
    C           -1.441501863328     1.048257954163     1.182675893030
    H           -1.226726974696    -1.092332655058     1.282912177843
    H           -0.657941328378    -0.250586886547     2.694677955975
    C           -2.842897231460     1.130422012725     1.791527395540
    H           -1.526240815770     1.086652654721     0.099180742027
    H           -0.871763431729     1.928969686203     1.475698261071
    C           -3.606417048532     2.384726213419     1.367976193029
    H           -3.411705916625     0.248234275763     1.505205354885
    H           -2.766132451769     1.104171365551     2.876387627447
    H           -3.731246402564     2.422707549744     0.289388566627
    H           -4.594871962898     2.414069067862     1.815962821017
    H           -3.079486887497     3.285340791293     1.670498996022

  Mulliken Charges: (a.u.)
   Center  Symbol    Alpha    Beta     Spin     Total
       1     H     0.27992  0.27992  0.00000  0.44017
       2     O     4.37094  4.37094  0.00000 -0.74189
       3     C     2.99727  2.99727  0.00000  0.00547
       4     C     3.16112  3.16112  0.00000 -0.32224
       5     H     0.41442  0.41442  0.00000  0.17116
       6     H     0.43212  0.43212  0.00000  0.13576
       7     C     3.16339  3.16339  0.00000 -0.32677
       8     H     0.41502  0.41502  0.00000  0.16995
       9     H     0.42408  0.42408  0.00000  0.15184
      10     C     3.15223  3.15223  0.00000 -0.30446
      11     H     0.42563  0.42563  0.00000  0.14873
      12     H     0.42264  0.42264  0.00000  0.15473
      13     C     3.15377  3.15377  0.00000 -0.30754
      14     H     0.41969  0.41969  0.00000  0.16062
      15     H     0.42326  0.42326  0.00000  0.15349
      16     C     3.15235  3.15235  0.00000 -0.30471
      17     H     0.42381  0.42381  0.00000  0.15238
      18     H     0.42111  0.42111  0.00000  0.15778
      19     C     3.15124  3.15124  0.00000 -0.30247
      20     H     0.42355  0.42355  0.00000  0.15290
      21     H     0.42430  0.42430  0.00000  0.15140
      22     C     3.23917  3.23917  0.00000 -0.47834
      23     H     0.42308  0.42308  0.00000  0.15385
      24     H     0.42277  0.42277  0.00000  0.15446
      25     H     0.42229  0.42229  0.00000  0.15541
      26     H     0.41909  0.41909  0.00000  0.16182
      27     H     0.42175  0.42175  0.00000  0.15650

   Total alpha = 37.00000, Total beta = 37.00000, Total charge = -0.00000
