                              Psi4 1.0.54 Driver

  ==> Input File <==

--------------------------------------------------------------------------
set {
	reference rhf
	basis cc-pvtz
}

set_num_threads( 4 )
memory 2 gb

molecule MOL {
0 1

O	 -1.928221	 2.002762	 -0.104971
C	 -1.896804	 0.838572	 -0.339720
C	 -0.672668	 0.199903	 -0.965532
C	 -3.060144	 -0.066976	 -0.012014
C	 0.376695	 -0.140025	 0.100361
H	 -0.257629	 0.908730	 -1.670810
H	 -0.951914	 -0.697351	 -1.507587
C	 1.630207	 -0.772146	 -0.501001
H	 0.627904	 0.769264	 0.631695
H	 -0.050946	 -0.822008	 0.831334
C	 2.907848	 -0.545876	 0.309149
H	 1.772784	 -0.391628	 -1.509394
H	 1.468529	 -1.842059	 -0.599744
C	 3.373802	 0.906639	 0.372125
H	 3.699140	 -1.146831	 -0.127906
H	 2.764321	 -0.923458	 1.318191
H	 3.519798	 1.311927	 -0.623875
H	 4.316899	 0.983758	 0.900700
H	 2.661122	 1.540651	 0.885346
H	 -3.505022	 -0.424483	 -0.935199
H	 -3.800567	 0.470776	 0.559970
H	 -2.724015	 -0.937799	 0.539597

	symmetry c1
}
set optking {
	frozen_dihedral = ("
		3 5 8 12
	")
}

ee,wfn = optimize('scf', return_wfn=True)
oeprop( wfn, 'DIPOLE', 'QUADRUPOLE', 'MULLIKEN_CHARGES')
f=open( 'psi4out.xyz', 'w' )
f.write( "22  " )
f.write( str(ee) + "\n" )
f.write( MOL.save_string_xyz() )
f.close()
--------------------------------------------------------------------------

    Molecular point group: c1
  Charge       = 0
  Multiplicity = 1
  Basis Set: CC-PVTZ
  Basis Set:
  @DF-RHF Final Energy:  -348.22078547867108
    Total Energy =                       -348.2207854786707912
    Molecular point group: c1
  Basis Set: CC-PVTZ
  Basis Set:
  Basis Set: CC-PVTZ
  Basis Set:
  @DF-RHF Final Energy:  -348.22047564158908
    Total Energy =                       -348.2204756415891325
  Basis Set: CC-PVTZ
  Basis Set:
  Basis Set: CC-PVTZ
  Basis Set:
  @DF-RHF Final Energy:  -348.22106723136159
    Total Energy =                       -348.2210672313617579
  Basis Set: CC-PVTZ
  Basis Set:
  Basis Set: CC-PVTZ
  Basis Set:
  @DF-RHF Final Energy:  -348.22114290229899
    Total Energy =                       -348.2211429022984248
  Basis Set: CC-PVTZ
  Basis Set:
  @DF-RHF Final Energy:  -348.22072698572629
    Total Energy =                       -348.2207269857260599
  @DF-RHF Final Energy:  -348.22119386429495
    Total Energy =                       -348.2211938642946052
  Basis Set: CC-PVTZ
  Basis Set:
  @DF-RHF Final Energy:  -348.22112337426427
    Total Energy =                       -348.2211233742640388
  Basis Set: CC-PVTZ
  Basis Set:
  Basis Set: CC-PVTZ
  Basis Set:
  @DF-RHF Final Energy:  -348.22120246869804
    Total Energy =                       -348.2212024686979248
  Basis Set: CC-PVTZ
  Basis Set:
  Basis Set: CC-PVTZ
  Basis Set:
  @DF-RHF Final Energy:  -348.22120429781108
    Total Energy =                       -348.2212042978115392
  Basis Set: CC-PVTZ
  Basis Set:
  Charge       = 0
  Multiplicity = 1
  Basis Set: CC-PVTZ
  Basis Set:

    Orbital Energies (a.u.)
    -----------------------

    Doubly Occupied:

       1A    -20.536832     2A    -11.319157     3A    -11.228151
       4A    -11.227544     5A    -11.226820     6A    -11.220517
       7A    -11.219009     8A    -11.208961     9A     -1.396845
      10A     -1.096457    11A     -1.045611    12A     -0.999920
      13A     -0.939166    14A     -0.857211    15A     -0.789221
      16A     -0.734507    17A     -0.661491    18A     -0.648893
      19A     -0.627568    20A     -0.621957    21A     -0.599715
      22A     -0.577004    23A     -0.568721    24A     -0.545352
      25A     -0.533735    26A     -0.514069    27A     -0.504724
      28A     -0.490031    29A     -0.470495    30A     -0.464703
      31A     -0.461263    32A     -0.398357

  @DF-RHF Final Energy:  -348.22120444253767

   => Energetics <=

    Nuclear Repulsion Energy =            374.0472634847780000
    One-Electron Energy =               -1213.0689197159947526
    Two-Electron Energy =                 490.8004517886789131
    DFT Exchange-Correlation Energy =       0.0000000000000000
    Empirical Dispersion Energy =           0.0000000000000000
    PCM Polarization Energy =               0.0000000000000000
    EFP Energy =                            0.0000000000000000
    Total Energy =                       -348.2212044425378394
    Molecular point group: c1
  Basis Set: CC-PVTZ
  Basis Set:

  -Total Gradient:
     Atom            X                  Y                   Z
    ------   -----------------  -----------------  -----------------
       1        0.000010292551    -0.000005729100     0.000004413340
       2       -0.000009578405    -0.000007824191     0.000022688050
       3        0.001156438003     0.002542196787    -0.000265422166
       4       -0.000022803928     0.000025161431    -0.000034548771
       5       -0.002111073688    -0.004213764961     0.000020777854
       6       -0.000000878059    -0.000002593636    -0.000002106136
       7        0.000007791807     0.000004857114     0.000002604442
       8        0.003123555569     0.004551662521     0.001708069559
       9       -0.000007131168    -0.000017461471    -0.000007903268
      10        0.000006540615     0.000011235350    -0.000012478769
      11       -0.000009436015     0.000004401021    -0.000005104643
      12       -0.002165848881    -0.002892990851    -0.001450791279
      13        0.000001307395     0.000012723409    -0.000001219663
      14       -0.000000650195    -0.000003039861     0.000001033309
      15       -0.000004763948     0.000004296014    -0.000000378261
      16       -0.000000757066     0.000000736684    -0.000001261355
      17       -0.000002354621    -0.000002364484     0.000002107331
      18        0.000006031331     0.000005652303     0.000002360618
      19       -0.000000388278    -0.000004444154    -0.000001179929
      20        0.000005362501    -0.000009230708     0.000011518857
      21        0.000007920005    -0.000003486369    -0.000000826184
      22        0.000010424476     0.000000007151     0.000007647065

  **** Optimization is complete! (in 10 steps) ****
    Final optimized geometry and variables:
    Molecular point group: c1

    Geometry (in Angstrom), charge = 0, multiplicity = 1:

    O           -2.083374045468     1.681381545193     0.091330264639
    C           -2.015000176879     0.527141839847    -0.181744997857
    C           -0.771947188898    -0.050691312247    -0.827968181029
    C           -3.149384112392    -0.424856602664     0.114219810209
    C            0.278348985044    -0.417987918830     0.228053636618
    H           -0.365046396624     0.700935393266    -1.491519725904
    H           -1.028039576435    -0.925139177852    -1.417984127417
    C            1.535368350450    -1.050018954332    -0.381896503947
    H            0.532443662115     0.488415994318     0.763403350890
    H           -0.144758045550    -1.097461202756     0.961761523591
    C            2.803627478077    -0.881034208072     0.455181562400
    H            1.692997810273    -0.660526302968    -1.384016849928
    H            1.349153925641    -2.111555748327    -0.520466046348
    C            3.380322489083     0.532477035254     0.445950669898
    H            3.558372088207    -1.565958484358     0.082059577391
    H            2.599794787473    -1.184765246070     1.478738398769
    H            3.636380811888     0.838489501274    -0.562990062014
    H            4.282280152028     0.583644803694     1.044850633869
    H            2.684176098295     1.260686310974     0.844198426236
    H           -3.589876470954    -0.754855490946    -0.821212771394
    H           -3.901221007607     0.067119617350     0.711914293888
    H           -2.785972391602    -1.308578375243     0.626425484225

  Mulliken Charges: (a.u.)
   Center  Symbol    Alpha    Beta     Spin     Total
       1     O     4.17733  4.17733  0.00000 -0.35466
       2     C     2.85857  2.85857  0.00000  0.28287
       3     C     3.09893  3.09893  0.00000 -0.19786
       4     C     3.15494  3.15494  0.00000 -0.30987
       5     C     3.10625  3.10625  0.00000 -0.21251
       6     H     0.43882  0.43882  0.00000  0.12237
       7     H     0.44856  0.44856  0.00000  0.10288
       8     C     3.09826  3.09826  0.00000 -0.19652
       9     H     0.43991  0.43991  0.00000  0.12017
      10     H     0.44745  0.44745  0.00000  0.10511
      11     C     3.09008  3.09008  0.00000 -0.18016
      12     H     0.45295  0.45295  0.00000  0.09409
      13     H     0.44811  0.44811  0.00000  0.10378
      14     C     3.14935  3.14935  0.00000 -0.29870
      15     H     0.44756  0.44756  0.00000  0.10489
      16     H     0.45404  0.45404  0.00000  0.09192
      17     H     0.45462  0.45462  0.00000  0.09077
      18     H     0.44701  0.44701  0.00000  0.10598
      19     H     0.45200  0.45200  0.00000  0.09599
      20     H     0.44829  0.44829  0.00000  0.10343
      21     H     0.43609  0.43609  0.00000  0.12783
      22     H     0.45090  0.45090  0.00000  0.09819

   Total alpha = 32.00000, Total beta = 32.00000, Total charge =  0.00000

*** Psi4 exiting successfully. Buy a developer a beer!
