                              Psi4 1.0.54 Driver

  ==> Input File <==

--------------------------------------------------------------------------
set {
	reference rhf
	basis cc-pvtz
}

set_num_threads( 4 )
memory 2 gb

molecule MOL {
0 1

O	 -2.440701	 -0.934798	 -0.415053
C	 -1.922978	 0.063265	 -0.045005
C	 -2.632749	 1.372204	 0.158357
O	 -0.637375	 0.157174	 0.243149
H	 -2.187724	 2.129143	 -0.474664
H	 -3.677681	 1.257276	 -0.079438
H	 -2.516788	 1.693160	 1.185542
C	 0.162530	 -1.009518	 0.097799
C	 1.587210	 -0.664190	 0.477086
H	 0.096803	 -1.356267	 -0.924704
H	 -0.233803	 -1.785900	 0.736810
C	 2.256770	 0.342732	 -0.454344
H	 2.154716	 -1.590834	 0.479041
H	 1.598751	 -0.289614	 1.496104
C	 3.727449	 0.025646	 -0.703692
H	 1.725268	 0.359445	 -1.402145
H	 2.166846	 1.337344	 -0.033031
H	 4.176534	 0.752536	 -1.370281
H	 3.847951	 -0.954316	 -1.153743
H	 4.291793	 0.034274	 0.222838

	symmetry c1
}
set optking {
	frozen_dihedral = ("
		16 12 9 8
	")
}

ee,wfn = optimize('scf', return_wfn=True)
oeprop( wfn, 'DIPOLE', 'QUADRUPOLE', 'MULLIKEN_CHARGES')
f=open( 'psi4out.xyz', 'w' )
f.write( "20  " )
f.write( str(ee) + "\n" )
f.write( MOL.save_string_xyz() )
f.close()
--------------------------------------------------------------------------

    Molecular point group: c1
  Charge       = 0
  Multiplicity = 1
  Basis Set: CC-PVTZ
  Basis Set:
  @DF-RHF Final Energy:  -384.08382042318476
    Total Energy =                       -384.0838204231847612
    Molecular point group: c1
  Basis Set: CC-PVTZ
  Basis Set:
  Basis Set: CC-PVTZ
  Basis Set:
  @DF-RHF Final Energy:  -384.08411875261248
    Total Energy =                       -384.0841187526121985
  Basis Set: CC-PVTZ
  Basis Set:
  Basis Set: CC-PVTZ
  Basis Set:
  @DF-RHF Final Energy:  -384.08399981417267
    Total Energy =                       -384.0839998141728984
  Basis Set: CC-PVTZ
  Basis Set:
  Basis Set: CC-PVTZ
  Basis Set:
  @DF-RHF Final Energy:  -384.08418511781576
    Total Energy =                       -384.0841851178155366
  Basis Set: CC-PVTZ
  Basis Set:
  Basis Set: CC-PVTZ
  Basis Set:
  @DF-RHF Final Energy:  -384.08418651733047
    Total Energy =                       -384.0841865173299539
  Basis Set: CC-PVTZ
  Basis Set:
  Basis Set: CC-PVTZ
  Basis Set:
  @DF-RHF Final Energy:  -384.08418927983661
    Total Energy =                       -384.0841892798366644
  Basis Set: CC-PVTZ
  Basis Set:
  Charge       = 0
  Multiplicity = 1
  Basis Set: CC-PVTZ
  Basis Set:

    Orbital Energies (a.u.)
    -----------------------

    Doubly Occupied:

       1A    -20.594012     2A    -20.532489     3A    -11.366414
       4A    -11.280290     5A    -11.231448     6A    -11.223453
       7A    -11.219394     8A    -11.212350     9A     -1.470745
      10A     -1.364873    11A     -1.086030    12A     -1.028883
      13A     -0.982592    14A     -0.881401    15A     -0.814168
      16A     -0.774747    17A     -0.692009    18A     -0.689324
      19A     -0.669753    20A     -0.629925    21A     -0.599626
      22A     -0.593487    23A     -0.573079    24A     -0.555344
      25A     -0.547542    26A     -0.531478    27A     -0.511280
      28A     -0.486385    29A     -0.476048    30A     -0.469949
      31A     -0.452031    32A     -0.441626

  @DF-RHF Final Energy:  -384.08418936152242

   => Energetics <=

    Nuclear Repulsion Energy =            385.5895905376908672
    One-Electron Energy =               -1287.3832155503941976
    Two-Electron Energy =                 517.7094356511811384
    DFT Exchange-Correlation Energy =       0.0000000000000000
    Empirical Dispersion Energy =           0.0000000000000000
    PCM Polarization Energy =               0.0000000000000000
    EFP Energy =                            0.0000000000000000
    Total Energy =                       -384.0841893615222489
    Molecular point group: c1
  Basis Set: CC-PVTZ
  Basis Set:

  -Total Gradient:
     Atom            X                  Y                   Z
    ------   -----------------  -----------------  -----------------
       1        0.000011288768     0.000007077801     0.000003907457
       2       -0.000001918210     0.000021941924    -0.000002382175
       3       -0.000008958065    -0.000003996960     0.000002764896
       4       -0.000005114295    -0.000008434638    -0.000005462764
       5       -0.000002037588    -0.000008500369     0.000004141582
       6       -0.000001968320     0.000005069297     0.000000587768
       7        0.000001556153    -0.000003367092    -0.000009572542
       8        0.000951767847    -0.002164499166    -0.001644153300
       9       -0.001886245754     0.003690081891     0.002660284692
      10       -0.000001409402    -0.000002147876    -0.000003169168
      11        0.000003401023     0.000002687752    -0.000003151774
      12        0.003247631684    -0.004342994067    -0.002378802047
      13        0.000002515083     0.000000062267     0.000000810783
      14       -0.000002714683    -0.000002763974    -0.000003228982
      15        0.000012833201    -0.000004207658     0.000000165335
      16       -0.002319140659     0.002816356881     0.001378802464
      17       -0.000002881595    -0.000000699121    -0.000003076780
      18       -0.000002844452    -0.000002226437     0.000001114894
      19        0.000001407526    -0.000000826775     0.000000741100
      20        0.000002831731     0.000001386320    -0.000000321439

  **** Optimization is complete! (in 7 steps) ****
    Final optimized geometry and variables:
    Molecular point group: c1

    Geometry (in Angstrom), charge = 0, multiplicity = 1:

    O           -2.445377310342    -0.837323547936    -0.370319141988
    C           -1.919049469509     0.158859040554    -0.007309612416
    C           -2.608105085833     1.485227605197     0.145737875628
    O           -0.640424368767     0.234040786382     0.314900792607
    H           -2.128959142101     2.218615438649    -0.489980330665
    H           -3.647719016012     1.385497988395    -0.120586985915
    H           -2.515820510262     1.826626204412     1.168658303138
    C            0.140032868408    -0.951314343702     0.217463863187
    C            1.565086711287    -0.617962125872     0.600934533716
    H            0.084889977600    -1.326512655379    -0.795251262782
    H           -0.278747438110    -1.701194107836     0.873801228699
    C            2.247449317380     0.398246134296    -0.327411488616
    H            2.112270894660    -1.556468883118     0.577475724612
    H            1.593489454470    -0.272240184057     1.628186531886
    C            3.729673593020     0.118014004522    -0.543827319146
    H            1.725579380608     0.433341067829    -1.278525342289
    H            2.130361452203     1.392462966952     0.089817334364
    H            4.185379897930     0.878107128227    -1.167635216699
    H            3.881118179895    -0.842207420884    -1.025496693660
    H            4.264977306576     0.100734693529     0.399986234727

  Mulliken Charges: (a.u.)
   Center  Symbol    Alpha    Beta     Spin     Total
       1     O     4.19753  4.19753  0.00000 -0.39506
       2     C     2.80948  2.80948  0.00000  0.38103
       3     C     3.13811  3.13811  0.00000 -0.27622
       4     O     4.15410  4.15410  0.00000 -0.30820
       5     H     0.44596  0.44596  0.00000  0.10808
       6     H     0.43803  0.43803  0.00000  0.12394
       7     H     0.44574  0.44574  0.00000  0.10852
       8     C     2.99252  2.99252  0.00000  0.01496
       9     C     3.08701  3.08701  0.00000 -0.17403
      10     H     0.45149  0.45149  0.00000  0.09701
      11     H     0.44479  0.44479  0.00000  0.11043
      12     C     3.08361  3.08361  0.00000 -0.16722
      13     H     0.45340  0.45340  0.00000  0.09319
      14     H     0.44922  0.44922  0.00000  0.10156
      15     C     3.14851  3.14851  0.00000 -0.29701
      16     H     0.45340  0.45340  0.00000  0.09319
      17     H     0.44930  0.44930  0.00000  0.10139
      18     H     0.44811  0.44811  0.00000  0.10377
      19     H     0.45561  0.45561  0.00000  0.08879
      20     H     0.45407  0.45407  0.00000  0.09186

   Total alpha = 32.00000, Total beta = 32.00000, Total charge = -0.00000

*** Psi4 exiting successfully. Buy a developer a beer!
