  ==> Input File <==

--------------------------------------------------------------------------
set {
	reference rhf
	basis cc-pvtz
}

set_num_threads( 4 )
memory 2 gb

molecule MOL {
0 1

H	 -3.401682	 -1.036167	 0.000000
O	 -3.113760	 -0.140926	 0.000000
C	 -1.775087	 -0.058754	 0.000000
C	 -1.074507	 0.573947	 -1.019467
C	 -1.098600	 -0.632490	 1.063661
H	 -1.606389	 1.016707	 -1.841351
C	 0.298137	 0.629619	 -0.970049
H	 -1.657934	 -1.115555	 1.839427
C	 0.276058	 -0.568070	 1.098170
H	 0.850240	 1.114853	 -1.750330
C	 0.990581	 0.059446	 0.089146
H	 0.801912	 -1.012843	 1.922896
C	 2.463075	 0.115964	 0.147697
O	 3.156780	 0.629062	 -0.665728
H	 2.905480	 -0.365275	 1.026610

	symmetry c1
}
set optking {
	frozen_dihedral = ("
		5 3 2 1
	")
}

ee = optimize('scf')
oeprop('DIPOLE', 'QUADRUPOLE', 'MULLIKEN_CHARGES')
f=open( 'psi4out.xyz', 'w' )
f.write( "15  " )
f.write( str(ee) + "\n" )
f.write( MOL.save_string_xyz() )
f.close()
--------------------------------------------------------------------------

    Molecular point group: c1
  Charge       = 0
  Multiplicity = 1
  Basis Set: CC-PVTZ
  Basis Set:
  @DF-RHF Final Energy:  -418.43663764559653
    Total Energy =                       -418.4366376455963064
    Molecular point group: c1
  Basis Set: CC-PVTZ
  Basis Set:
  Basis Set: CC-PVTZ
  Basis Set:
  @DF-RHF Final Energy:  -418.43806768572392
    Total Energy =                       -418.4380676857241497
  Basis Set: CC-PVTZ
  Basis Set:
  Basis Set: CC-PVTZ
  Basis Set:
  @DF-RHF Final Energy:  -418.43807970159139
    Total Energy =                       -418.4380797015917324
  Basis Set: CC-PVTZ
  Basis Set:
  Basis Set: CC-PVTZ
  Basis Set:
  @DF-RHF Final Energy:  -418.43760814961712
    Total Energy =                       -418.4376081496170627
  Basis Set: CC-PVTZ
  Basis Set:
  Basis Set: CC-PVTZ
  Basis Set:
  @DF-RHF Final Energy:  -418.43817698101077
    Total Energy =                       -418.4381769810112246
  Basis Set: CC-PVTZ
  Basis Set:
  Charge       = 0
  Multiplicity = 1
  Basis Set: CC-PVTZ
  Basis Set:

    Orbital Energies (a.u.)
    -----------------------

    Doubly Occupied:

       1A    -20.592066     2A    -20.549386     3A    -11.325410
       4A    -11.315084     5A    -11.258827     6A    -11.251532
       7A    -11.242275     8A    -11.241696     9A    -11.238553
      10A     -1.422131    11A     -1.405570    12A     -1.175571
      13A     -1.045685    14A     -1.040453    15A     -0.893055
      16A     -0.860149    17A     -0.802831    18A     -0.757894
      19A     -0.704498    20A     -0.684255    21A     -0.647130
      22A     -0.634716    23A     -0.623352    24A     -0.609956
      25A     -0.566340    26A     -0.558548    27A     -0.546151
      28A     -0.504960    29A     -0.489041    30A     -0.424250
      31A     -0.360204    32A     -0.342074

  @DF-RHF Final Energy:  -418.43817886199997

   => Energetics <=

    Nuclear Repulsion Energy =            401.8405114564710630
    One-Electron Energy =               -1366.3300951205874298
    Two-Electron Energy =                 546.0514048021163944
    DFT Exchange-Correlation Energy =       0.0000000000000000
    Empirical Dispersion Energy =           0.0000000000000000
    PCM Polarization Energy =               0.0000000000000000
    EFP Energy =                            0.0000000000000000
    Total Energy =                       -418.4381788619999725
    Molecular point group: c1
  Basis Set: CC-PVTZ
  Basis Set:

  -Total Gradient:
     Atom            X                  Y                   Z
    ------   -----------------  -----------------  -----------------
       1        0.000095693218    -0.000102190891    -0.002959993509
       2       -0.000176274224     0.001125153405     0.004245324755
       3        0.000173484805    -0.002798862680    -0.002546037206
       4       -0.000279697196    -0.000096498747     0.000104180282
       5        0.000175124012     0.001905677763     0.001146924452
       6        0.000004841699     0.000003854939     0.000001018625
       7        0.000279569171    -0.000087667016     0.000145759495
       8       -0.000001946664     0.000001024203    -0.000000451186
       9       -0.000230254772    -0.000139851313     0.000086329422
      10       -0.000020905129     0.000007126980    -0.000005947858
      11       -0.000022056203     0.000164025224    -0.000262831412
      12        0.000012947850     0.000017718602     0.000000409452
      13        0.000028347005     0.000041095684     0.000071445168
      14       -0.000029237434    -0.000019371629    -0.000020672877
      15       -0.000009636139    -0.000021234523    -0.000005457606

  **** Optimization is complete! (in 6 steps) ****
    Final optimized geometry and variables:
    Molecular point group: c1

    Geometry (in Angstrom), charge = 0, multiplicity = 1:

    H           -3.455283115773    -1.044878514673     0.011628164591
    O           -3.120703668945    -0.165266918136    -0.004599853250
    C           -1.764613821542    -0.156977594294     0.041293286354
    C           -1.075347982810     0.489409105516    -0.974017640515
    C           -1.084442255343    -0.712297265483     1.108589872608
    H           -1.629363173179     0.924759320229    -1.781682310396
    C            0.296407648708     0.562752867860    -0.925662220461
    H           -1.632035954234    -1.183477796982     1.901857157366
    C            0.294056714967    -0.642420324961     1.141822267617
    H            0.844087136774     1.057016618380    -1.703309982420
    C            0.994567878463    -0.007831280728     0.131808279629
    H            0.825834202785    -1.076953778307     1.968100595079
    C            2.469934857931     0.061640454313     0.190707916468
    O            3.157005379785     0.579196986715    -0.623904333240
    H            2.916034654934    -0.414949807988     1.070297565732

  Mulliken Charges: (a.u.)
   Center  Symbol    Alpha    Beta     Spin     Total
       1     H     0.38422  0.38422  0.00000  0.23157
       2     O     4.18205  4.18205  0.00000 -0.36410
       3     C     2.86241  2.86241  0.00000  0.27519
       4     C     3.10579  3.10579  0.00000 -0.21157
       5     C     3.11957  3.11957  0.00000 -0.23913
       6     H     0.41264  0.41264  0.00000  0.17472
       7     C     3.06617  3.06617  0.00000 -0.13234
       8     H     0.41920  0.41920  0.00000  0.16160
       9     C     3.07709  3.07709  0.00000 -0.15419
      10     H     0.40698  0.40698  0.00000  0.18603
      11     C     2.99685  2.99685  0.00000  0.00630
      12     H     0.42113  0.42113  0.00000  0.15774
      13     C     2.91051  2.91051  0.00000  0.17898
      14     O     4.17570  4.17570  0.00000 -0.35141
      15     H     0.45969  0.45969  0.00000  0.08061

   Total alpha = 32.00000, Total beta = 32.00000, Total charge = -0.00000
