  ==> Input File <==

--------------------------------------------------------------------------
set {
	reference rhf
	basis 6-31G*
}

set_num_threads( 4 )
memory 2 gb

molecule MOL {
0 1

H	 -3.420663	 1.227371	 -1.044276
O	 -3.452007	 0.283848	 -0.965577
C	 -3.181085	 -0.079926	 0.364119
C	 -1.765924	 0.277073	 0.805136
H	 -3.327791	 -1.152017	 0.410903
H	 -3.905698	 0.375695	 1.036898
C	 -0.677594	 -0.417312	 -0.014550
H	 -1.637766	 1.358238	 0.744969
H	 -1.659588	 0.017670	 1.857098
C	 0.738335	 -0.034840	 0.421385
H	 -0.814977	 -0.178223	 -1.064632
H	 -0.802730	 -1.495410	 0.071702
C	 1.822265	 -0.738362	 -0.399735
H	 0.853533	 1.043532	 0.342250
H	 0.871597	 -0.279636	 1.474438
C	 1.493716	 -2.183619	 -0.791452
H	 2.760139	 -0.721335	 0.153254
H	 1.996639	 -0.165981	 -1.308465
C	 1.401058	 -3.156161	 0.385825
H	 2.260988	 -2.537656	 -1.475734
H	 0.559376	 -2.201528	 -1.349028
H	 2.317737	 -3.150252	 0.969608
H	 1.240176	 -4.171190	 0.035583
H	 0.582086	 -2.909535	 1.053376

	symmetry c1
}
set optking {
	frozen_dihedral = ("
		17 13 10 7
	")
}

ee = optimize('scf')
oeprop('DIPOLE', 'QUADRUPOLE', 'MULLIKEN_CHARGES')
f=open( 'psi4out.xyz', 'w' )
f.write( "24  " )
f.write( str(ee) + "\n" )
f.write( MOL.save_string_xyz() )
f.close()
--------------------------------------------------------------------------

    Molecular point group: c1
  Charge       = 0
  Multiplicity = 1
  Basis Set: 6-31G*
  Basis Set:
  @DF-RHF Final Energy:  -349.24122606246306
    Total Energy =                       -349.2412260624632836
    Molecular point group: c1
  Basis Set: 6-31G*
  Basis Set:
  Basis Set: 6-31G*
  Basis Set:
  @DF-RHF Final Energy:  -349.24256618381412
    Total Energy =                       -349.2425661838138922
  Basis Set: 6-31G*
  Basis Set:
  Basis Set: 6-31G*
  Basis Set:
  @DF-RHF Final Energy:  -349.24327630232375
    Total Energy =                       -349.2432763023238067
  Basis Set: 6-31G*
  Basis Set:
  Basis Set: 6-31G*
  Basis Set:
  @DF-RHF Final Energy:  -349.24341810217260
    Total Energy =                       -349.2434181021726545
  Basis Set: 6-31G*
  Basis Set:
  Basis Set: 6-31G*
  Basis Set:
  @DF-RHF Final Energy:  -349.24346950829096
    Total Energy =                       -349.2434695082909570
  Basis Set: 6-31G*
  Basis Set:
  Basis Set: 6-31G*
  Basis Set:
  @DF-RHF Final Energy:  -349.24346583244829
    Total Energy =                       -349.2434658324487486
  Basis Set: 6-31G*
  Basis Set:
  Basis Set: 6-31G*
  Basis Set:
  @DF-RHF Final Energy:  -349.24347684433002
    Total Energy =                       -349.2434768443301891
  Basis Set: 6-31G*
  Basis Set:
  Charge       = 0
  Multiplicity = 1
  Basis Set: 6-31G*
  Basis Set:

    Orbital Energies (a.u.)
    -----------------------

    Doubly Occupied:

       1A    -20.553678     2A    -11.267840     3A    -11.217662
       4A    -11.213159     5A    -11.212401     6A    -11.211811
       7A    -11.211037     8A    -11.206833     9A     -1.360284
      10A     -1.088206    11A     -1.045841    12A     -0.983146
      13A     -0.917398    14A     -0.852607    15A     -0.810656
      16A     -0.759776    17A     -0.680201    18A     -0.653336
      19A     -0.621525    20A     -0.619602    21A     -0.610719
      22A     -0.575193    23A     -0.553139    24A     -0.544173
      25A     -0.520737    26A     -0.510960    27A     -0.493371
      28A     -0.478163    29A     -0.468984    30A     -0.459983
      31A     -0.448835    32A     -0.443609    33A     -0.420659

  @DF-RHF Final Energy:  -349.24347686355947

   => Energetics <=

    Nuclear Repulsion Energy =            393.5192967089366789
    One-Electron Energy =               -1253.4945118086545790
    Two-Electron Energy =                 510.7317382361585487
    DFT Exchange-Correlation Energy =       0.0000000000000000
    Empirical Dispersion Energy =           0.0000000000000000
    PCM Polarization Energy =               0.0000000000000000
    EFP Energy =                            0.0000000000000000
    Total Energy =                       -349.2434768635592945
    Molecular point group: c1
  Basis Set: 6-31G*
  Basis Set:

  -Total Gradient:
     Atom            X                  Y                   Z
    ------   -----------------  -----------------  -----------------
       1       -0.000001255735     0.000003416968    -0.000000641265
       2       -0.000012838826     0.000010133092     0.000010218260
       3        0.000004044226    -0.000031927931     0.000000415218
       4        0.000014219011     0.000008549206    -0.000003407999
       5       -0.000002900105    -0.000002358640    -0.000004264585
       6        0.000001611039    -0.000002566353    -0.000002343624
       7       -0.000019313156    -0.003693362955     0.002877025392
       8       -0.000005285906     0.000000089952    -0.000010970680
       9        0.000003741430     0.000012868231    -0.000001805877
      10       -0.000303701929     0.004043355677    -0.003591661963
      11        0.000003925272     0.000014039920     0.000008809569
      12       -0.000015916365     0.000014998261    -0.000000907908
      13        0.001782999553     0.005177187989    -0.001658671141
      14        0.000007661031    -0.000008179624    -0.000009609398
      15        0.000001508862     0.000007066309     0.000008535640
      16        0.000015152311    -0.000000527788     0.000002607585
      17       -0.001471402326    -0.005573409292     0.002385020883
      18        0.000000876929    -0.000010755746    -0.000008426215
      19       -0.000013859430     0.000014385273     0.000009353303
      20        0.000006156639     0.000009980616     0.000001475760
      21       -0.000000551528     0.000000859527    -0.000000028876
      22       -0.000004049355     0.000003504597    -0.000003953525
      23        0.000003085461     0.000008710568    -0.000007617062
      24        0.000006092903    -0.000006057858     0.000000848508

  **** Optimization is complete! (in 8 steps) ****
    Final optimized geometry and variables:
    Molecular point group: c1

    Geometry (in Angstrom), charge = 0, multiplicity = 1:

    H           -2.917294154253     2.008904139593    -1.041823248719
    O           -2.989501841799     1.072718738191    -0.916510816446
    C           -2.716167256766     0.762078254731     0.426098381809
    C           -1.281291797199     1.078426651943     0.833032414363
    H           -2.907947960242    -0.299100644151     0.526560082042
    H           -3.411486816227     1.280280297273     1.084296984795
    C           -0.234257922352     0.301968536702     0.032280804469
    H           -1.109048462583     2.149352147278     0.723187020691
    H           -1.171242859227     0.861605689639     1.894384470395
    C            1.196078558553     0.636391882028     0.465813822707
    H           -0.366389378949     0.516424420335    -1.024364026577
    H           -0.422130459321    -0.760620022408     0.153405723740
    C            2.321487575217    -0.015070203462    -0.361293664844
    H            1.336654679159     1.714629514755     0.442278282203
    H            1.308990650510     0.348526922522     1.509449696112
    C            2.102711248845    -1.476749076683    -0.779497320923
    H            3.231037141420    -0.000253415597     0.235514001700
    H            2.504485136139     0.577622473630    -1.253508912132
    C            2.062091370745    -2.458452482333     0.393277659140
    H            2.919269658449    -1.761070747776    -1.438969452991
    H            1.196405991169    -1.571659756904    -1.369946095277
    H            2.982280340189    -2.412154738490     0.969621033648
    H            1.944985101661    -3.478968098951     0.041650048089
    H            1.240675493158    -2.250607243417     1.071487189278

  Mulliken Charges: (a.u.)
   Center  Symbol    Alpha    Beta     Spin     Total
       1     H     0.28337  0.28337  0.00000  0.43327
       2     O     4.36832  4.36832  0.00000 -0.73663
       3     C     2.99603  2.99603  0.00000  0.00794
       4     C     3.16896  3.16896  0.00000 -0.33791
       5     H     0.41648  0.41648  0.00000  0.16705
       6     H     0.42813  0.42813  0.00000  0.14375
       7     C     3.15556  3.15556  0.00000 -0.31113
       8     H     0.42811  0.42811  0.00000  0.14378
       9     H     0.42251  0.42251  0.00000  0.15498
      10     C     3.15508  3.15508  0.00000 -0.31017
      11     H     0.41276  0.41276  0.00000  0.17448
      12     H     0.42033  0.42033  0.00000  0.15934
      13     C     3.15230  3.15230  0.00000 -0.30460
      14     H     0.42234  0.42234  0.00000  0.15531
      15     H     0.42420  0.42420  0.00000  0.15161
      16     C     3.15712  3.15712  0.00000 -0.31424
      17     H     0.42325  0.42325  0.00000  0.15350
      18     H     0.42144  0.42144  0.00000  0.15712
      19     C     3.24096  3.24096  0.00000 -0.48193
      20     H     0.42117  0.42117  0.00000  0.15765
      21     H     0.41857  0.41857  0.00000  0.16286
      22     H     0.42263  0.42263  0.00000  0.15475
      23     H     0.41918  0.41918  0.00000  0.16164
      24     H     0.42121  0.42121  0.00000  0.15758

   Total alpha = 33.00000, Total beta = 33.00000, Total charge = -0.00000
