  ==> Input File <==

--------------------------------------------------------------------------
set {
	reference rhf
	basis 6-31G*
}

set_num_threads( 4 )
memory 2 gb

molecule MOL {
0 1

H	 -0.032151	 -0.420899	 -0.757127
N	 -0.626943	 -0.667432	 -0.000092
C	 -1.979713	 -0.158776	 0.000050
C	 -0.129458	 -1.463543	 0.977088
H	 -2.520245	 -0.492427	 -0.879443
H	 -1.934741	 0.918111	 -0.004428
H	 -2.517790	 -0.485056	 0.883818
C	 1.313588	 -1.880637	 0.775506
O	 -0.770414	 -1.815001	 1.928859
H	 1.961420	 -1.010551	 0.735279
H	 1.613210	 -2.511059	 1.599212
H	 1.428121	 -2.427315	 -0.155280

	symmetry c1
}
set optking {
	frozen_dihedral = ("
		4 2 3 5
	")
}

ee = optimize('scf')
oeprop('DIPOLE', 'QUADRUPOLE', 'MULLIKEN_CHARGES')
f=open( 'psi4out.xyz', 'w' )
f.write( "12  " )
f.write( str(ee) + "\n" )
f.write( MOL.save_string_xyz() )
f.close()
--------------------------------------------------------------------------

    Molecular point group: c1
  Charge       = 0
  Multiplicity = 1
  Basis Set: 6-31G*
  Basis Set:
  @DF-RHF Final Energy:  -247.00487357577032
    Total Energy =                       -247.0048735757703753
    Molecular point group: c1
  Basis Set: 6-31G*
  Basis Set:
  Basis Set: 6-31G*
  Basis Set:
  @DF-RHF Final Energy:  -247.00539549051331
    Total Energy =                       -247.0053954905132514
  Basis Set: 6-31G*
  Basis Set:
  Basis Set: 6-31G*
  Basis Set:
  @DF-RHF Final Energy:  -247.00542528149691
    Total Energy =                       -247.0054252814968550
  Basis Set: 6-31G*
  Basis Set:
  Basis Set: 6-31G*
  Basis Set:
  @DF-RHF Final Energy:  -247.00545700402398
    Total Energy =                       -247.0054570040240378
  Basis Set: 6-31G*
  Basis Set:
  Charge       = 0
  Multiplicity = 1
  Basis Set: 6-31G*
  Basis Set:

    Orbital Energies (a.u.)
    -----------------------

    Doubly Occupied:

       1A    -20.515833     2A    -15.581293     3A    -11.343234
       4A    -11.253660     5A    -11.229704     6A     -1.384104
       7A     -1.228006     8A     -1.015682     9A     -0.931583
      10A     -0.786384    11A     -0.689203    12A     -0.648060
      13A     -0.632116    14A     -0.585950    15A     -0.579643
      16A     -0.554593    17A     -0.543930    18A     -0.507671
      19A     -0.412810    20A     -0.384099

  @DF-RHF Final Energy:  -247.00547257026423

   => Energetics <=

    Nuclear Repulsion Energy =            181.2517050643096752
    One-Electron Energy =                -694.8992398655916531
    Two-Electron Energy =                 266.6420622310177464
    DFT Exchange-Correlation Energy =       0.0000000000000000
    Empirical Dispersion Energy =           0.0000000000000000
    PCM Polarization Energy =               0.0000000000000000
    EFP Energy =                            0.0000000000000000
    Total Energy =                       -247.0054725702642031
    Molecular point group: c1
  Basis Set: 6-31G*
  Basis Set:

  -Total Gradient:
     Atom            X                  Y                   Z
    ------   -----------------  -----------------  -----------------
       1       -0.000004076394    -0.000010662472     0.000044762034
       2        0.000001395353     0.000017167260    -0.000067215214
       3        0.000017044108     0.000062109968    -0.000023409325
       4        0.000047598736    -0.000023484727    -0.000074852161
       5       -0.000004627121     0.000018415604     0.000012033299
       6       -0.000029065537    -0.000056099693    -0.000008024389
       7       -0.000092761404     0.000021131801     0.000046440923
       8        0.000048633684    -0.000029722510     0.000048502833
       9       -0.000023710470     0.000008594533     0.000014074356
      10        0.000012531671    -0.000007630945     0.000001710571
      11        0.000035523777    -0.000003231717    -0.000002929091
      12       -0.000008486404     0.000003412898     0.000008906164

  **** Optimization is complete! (in 5 steps) ****
    Final optimized geometry and variables:
    Molecular point group: c1

    Geometry (in Angstrom), charge = 0, multiplicity = 1:

    H            0.418534590286     0.760873059253    -1.490470548001
    N           -0.178178725762     0.518047707388    -0.733795626676
    C           -1.527773311972     1.035293883680    -0.734373075340
    C            0.316746412657    -0.274010917508     0.248075086344
    H           -2.072276504785     0.698515266039    -1.610163613477
    H           -1.528770061075     2.120058214342    -0.720142472270
    H           -2.028245854352     0.673644897016     0.149190453968
    C            1.758200173491    -0.698066920101     0.048725063852
    O           -0.325395122592    -0.617338296794     1.202013128242
    H            2.409683634912     0.169135476148     0.005005988196
    H            2.055188414471    -1.326125451315     0.875164112551
    H            1.870721699690    -1.249133632789    -0.879685226884

  Mulliken Charges: (a.u.)
   Center  Symbol    Alpha    Beta     Spin     Total
       1     H     0.31107  0.31107  0.00000  0.37786
       2     N     3.89164  3.89164  0.00000 -0.78328
       3     C     3.14246  3.14246  0.00000 -0.28492
       4     C     2.63058  2.63058  0.00000  0.73884
       5     H     0.41668  0.41668  0.00000  0.16664
       6     H     0.41672  0.41672  0.00000  0.16657
       7     H     0.38548  0.38548  0.00000  0.22903
       8     C     3.29525  3.29525  0.00000 -0.59050
       9     O     4.30249  4.30249  0.00000 -0.60498
      10     H     0.40784  0.40784  0.00000  0.18432
      11     H     0.39182  0.39182  0.00000  0.21636
      12     H     0.40796  0.40796  0.00000  0.18407

   Total alpha = 20.00000, Total beta = 20.00000, Total charge = -0.00000
