  ==> Input File <==

--------------------------------------------------------------------------
set {
	reference rhf
	basis 6-31G*
}

set_num_threads( 4 )
memory 2 gb

molecule MOL {
0 1

O	 1.846825	 1.296220	 0.000415
C	 1.705091	 0.115954	 0.001797
C	 0.381791	 -0.609817	 0.001258
O	 2.721346	 -0.737485	 -0.000216
C	 -0.823008	 0.326187	 0.001381
H	 0.371250	 -1.265087	 -0.865474
H	 0.370908	 -1.265746	 0.867490
C	 -2.149452	 -0.435131	 -0.000098
H	 -0.770201	 0.977095	 -0.865636
H	 -0.771220	 0.975655	 0.869608
C	 -3.368779	 0.488503	 -0.000883
H	 -2.193746	 -1.087250	 -0.871175
H	 -2.195311	 -1.087803	 0.870418
C	 -3.497241	 1.307993	 1.282545
H	 -4.269118	 -0.105273	 -0.142161
H	 -3.309864	 1.160355	 -0.854277
H	 -3.592962	 0.663387	 2.151760
H	 -4.370225	 1.952498	 1.251515
H	 -2.625798	 1.938779	 1.434219
C	 4.024888	 -0.184556	 -0.001949
H	 4.179030	 0.422472	 -0.882452
H	 4.701782	 -1.024608	 -0.003642
H	 4.181981	 0.421185	 0.878906

	symmetry c1
}
set optking {
	frozen_dihedral = ("
		15 11 8 12
	")
}

ee = optimize('scf')
oeprop('DIPOLE', 'QUADRUPOLE', 'MULLIKEN_CHARGES')
f=open( 'psi4out.xyz', 'w' )
f.write( "23  " )
f.write( str(ee) + "\n" )
f.write( MOL.save_string_xyz() )
f.close()
--------------------------------------------------------------------------

    Molecular point group: c1
  Charge       = 0
  Multiplicity = 1
  Basis Set: 6-31G*
  Basis Set:
  @DF-RHF Final Energy:  -422.97426166748443
    Total Energy =                       -422.9742616674843703
    Molecular point group: c1
  Basis Set: 6-31G*
  Basis Set:
  Basis Set: 6-31G*
  Basis Set:
  @DF-RHF Final Energy:  -422.97449113409743
    Total Energy =                       -422.9744911340977751
  Basis Set: 6-31G*
  Basis Set:
  Basis Set: 6-31G*
  Basis Set:
  @DF-RHF Final Energy:  -422.97416660303759
    Total Energy =                       -422.9741666030377019
  Basis Set: 6-31G*
  Basis Set:
  Basis Set: 6-31G*
  Basis Set:
  @DF-RHF Final Energy:  -422.97475110665556
    Total Energy =                       -422.9747511066555035
  Basis Set: 6-31G*
  Basis Set:
  Basis Set: 6-31G*
  Basis Set:
  @DF-RHF Final Energy:  -422.97477659561099
    Total Energy =                       -422.9747765956109333
  Basis Set: 6-31G*
  Basis Set:
  Basis Set: 6-31G*
  Basis Set:
  @DF-RHF Final Energy:  -422.97477768001289
    Total Energy =                       -422.9747776800127212
  Basis Set: 6-31G*
  Basis Set:
  Charge       = 0
  Multiplicity = 1
  Basis Set: 6-31G*
  Basis Set:

    Orbital Energies (a.u.)
    -----------------------

    Doubly Occupied:

       1A    -20.603653     2A    -20.545464     3A    -11.372271
       4A    -11.280866     5A    -11.235528     6A    -11.218908
       7A    -11.218031     8A    -11.216719     9A    -11.208133
      10A     -1.469344    11A     -1.362786    12A     -1.093018
      13A     -1.042129    14A     -0.985289    15A     -0.931333
      16A     -0.855067    17A     -0.784191    18A     -0.767188
      19A     -0.696707    20A     -0.683430    21A     -0.672198
      22A     -0.643406    23A     -0.615092    24A     -0.597434
      25A     -0.588412    26A     -0.561729    27A     -0.533733
      28A     -0.526913    29A     -0.521330    30A     -0.513132
      31A     -0.490458    32A     -0.466134    33A     -0.462387
      34A     -0.459513    35A     -0.454922    36A     -0.435623

  @DF-RHF Final Energy:  -422.97477849482220

   => Energetics <=

    Nuclear Repulsion Energy =            456.9557889279719802
    One-Electron Energy =               -1481.6361925630208134
    Two-Electron Energy =                 601.7056251402264024
    DFT Exchange-Correlation Energy =       0.0000000000000000
    Empirical Dispersion Energy =           0.0000000000000000
    PCM Polarization Energy =               0.0000000000000000
    EFP Energy =                            0.0000000000000000
    Total Energy =                       -422.9747784948224307
    Molecular point group: c1
  Basis Set: 6-31G*
  Basis Set:

  -Total Gradient:
     Atom            X                  Y                   Z
    ------   -----------------  -----------------  -----------------
       1        0.000001819027    -0.000000101398    -0.000025308883
       2        0.000000871927    -0.000000853637     0.000040950394
       3       -0.000003709470    -0.000006979051    -0.000001507922
       4        0.000007616022     0.000000648776    -0.000006463217
       5       -0.000020294423    -0.000003576212    -0.000029682581
       6        0.000003325516    -0.000001090955    -0.000010423387
       7       -0.000002159867     0.000002831334    -0.000012593193
       8        0.000103449772     0.000149755238    -0.000092880617
       9        0.000006279749     0.000002850826     0.000007795418
      10       -0.000025004114     0.000004632130     0.000011931966
      11       -0.000008324395    -0.000017223957     0.000195678368
      12       -0.000079889388    -0.000102360559     0.000089012316
      13        0.000001039995    -0.000012187920     0.000012543623
      14       -0.000007826143    -0.000042794309     0.000000652858
      15        0.000014951445     0.000022349037    -0.000152056638
      16       -0.000005761693     0.000012669713    -0.000012056722
      17        0.000003585683     0.000005027583     0.000007280125
      18       -0.000006387602    -0.000002516279    -0.000007218580
      19        0.000016519715    -0.000010117089    -0.000015270760
      20       -0.000000745391    -0.000001577091     0.000002440058
      21       -0.000000282470     0.000000379750    -0.000000954584
      22        0.000000416282     0.000000398974    -0.000000974926
      23        0.000000509817    -0.000000164906    -0.000000893113

  **** Optimization is complete! (in 7 steps) ****
    Final optimized geometry and variables:
    Molecular point group: c1

    Geometry (in Angstrom), charge = 0, multiplicity = 1:

    O            1.733879251332     1.105362137751    -0.094067602429
    C            1.581675156950    -0.072605182713    -0.143050497437
    C            0.252007753430    -0.786614914848    -0.155765298262
    O            2.590175543361    -0.933660862721    -0.193913461367
    C           -0.944214520988     0.159593195840    -0.109264196037
    H            0.226869093171    -1.411135724187    -1.044523772855
    H            0.244098305782    -1.472271669401     0.687275715283
    C           -2.274018990459    -0.598276021064    -0.114930907214
    H           -0.901055032313     0.832302583249    -0.960599522779
    H           -0.864400900887     0.783237151037     0.773680072867
    C           -3.513922253127     0.302299832122    -0.151061783030
    H           -2.301043608186    -1.257858985404    -0.980221793292
    H           -2.327517173503    -1.245072563921     0.759808915904
    C           -3.720421988722     1.147319519646     1.107101816065
    H           -4.389661173467    -0.324521064725    -0.299630005493
    H           -3.457771294112     0.954792039188    -1.019849124538
    H           -3.770873382130     0.521018736600     1.993861435352
    H           -4.648602235326     1.707062253588     1.046132634888
    H           -2.918322653594     1.863111042375     1.251869439357
    C            3.898528910171    -0.392175849747    -0.187571753805
    H            4.047939826009     0.250633656193    -1.043133487793
    H            4.567827551622    -1.237111073452    -0.233271357829
    H            4.071213681461     0.173898912002     0.716450339937

  Mulliken Charges: (a.u.)
   Center  Symbol    Alpha    Beta     Spin     Total
       1     O     4.28620  4.28620  0.00000 -0.57241
       2     C     2.60518  2.60518  0.00000  0.78964
       3     C     3.20772  3.20772  0.00000 -0.41543
       4     O     4.30721  4.30721  0.00000 -0.61441
       5     C     3.15409  3.15409  0.00000 -0.30818
       6     H     0.40074  0.40074  0.00000  0.19851
       7     H     0.40063  0.40063  0.00000  0.19874
       8     C     3.15521  3.15521  0.00000 -0.31042
       9     H     0.41248  0.41248  0.00000  0.17503
      10     H     0.40945  0.40945  0.00000  0.18110
      11     C     3.15235  3.15235  0.00000 -0.30469
      12     H     0.42251  0.42251  0.00000  0.15498
      13     H     0.42415  0.42415  0.00000  0.15170
      14     C     3.24218  3.24218  0.00000 -0.48437
      15     H     0.42059  0.42059  0.00000  0.15883
      16     H     0.42173  0.42173  0.00000  0.15653
      17     H     0.42259  0.42259  0.00000  0.15481
      18     H     0.41868  0.41868  0.00000  0.16264
      19     H     0.41730  0.41730  0.00000  0.16540
      20     C     3.09244  3.09244  0.00000 -0.18488
      21     H     0.40907  0.40907  0.00000  0.18187
      22     H     0.40842  0.40842  0.00000  0.18317
      23     H     0.40909  0.40909  0.00000  0.18182

   Total alpha = 36.00000, Total beta = 36.00000, Total charge =  0.00000
