                              Psi4 1.0.54 Driver

  ==> Input File <==

--------------------------------------------------------------------------
set {
	reference rhf
	basis cc-pvtz
}

set_num_threads( 4 )
memory 2 gb

molecule MOL {
0 1

H	 2.856977	 0.089498	 2.121207
O	 1.940880	 -0.091408	 2.228285
C	 1.247976	 0.212216	 1.113312
C	 1.858374	 0.724406	 -0.021481
C	 -0.114997	 -0.002683	 1.125309
H	 2.920238	 0.891191	 -0.029095
C	 1.105767	 1.020117	 -1.140004
H	 -0.589372	 -0.398146	 2.000192
C	 -0.861704	 0.296439	 0.000000
H	 1.588875	 1.415944	 -2.012215
C	 -0.258212	 0.808065	 -1.136160
C	 -2.330689	 0.069587	 0.000000
H	 -0.846049	 1.037058	 -2.004432
O	 -2.848621	 -0.993976	 0.000000
H	 -2.934306	 0.982410	 0.000000

	symmetry c1
}
set optking {
	frozen_dihedral = ("
		11 9 12 14
	")
}

ee,wfn = optimize('scf', return_wfn=True)
oeprop( wfn, 'DIPOLE', 'QUADRUPOLE', 'MULLIKEN_CHARGES')
f=open( 'psi4out.xyz', 'w' )
f.write( "15  " )
f.write( str(ee) + "\n" )
f.write( MOL.save_string_xyz() )
f.close()
--------------------------------------------------------------------------

    Molecular point group: c1
  Charge       = 0
  Multiplicity = 1
  Basis Set: CC-PVTZ
  Basis Set:
  @DF-RHF Final Energy:  -418.42836569432154
    Total Energy =                       -418.4283656943216556
    Molecular point group: c1
  Basis Set: CC-PVTZ
  Basis Set:
  Basis Set: CC-PVTZ
  Basis Set:
  @DF-RHF Final Energy:  -418.42694043602546
    Total Energy =                       -418.4269404360255749
  Basis Set: CC-PVTZ
  Basis Set:
  Basis Set: CC-PVTZ
  Basis Set:
  @DF-RHF Final Energy:  -418.42853478750817
    Total Energy =                       -418.4285347875078287
  Basis Set: CC-PVTZ
  Basis Set:
  Basis Set: CC-PVTZ
  Basis Set:
  @DF-RHF Final Energy:  -418.42879186889292
    Total Energy =                       -418.4287918688927448
  Basis Set: CC-PVTZ
  Basis Set:
  Basis Set: CC-PVTZ
  Basis Set:
  @DF-RHF Final Energy:  -418.42879599082187
    Total Energy =                       -418.4287959908223229
  Basis Set: CC-PVTZ
  Basis Set:
  Charge       = 0
  Multiplicity = 1
  Basis Set: CC-PVTZ
  Basis Set:

    Orbital Energies (a.u.)
    -----------------------

    Doubly Occupied:

       1A    -20.596018     2A    -20.562944     3A    -11.332536
       4A    -11.311753     5A    -11.255474     6A    -11.249706
       7A    -11.239620     8A    -11.237441     9A    -11.236952
      10A     -1.427920    11A     -1.417537    12A     -1.172174
      13A     -1.050587    14A     -1.027683    15A     -0.901499
      16A     -0.846308    17A     -0.820410    18A     -0.742213
      19A     -0.703869    20A     -0.684041    21A     -0.661383
      22A     -0.644230    23A     -0.616215    24A     -0.607164
      25A     -0.585862    26A     -0.547430    27A     -0.535994
      28A     -0.516042    29A     -0.497164    30A     -0.426982
      31A     -0.357364    32A     -0.328513

  @DF-RHF Final Energy:  -418.42879678549792

   => Energetics <=

    Nuclear Repulsion Energy =            403.3004603738286846
    One-Electron Energy =               -1369.1764520593542329
    Two-Electron Energy =                 547.4471949000278528
    DFT Exchange-Correlation Energy =       0.0000000000000000
    Empirical Dispersion Energy =           0.0000000000000000
    PCM Polarization Energy =               0.0000000000000000
    EFP Energy =                            0.0000000000000000
    Total Energy =                       -418.4287967854977524
    Molecular point group: c1
  Basis Set: CC-PVTZ
  Basis Set:

  -Total Gradient:
     Atom            X                  Y                   Z
    ------   -----------------  -----------------  -----------------
       1       -0.000003982143     0.000014558979     0.000005315195
       2        0.000008703761     0.000022118148    -0.000005214278
       3       -0.000099897974    -0.000148285235     0.000052006123
       4       -0.000016312239     0.000076534381    -0.000122124251
       5        0.000082519805     0.000050272606     0.000054000470
       6       -0.000000447360    -0.000009424331     0.000002339467
       7        0.000141263670     0.000023335086     0.000059568493
       8        0.000000588464     0.000014939730    -0.000000775056
       9       -0.000848645905     0.005141093144    -0.000383170427
      10       -0.000004995642    -0.000000113961    -0.000010067973
      11        0.000516791233    -0.003654525032    -0.001173426768
      12        0.000194384390    -0.001404246299     0.006255577078
      13        0.000014377304     0.000018745075     0.000000948743
      14        0.000047156187    -0.000186788681    -0.004744298940
      15       -0.000031503548     0.000041786388     0.000009322130

  **** Optimization is complete! (in 6 steps) ****
    Final optimized geometry and variables:
    Molecular point group: c1

    Geometry (in Angstrom), charge = 0, multiplicity = 1:

    H            2.885862666336    -0.136439848144     1.823917445530
    O            1.965631572748    -0.293036707039     1.936080692171
    C            1.280237552140     0.016606272759     0.819621292198
    C            1.893046420904     0.517962862937    -0.313897433027
    C           -0.088583433574    -0.192053806281     0.833951327174
    H            2.956432900551     0.672689888551    -0.327602124201
    C            1.133025921735     0.814927836318    -1.429465189833
    H           -0.546270405692    -0.605127631147     1.710964479707
    C           -0.837246304539     0.125756326582    -0.279547477616
    H            1.615916465009     1.193802450299    -2.309667655175
    C           -0.233046961384     0.628649021398    -1.421100328436
    C           -2.313095041386    -0.133722755069    -0.285574813448
    H           -0.817995882508     0.864894996567    -2.289335029658
    O           -2.789636165857    -1.213853616342    -0.268524265769
    H           -2.950716348352     0.753784313049    -0.354881071965

  Mulliken Charges: (a.u.)
   Center  Symbol    Alpha    Beta     Spin     Total
       1     H     0.38649  0.38649  0.00000  0.22702
       2     O     4.17116  4.17116  0.00000 -0.34231
       3     C     2.83608  2.83608  0.00000  0.32785
       4     C     3.13920  3.13920  0.00000 -0.27839
       5     C     3.13155  3.13155  0.00000 -0.26309
       6     H     0.43257  0.43257  0.00000  0.13487
       7     C     3.05511  3.05511  0.00000 -0.11022
       8     H     0.41504  0.41504  0.00000  0.16993
       9     C     2.92844  2.92844  0.00000  0.14311
      10     H     0.41971  0.41971  0.00000  0.16058
      11     C     3.11682  3.11682  0.00000 -0.23363
      12     C     2.93070  2.93070  0.00000  0.13860
      13     H     0.42499  0.42499  0.00000  0.15002
      14     O     4.15594  4.15594  0.00000 -0.31189
      15     H     0.45622  0.45622  0.00000  0.08756

   Total alpha = 32.00000, Total beta = 32.00000, Total charge = -0.00000

*** Psi4 exiting successfully. Buy a developer a beer!
