  ==> Input File <==

--------------------------------------------------------------------------
set {
	reference rhf
	basis 6-31G*
}

set_num_threads( 1 )
memory 2 gb

molecule MOL {
0 1

H	 -3.261111	 -0.295142	 1.469456
C	 -3.306842	 -0.277400	 0.373456
C	 -2.660244	 0.921717	 -0.272021
O	 -3.838538	 -1.161155	 -0.216482
C	 -3.009935	 2.234698	 0.442159
H	 -1.589326	 0.757727	 -0.302857
H	 -3.021018	 0.965564	 -1.298946
C	 -2.428243	 2.334938	 1.854564
H	 -2.642733	 3.061375	 -0.158717
H	 -4.092310	 2.347076	 0.482048
C	 -2.775008	 3.652998	 2.549752
H	 -1.346994	 2.225102	 1.802767
H	 -2.786085	 1.504932	 2.460847
C	 -2.178276	 3.756649	 3.955852
H	 -2.424565	 4.478154	 1.934903
H	 -3.857769	 3.754434	 2.610765
C	 -2.567244	 5.025159	 4.723743
H	 -1.093031	 3.694503	 3.892015
H	 -2.497598	 2.891988	 4.533872
C	 -2.020773	 6.322741	 4.126023
H	 -2.204892	 4.932759	 5.744582
H	 -3.651444	 5.086838	 4.791768
H	 -0.938800	 6.283218	 4.030941
H	 -2.432339	 6.522100	 3.142232
H	 -2.265397	 7.170833	 4.758395

	symmetry c1
}
set optking {
	frozen_dihedral = ("
		6 3 5 8,
		3 5 8 12,
		12 8 11 14,
		8 11 14 18,
		20 17 14 18
	")
}

ee = energy('scf')
oeprop('DIPOLE', 'QUADRUPOLE', 'MULLIKEN_CHARGES')
f=open( 'psi4out.xyz', 'w' )
f.write( "25  " )
f.write( str(ee) + "\n" )
f.write( MOL.save_string_xyz() )
f.close()
--------------------------------------------------------------------------

    Molecular point group: c1

    Geometry (in Angstrom), charge = 0, multiplicity = 1:

       Center              X                  Y                   Z               Mass
    ------------   -----------------  -----------------  -----------------  -----------------
           H         -0.504517272752    -2.831045494052    -0.480167351646     1.007825032070
           C         -0.550248272752    -2.813303494052    -1.576167351646    12.000000000000
           C          0.096349727248    -1.614186494052    -2.221644351646    12.000000000000
           O         -1.081944272752    -3.697058494052    -2.166105351646    15.994914619560
           C         -0.253341272752    -0.301205494052    -1.507464351646    12.000000000000
           H          1.167267727248    -1.778176494052    -2.252480351646     1.007825032070
           H         -0.264424272752    -1.570339494052    -3.248569351646     1.007825032070
           C          0.328350727248    -0.200965494052    -0.095059351646    12.000000000000
           H          0.113860727248     0.525471505948    -2.108340351646     1.007825032070
           H         -1.335716272752    -0.188827494052    -1.467575351646     1.007825032070
           C         -0.018414272752     1.117094505948     0.600128648354    12.000000000000
           H          1.409599727248    -0.310801494052    -0.146856351646     1.007825032070
           H         -0.029491272752    -1.030971494052     0.511223648354     1.007825032070
           C          0.578317727248     1.220745505948     2.006228648354    12.000000000000
           H          0.332028727248     1.942250505948    -0.014720351646     1.007825032070
           H         -1.101175272752     1.218530505948     0.661141648354     1.007825032070
           C          0.189349727248     2.489255505948     2.774119648354    12.000000000000
           H          1.663562727248     1.158599505948     1.942391648354     1.007825032070
           H          0.258995727248     0.356084505948     2.584248648354     1.007825032070
           C          0.735820727248     3.786837505948     2.176399648354    12.000000000000
           H          0.551701727248     2.396855505948     3.794958648354     1.007825032070
           H         -0.894850272752     2.550934505948     2.842144648354     1.007825032070
           H          1.817793727248     3.747314505948     2.081317648354     1.007825032070
           H          0.324254727248     3.986196505948     1.192608648354     1.007825032070
           H          0.491196727248     4.634929505948     2.808771648354     1.007825032070

  Charge       = 0
  Multiplicity = 1
  Basis Set: 6-31G*
  Basis Set:

    Orbital Energies (a.u.)
    -----------------------

    Doubly Occupied:

       1A    -20.561450     2A    -11.325072     3A    -11.235127
       4A    -11.234296     5A    -11.227812     6A    -11.222421
       7A    -11.220300     8A    -11.219712     9A    -11.212416
      10A     -1.401331    11A     -1.106504    12A     -1.071414
      13A     -1.014501    14A     -0.943263    15A     -0.876772
      16A     -0.829061    17A     -0.784591    18A     -0.781708
      19A     -0.671713    20A     -0.662102    21A     -0.633929
      22A     -0.619604    23A     -0.606866    24A     -0.597271
      25A     -0.565716    26A     -0.559780    27A     -0.543889
      28A     -0.520314    29A     -0.509525    30A     -0.503055
      31A     -0.489972    32A     -0.481560    33A     -0.467460
      34A     -0.461898    35A     -0.443589    36A     -0.405982

  @DF-RHF Final Energy:  -387.11905074850222

   => Energetics <=

    Nuclear Repulsion Energy =            437.1069335630527348
    One-Electron Energy =               -1390.4280753559296500
    Two-Electron Energy =                 566.2020910443736739
    DFT Exchange-Correlation Energy =       0.0000000000000000
    Empirical Dispersion Energy =           0.0000000000000000
    PCM Polarization Energy =               0.0000000000000000
    EFP Energy =                            0.0000000000000000
    Total Energy =                       -387.1190507485032413

  Mulliken Charges: (a.u.)
   Center  Symbol    Alpha    Beta     Spin     Total
       1     H     0.43080  0.43080  0.00000  0.13841
       2     C     2.83015  2.83015  0.00000  0.33969
       3     C     3.21063  3.21063  0.00000 -0.42126
       4     O     4.23927  4.23927  0.00000 -0.47854
       5     C     3.16674  3.16674  0.00000 -0.33347
       6     H     0.40444  0.40444  0.00000  0.19111
       7     H     0.39875  0.39875  0.00000  0.20251
       8     C     3.15853  3.15853  0.00000 -0.31706
       9     H     0.41218  0.41218  0.00000  0.17563
      10     H     0.41477  0.41477  0.00000  0.17046
      11     C     3.15346  3.15346  0.00000 -0.30692
      12     H     0.42074  0.42074  0.00000  0.15851
      13     H     0.42126  0.42126  0.00000  0.15749
      14     C     3.15309  3.15309  0.00000 -0.30618
      15     H     0.42009  0.42009  0.00000  0.15981
      16     H     0.42229  0.42229  0.00000  0.15543
      17     C     3.15281  3.15281  0.00000 -0.30562
      18     H     0.42362  0.42362  0.00000  0.15276
      19     H     0.42175  0.42175  0.00000  0.15650
      20     C     3.24148  3.24148  0.00000 -0.48296
      21     H     0.41999  0.41999  0.00000  0.16002
      22     H     0.42263  0.42263  0.00000  0.15474
      23     H     0.42205  0.42205  0.00000  0.15589
      24     H     0.42025  0.42025  0.00000  0.15949
      25     H     0.41823  0.41823  0.00000  0.16354

   Total alpha = 36.00000, Total beta = 36.00000, Total charge = -0.00000
