  ==> Input File <==

--------------------------------------------------------------------------
set {
	reference rhf
	basis 6-31G*
}

set_num_threads( 4 )
memory 2 gb

molecule MOL {
0 1

H	 -1.070890	 -1.366565	 0.180696
O	 -1.422729	 -0.573567	 -0.196946
C	 -0.731407	 0.539437	 0.309156
C	 0.680193	 0.672443	 -0.251532
H	 -1.319765	 1.404033	 0.030086
H	 -0.700012	 0.506517	 1.397677
C	 1.746936	 -0.010282	 0.605001
H	 0.694746	 0.255673	 -1.254397
H	 0.911887	 1.731415	 -0.343383
H	 1.586523	 -1.082980	 0.657736
H	 2.737535	 0.145150	 0.190850
H	 1.749466	 0.381243	 1.619381

	symmetry c1
}
set optking {
	frozen_dihedral = ("
		8 4 3 2
	")
}

ee = optimize('scf')
oeprop('DIPOLE', 'QUADRUPOLE', 'MULLIKEN_CHARGES')
f=open( 'psi4out.xyz', 'w' )
f.write( "12  " )
f.write( str(ee) + "\n" )
f.write( MOL.save_string_xyz() )
f.close()
--------------------------------------------------------------------------

    Molecular point group: c1
  Charge       = 0
  Multiplicity = 1
  Basis Set: 6-31G*
  Basis Set:
  @DF-RHF Final Energy:  -193.10660086909019
    Total Energy =                       -193.1066008690900730
    Molecular point group: c1
  Basis Set: 6-31G*
  Basis Set:
  Basis Set: 6-31G*
  Basis Set:
  @DF-RHF Final Energy:  -193.10692815743658
    Total Energy =                       -193.1069281574364993
  Basis Set: 6-31G*
  Basis Set:
  Basis Set: 6-31G*
  Basis Set:
  @DF-RHF Final Energy:  -193.10699991273938
    Total Energy =                       -193.1069999127394681
  Basis Set: 6-31G*
  Basis Set:
  Basis Set: 6-31G*
  Basis Set:
  @DF-RHF Final Energy:  -193.10700141242410
    Total Energy =                       -193.1070014124241538
  Basis Set: 6-31G*
  Basis Set:
  Charge       = 0
  Multiplicity = 1
  Basis Set: 6-31G*
  Basis Set:

    Orbital Energies (a.u.)
    -----------------------

    Doubly Occupied:

       1A    -20.553129     2A    -11.267684     3A    -11.218625
       4A    -11.217930     5A     -1.359295     6A     -1.050810
       7A     -0.923789     8A     -0.813494     9A     -0.693947
      10A     -0.639468    11A     -0.592547    12A     -0.585498
      13A     -0.551084    14A     -0.509062    15A     -0.489489
      16A     -0.466646    17A     -0.430163

  @DF-RHF Final Energy:  -193.10700156112119

   => Energetics <=

    Nuclear Repulsion Energy =            132.0900184723586790
    One-Electron Energy =                -523.6687244172007922
    Two-Electron Energy =                 198.4717043837209758
    DFT Exchange-Correlation Energy =       0.0000000000000000
    Empirical Dispersion Energy =           0.0000000000000000
    PCM Polarization Energy =               0.0000000000000000
    EFP Energy =                            0.0000000000000000
    Total Energy =                       -193.1070015611211375
    Molecular point group: c1
  Basis Set: 6-31G*
  Basis Set:

  -Total Gradient:
     Atom            X                  Y                   Z
    ------   -----------------  -----------------  -----------------
       1        0.000000271744     0.000013286803     0.000003881881
       2       -0.001450624084     0.002142183883    -0.002995736084
       3        0.002203222893    -0.003887490308     0.004463690713
       4       -0.001988506022     0.006143818527    -0.003385185670
       5       -0.000005243976    -0.000000997681     0.000006499309
       6        0.000003539251    -0.000000826711    -0.000007676955
       7        0.000003637929    -0.000000441563    -0.000005971306
       8        0.001229283402    -0.004399383577     0.001926003264
       9        0.000008118531    -0.000001946995    -0.000002807348
      10        0.000007249415    -0.000009762201    -0.000002648531
      11        0.000002518949    -0.000001270444     0.000006718277
      12       -0.000013468032     0.000002830269    -0.000006767550

  **** Optimization is complete! (in 5 steps) ****
    Final optimized geometry and variables:
    Molecular point group: c1

    Geometry (in Angstrom), charge = 0, multiplicity = 1:

    H           -1.038214010046    -1.496750361005     0.020812850327
    O           -1.443749055571    -0.709603226215    -0.315095904240
    C           -0.778108060475     0.420673185956     0.189917317041
    C            0.640318771315     0.577334751977    -0.366815754878
    H           -1.388531690764     1.261200605400    -0.113451684316
    H           -0.765373848047     0.408783366912     1.278429576555
    C            1.702931560802    -0.135434081197     0.475383450995
    H            0.648098029249     0.150365793131    -1.364641979364
    H            0.891033305369     1.630788373618    -0.448780513483
    H            1.488397225267    -1.197647217586     0.568421397365
    H            2.687162478646    -0.043786978438     0.027633847991
    H            1.754892831068     0.278445425192     1.478367248357

  Mulliken Charges: (a.u.)
   Center  Symbol    Alpha    Beta     Spin     Total
       1     H     0.28269  0.28269  0.00000  0.43461
       2     O     4.36964  4.36964  0.00000 -0.73928
       3     C     2.99571  2.99571  0.00000  0.00857
       4     C     3.17040  3.17040  0.00000 -0.34081
       5     H     0.41422  0.41422  0.00000  0.17156
       6     H     0.43044  0.43044  0.00000  0.13911
       7     C     3.24389  3.24389  0.00000 -0.48777
       8     H     0.41030  0.41030  0.00000  0.17941
       9     H     0.41943  0.41943  0.00000  0.16114
      10     H     0.42774  0.42774  0.00000  0.14453
      11     H     0.41545  0.41545  0.00000  0.16909
      12     H     0.42008  0.42008  0.00000  0.15984

   Total alpha = 17.00000, Total beta = 17.00000, Total charge = -0.00000
