  ==> Input File <==

--------------------------------------------------------------------------
set {
	reference rhf
	basis cc-pvtz
}

set_num_threads( 4 )
memory 2 gb

molecule MOL {
0 1

H	 1.036418	 1.853799	 -0.063294
O	 0.219801	 1.377833	 -0.070949
C	 0.489979	 0.078084	 0.002623
C	 -0.763662	 -0.754014	 0.000816
O	 1.596352	 -0.333686	 0.068165
C	 -2.038001	 0.074705	 -0.000833
H	 -0.712945	 -1.405886	 -0.864342
H	 -0.715137	 -1.405770	 0.866182
H	 -2.087267	 0.710831	 -0.874232
H	 -2.903419	 -0.576199	 -0.001922
H	 -2.089467	 0.710909	 0.872389

	symmetry c1
}
set optking {
	frozen_dihedral = ("
		2 3 4 7
	")
}

ee = optimize('scf')
oeprop('DIPOLE', 'QUADRUPOLE', 'MULLIKEN_CHARGES')
f=open( 'psi4out.xyz', 'w' )
f.write( "11  " )
f.write( str(ee) + "\n" )
f.write( MOL.save_string_xyz() )
f.close()
--------------------------------------------------------------------------

    Molecular point group: c1
  Charge       = 0
  Multiplicity = 1
  Basis Set: CC-PVTZ
  Basis Set:
  @DF-RHF Final Energy:  -266.94920686961325
    Total Energy =                       -266.9492068696131355
    Molecular point group: c1
  Basis Set: CC-PVTZ
  Basis Set:
  Basis Set: CC-PVTZ
  Basis Set:
  @DF-RHF Final Energy:  -266.95006744197644
    Total Energy =                       -266.9500674419766710
  Basis Set: CC-PVTZ
  Basis Set:
  Basis Set: CC-PVTZ
  Basis Set:
  @DF-RHF Final Energy:  -266.95038641962242
    Total Energy =                       -266.9503864196224754
  Basis Set: CC-PVTZ
  Basis Set:
  Basis Set: CC-PVTZ
  Basis Set:
  @DF-RHF Final Energy:  -266.95040830045849
    Total Energy =                       -266.9504083004587187
  Basis Set: CC-PVTZ
  Basis Set:
  Basis Set: CC-PVTZ
  Basis Set:
  @DF-RHF Final Energy:  -266.95048145981934
    Total Energy =                       -266.9504814598192297
  Basis Set: CC-PVTZ
  Basis Set:
  Charge       = 0
  Multiplicity = 1
  Basis Set: CC-PVTZ
  Basis Set:

    Orbital Energies (a.u.)
    -----------------------

    Doubly Occupied:

       1A    -20.608113     2A    -20.536917     3A    -11.375106
       4A    -11.243283     5A    -11.223087     6A     -1.479996
       7A     -1.368817     8A     -1.067333     9A     -0.910699
      10A     -0.827195    11A     -0.706019    12A     -0.676279
      13A     -0.665337    14A     -0.598064    15A     -0.589157
      16A     -0.557178    17A     -0.524132    18A     -0.519551
      19A     -0.474024    20A     -0.443323

  @DF-RHF Final Energy:  -266.95048494477317

   => Energetics <=

    Nuclear Repulsion Energy =            180.4032187833463468
    One-Electron Energy =                -721.9201900581261953
    Two-Electron Energy =                 274.5664863300066827
    DFT Exchange-Correlation Energy =       0.0000000000000000
    Empirical Dispersion Energy =           0.0000000000000000
    PCM Polarization Energy =               0.0000000000000000
    EFP Energy =                            0.0000000000000000
    Total Energy =                       -266.9504849447731658
    Molecular point group: c1
  Basis Set: CC-PVTZ
  Basis Set:

  -Total Gradient:
     Atom            X                  Y                   Z
    ------   -----------------  -----------------  -----------------
       1       -0.000016910899    -0.000036073817     0.000005427368
       2       -0.000038666721     0.000106392593     0.000116512916
       3        0.000121132589    -0.000130601040    -0.000138070512
       4       -0.000074074409     0.000187061350    -0.000060538550
       5        0.000000761184     0.000012351870    -0.000009454773
       6       -0.000029748322    -0.000012418682     0.000000441671
       7        0.000059186556    -0.000112872934     0.000091882539
       8       -0.000006120796    -0.000005267836    -0.000002603321
       9        0.000002422833    -0.000004967599     0.000010952558
      10       -0.000022320092     0.000005243204    -0.000000942992
      11        0.000004338079    -0.000008847112    -0.000013606904

  **** Optimization is complete! (in 6 steps) ****
    Final optimized geometry and variables:
    Molecular point group: c1

    Geometry (in Angstrom), charge = 0, multiplicity = 1:

    H            1.225762273967     1.703858497960    -0.068128543695
    O            0.380563879394     1.279719682201    -0.073308521676
    C            0.575104467863    -0.030522670123     0.006601192694
    C           -0.693866614637    -0.848527633781     0.001609961392
    O            1.658595668186    -0.501492720007     0.071173531535
    C           -2.006987356298    -0.077645228744     0.000473643415
    H           -0.622677834568    -1.494697709940    -0.865827749992
    H           -0.625838214054    -1.502541184046     0.862320669685
    H           -2.096289000554     0.552262465322    -0.874321701792
    H           -2.837250827073    -0.773005111655     0.002116193140
    H           -2.095713041913     0.554306216658     0.874316579515

  Mulliken Charges: (a.u.)
   Center  Symbol    Alpha    Beta     Spin     Total
       1     H     0.38403  0.38403  0.00000  0.23194
       2     O     4.15123  4.15123  0.00000 -0.30246
       3     C     2.80601  2.80601  0.00000  0.38798
       4     C     3.09761  3.09761  0.00000 -0.19521
       5     O     4.19833  4.19833  0.00000 -0.39665
       6     C     3.14185  3.14185  0.00000 -0.28369
       7     H     0.43815  0.43815  0.00000  0.12370
       8     H     0.43663  0.43663  0.00000  0.12673
       9     H     0.44825  0.44825  0.00000  0.10349
      10     H     0.44917  0.44917  0.00000  0.10166
      11     H     0.44874  0.44874  0.00000  0.10251

   Total alpha = 20.00000, Total beta = 20.00000, Total charge = -0.00000
