                              Psi4 1.0.54 Driver

  ==> Input File <==

--------------------------------------------------------------------------
set {
	reference rhf
	basis cc-pvtz
}

set_num_threads( 4 )
memory 2 gb

molecule MOL {
0 1

H	 1.128311	 0.207724	 1.465118
C	 1.134565	 0.093781	 0.372499
C	 0.062554	 0.862911	 -0.350953
O	 1.948932	 -0.587720	 -0.146651
C	 -1.345994	 0.515580	 0.140951
H	 0.167646	 0.684419	 -1.413304
H	 0.255961	 1.917292	 -0.166699
C	 -1.770224	 -0.912061	 -0.191496
H	 -2.045883	 1.213504	 -0.303605
H	 -1.401605	 0.673974	 1.214387
H	 -1.758555	 -1.081011	 -1.262419
H	 -2.773647	 -1.108718	 0.166427
H	 -1.109421	 -1.642957	 0.261456

	symmetry c1
}
set optking {
	frozen_dihedral = ("
		6 3 2 4
	")
}

ee,wfn = optimize('scf', return_wfn=True)
oeprop( wfn, 'DIPOLE', 'QUADRUPOLE', 'MULLIKEN_CHARGES')
f=open( 'psi4out.xyz', 'w' )
f.write( "13  " )
f.write( str(ee) + "\n" )
f.write( MOL.save_string_xyz() )
f.close()
--------------------------------------------------------------------------

    Molecular point group: c1
  Charge       = 0
  Multiplicity = 1
  Basis Set: CC-PVTZ
  Basis Set:
  @DF-RHF Final Energy:  -231.07073780399463
    Total Energy =                       -231.0707378039946889
    Molecular point group: c1
  Basis Set: CC-PVTZ
  Basis Set:
  Basis Set: CC-PVTZ
  Basis Set:
  @DF-RHF Final Energy:  -231.07066982531595
    Total Energy =                       -231.0706698253161449
  Basis Set: CC-PVTZ
  Basis Set:
  Basis Set: CC-PVTZ
  Basis Set:
  @DF-RHF Final Energy:  -231.07074030234040
    Total Energy =                       -231.0707403023403970
  Basis Set: CC-PVTZ
  Basis Set:
  Basis Set: CC-PVTZ
  Basis Set:
  @DF-RHF Final Energy:  -231.07073875735833
    Total Energy =                       -231.0707387573582423
  Basis Set: CC-PVTZ
  Basis Set:
  Charge       = 0
  Multiplicity = 1
  Basis Set: CC-PVTZ
  Basis Set:

    Orbital Energies (a.u.)
    -----------------------

    Doubly Occupied:

       1A    -20.552648     2A    -11.321898     3A    -11.237093
       4A    -11.234781     5A    -11.219041     6A     -1.407567
       7A     -1.087815     8A     -0.974105     9A     -0.848078
      10A     -0.789395    11A     -0.669421    12A     -0.652183
      13A     -0.628063    14A     -0.596093    15A     -0.559730
      16A     -0.537130    17A     -0.507492    18A     -0.493789
      19A     -0.483829    20A     -0.413014

  @DF-RHF Final Energy:  -231.07074111725314

   => Energetics <=

    Nuclear Repulsion Energy =            174.2275840509195177
    One-Electron Energy =                -658.1703211879535047
    Two-Electron Energy =                 252.8719960197809087
    DFT Exchange-Correlation Energy =       0.0000000000000000
    Empirical Dispersion Energy =           0.0000000000000000
    PCM Polarization Energy =               0.0000000000000000
    EFP Energy =                            0.0000000000000000
    Total Energy =                       -231.0707411172530783
    Molecular point group: c1
  Basis Set: CC-PVTZ
  Basis Set:

  -Total Gradient:
     Atom            X                  Y                   Z
    ------   -----------------  -----------------  -----------------
       1       -0.000002538966     0.000002564639     0.000000655612
       2        0.000315230269     0.000350405154    -0.000045067389
       3       -0.000279569775    -0.000361354651     0.000071225499
       4       -0.000188163707    -0.000204125977     0.000029698830
       5        0.000008607127     0.000003722801    -0.000022989680
       6        0.000156170802     0.000205652176    -0.000029871108
       7        0.000012935877     0.000010255888    -0.000001207580
       8       -0.000018841633    -0.000005600384     0.000002067778
       9       -0.000020249931     0.000007572829    -0.000002205687
      10        0.000009906135     0.000002797371     0.000001723226
      11       -0.000002969329    -0.000002995584    -0.000010688087
      12        0.000001622906    -0.000003075592     0.000001232509
      13        0.000007860223    -0.000005818670     0.000005426078

  **** Optimization is complete! (in 5 steps) ****
    Final optimized geometry and variables:
    Molecular point group: c1

    Geometry (in Angstrom), charge = 0, multiplicity = 1:

    H            1.115782111238     0.231669975199     1.503161962734
    C            1.126449085569     0.120253181954     0.410354563524
    C            0.055581405876     0.888772954863    -0.314897968803
    O            1.940330950439    -0.563454070230    -0.106709729097
    C           -1.352445047778     0.539962508050     0.179090424189
    H            0.159996908932     0.708204303871    -1.376968119184
    H            0.246466417882     1.943799020441    -0.132375148675
    C           -1.777485849890    -0.887205405814    -0.154134880389
    H           -2.052829500013     1.238617196965    -0.263569430784
    H           -1.406112942083     0.697313668766     1.252794102940
    H           -1.767135560707    -1.055082276548    -1.225223336487
    H           -2.780738790548    -1.083108395797     0.204721524405
    H           -1.116572461857    -1.618728162932     0.297292578372

  Mulliken Charges: (a.u.)
   Center  Symbol    Alpha    Beta     Spin     Total
       1     H     0.46483  0.46483  0.00000  0.07034
       2     C     2.90550  2.90550  0.00000  0.18899
       3     C     3.08705  3.08705  0.00000 -0.17410
       4     O     4.16476  4.16476  0.00000 -0.32951
       5     C     3.10319  3.10319  0.00000 -0.20638
       6     H     0.44336  0.44336  0.00000  0.11327
       7     H     0.44305  0.44305  0.00000  0.11391
       8     C     3.14354  3.14354  0.00000 -0.28708
       9     H     0.44370  0.44370  0.00000  0.11260
      10     H     0.45133  0.45133  0.00000  0.09733
      11     H     0.45116  0.45116  0.00000  0.09767
      12     H     0.44693  0.44693  0.00000  0.10613
      13     H     0.45159  0.45159  0.00000  0.09682

   Total alpha = 20.00000, Total beta = 20.00000, Total charge =  0.00000

*** Psi4 exiting successfully. Buy a developer a beer!
