                              Psi4 1.0.54 Driver

  ==> Input File <==

--------------------------------------------------------------------------
set {
	reference rhf
	basis cc-pvtz
}

set_num_threads( 4 )
memory 2 gb

molecule MOL {
0 1

H	 -0.242558	 3.661177	 1.708482
O	 -0.257543	 3.656913	 0.768983
C	 -0.200152	 2.342637	 0.289898
C	 1.187041	 1.752848	 0.450021
H	 -0.925759	 1.705287	 0.785284
H	 -0.457229	 2.377751	 -0.759083
O	 1.172093	 0.457955	 -0.054438
H	 1.470713	 1.749624	 1.503783
H	 1.908312	 2.371155	 -0.080110
C	 2.395478	 -0.199028	 -0.000366
H	 2.505946	 -0.901710	 -0.823354
H	 3.174616	 0.545641	 -0.071768
H	 2.513730	 -0.742241	 0.934223

	symmetry c1
}
set optking {
	frozen_dihedral = ("
		4 7 10 13
	")
}

ee,wfn = optimize('scf', return_wfn=True)
oeprop( wfn, 'DIPOLE', 'QUADRUPOLE', 'MULLIKEN_CHARGES')
f=open( 'psi4out.xyz', 'w' )
f.write( "13  " )
f.write( str(ee) + "\n" )
f.write( MOL.save_string_xyz() )
f.close()
--------------------------------------------------------------------------

    Molecular point group: c1
  Charge       = 0
  Multiplicity = 1
  Basis Set: CC-PVTZ
  Basis Set:
  @DF-RHF Final Energy:  -268.05945937905869
    Total Energy =                       -268.0594593790585805
    Molecular point group: c1
  Basis Set: CC-PVTZ
  Basis Set:
  Basis Set: CC-PVTZ
  Basis Set:
  @DF-RHF Final Energy:  -268.06035676610225
    Total Energy =                       -268.0603567661025295
  Basis Set: CC-PVTZ
  Basis Set:
  Basis Set: CC-PVTZ
  Basis Set:
  @DF-RHF Final Energy:  -268.06060454055387
    Total Energy =                       -268.0606045405538111
  Basis Set: CC-PVTZ
  Basis Set:
  Charge       = 0
  Multiplicity = 1
  Basis Set: CC-PVTZ
  Basis Set:

    Orbital Energies (a.u.)
    -----------------------

    Doubly Occupied:

       1A    -20.554458     2A    -20.552714     3A    -11.269517
       4A    -11.267461     5A    -11.267213     6A     -1.389983
       7A     -1.368877     8A     -1.019694     9A     -0.914107
      10A     -0.842536    11A     -0.711875    12A     -0.674912
      13A     -0.661177    14A     -0.640089    15A     -0.597009
      16A     -0.571476    17A     -0.548125    18A     -0.491675
      19A     -0.483068    20A     -0.441426    21A     -0.422016

  @DF-RHF Final Energy:  -268.06060579331734

   => Energetics <=

    Nuclear Repulsion Energy =            190.3332904800557799
    One-Electron Energy =                -743.4089717226830771
    Two-Electron Energy =                 285.0150754493097338
    DFT Exchange-Correlation Energy =       0.0000000000000000
    Empirical Dispersion Energy =           0.0000000000000000
    PCM Polarization Energy =               0.0000000000000000
    EFP Energy =                            0.0000000000000000
    Total Energy =                       -268.0606057933175634
    Molecular point group: c1
  Basis Set: CC-PVTZ
  Basis Set:

  -Total Gradient:
     Atom            X                  Y                   Z
    ------   -----------------  -----------------  -----------------
       1       -0.000000223496    -0.000003008389    -0.000000484546
       2        0.000027459085    -0.000015615456    -0.000012433389
       3       -0.000026799299    -0.000027616236    -0.000012528100
       4        0.000561219457     0.000839347022    -0.001982154475
       5        0.000001570067    -0.000001988232    -0.000001183134
       6       -0.000012401997     0.000006753018    -0.000002960078
       7       -0.001022279400    -0.001871810757     0.002653770571
       8        0.000001077365    -0.000004593756    -0.000011018601
       9        0.000008971490    -0.000035069218    -0.000020846200
      10        0.001696469612     0.003393116300     0.000564200766
      11        0.000003645464    -0.000031908853     0.000003573475
      12        0.000041065837    -0.000003530463     0.000006664970
      13       -0.001279774186    -0.002244074976    -0.001184601259

  **** Optimization is complete! (in 4 steps) ****
    Final optimized geometry and variables:
    Molecular point group: c1

    Geometry (in Angstrom), charge = 0, multiplicity = 1:

    H           -1.089712964358     2.055166745992     1.391796905774
    O           -1.103334369428     2.046025360251     0.452300857855
    C           -1.052082183607     0.728795750184    -0.019508086745
    C            0.331625335406     0.132887763094     0.147149738205
    H           -1.782698066882     0.098291693116     0.477217904271
    H           -1.305798632408     0.759393290568    -1.069487644520
    O            0.311278111463    -1.160791754195    -0.361487296230
    H            0.608601472870     0.130563739112     1.202877829798
    H            1.057653869122     0.746980476085    -0.380101794565
    C            1.522660310872    -1.845044339636    -0.308067553869
    H            1.539333972673    -2.560345752169    -1.119193114193
    H            2.370397357381    -1.176339538664    -0.420589586661
    H            1.621031387089    -2.394301486637     0.624502685409

  Mulliken Charges: (a.u.)
   Center  Symbol    Alpha    Beta     Spin     Total
       1     H     0.39419  0.39419  0.00000  0.21162
       2     O     4.20209  4.20209  0.00000 -0.40417
       3     C     2.97421  2.97421  0.00000  0.05158
       4     C     2.96533  2.96533  0.00000  0.06933
       5     H     0.46661  0.46661  0.00000  0.06678
       6     H     0.45290  0.45290  0.00000  0.09420
       7     O     4.17778  4.17778  0.00000 -0.35557
       8     H     0.48290  0.48290  0.00000  0.03421
       9     H     0.46827  0.46827  0.00000  0.06346
      10     C     3.03014  3.03014  0.00000 -0.06028
      11     H     0.44933  0.44933  0.00000  0.10135
      12     H     0.47171  0.47171  0.00000  0.05658
      13     H     0.46455  0.46455  0.00000  0.07091

   Total alpha = 21.00000, Total beta = 21.00000, Total charge = -0.00000

*** Psi4 exiting successfully. Buy a developer a beer!
