                              Psi4 1.0.54 Driver

  ==> Input File <==

--------------------------------------------------------------------------
set {
	reference rhf
	basis cc-pvtz
}

set_num_threads( 4 )
memory 2 gb

molecule MOL {
0 1

H	 3.721907	 -0.933076	 -0.066039
O	 2.824271	 -1.154299	 0.131461
C	 2.076458	 -0.067370	 -0.038225
C	 0.626018	 -0.337582	 0.258241
O	 2.538288	 0.965419	 -0.381593
C	 -0.267326	 0.883135	 0.076490
H	 0.325620	 -1.161483	 -0.378003
H	 0.574537	 -0.713685	 1.275261
C	 -1.726822	 0.642622	 0.463839
H	 -0.210803	 1.217591	 -0.953497
H	 0.129920	 1.693110	 0.675679
C	 -2.480891	 -0.340606	 -0.429852
H	 -2.243098	 1.597649	 0.438609
H	 -1.776542	 0.301208	 1.495542
C	 -3.700839	 -0.945048	 0.257791
H	 -2.794835	 0.170290	 -1.336195
H	 -1.821320	 -1.143218	 -0.744075
H	 -4.218405	 -1.636224	 -0.397254
H	 -4.406338	 -0.174825	 0.550580
H	 -3.416074	 -1.488177	 1.152819

	symmetry c1
}
set optking {
	frozen_dihedral = ("
		16 12 9 6
	")
}

ee,wfn = optimize('scf', return_wfn=True)
oeprop( wfn, 'DIPOLE', 'QUADRUPOLE', 'MULLIKEN_CHARGES')
f=open( 'psi4out.xyz', 'w' )
f.write( "20  " )
f.write( str(ee) + "\n" )
f.write( MOL.save_string_xyz() )
f.close()
--------------------------------------------------------------------------

    Molecular point group: c1
  Charge       = 0
  Multiplicity = 1
  Basis Set: CC-PVTZ
  Basis Set:
  @DF-RHF Final Energy:  -384.09283839401661
    Total Energy =                       -384.0928383940166668
    Molecular point group: c1
  Basis Set: CC-PVTZ
  Basis Set:
  Basis Set: CC-PVTZ
  Basis Set:
  @DF-RHF Final Energy:  -384.09070314407256
    Total Energy =                       -384.0907031440727906
  Basis Set: CC-PVTZ
  Basis Set:
  Basis Set: CC-PVTZ
  Basis Set:
  @DF-RHF Final Energy:  -384.09299278666367
    Total Energy =                       -384.0929927866635012
  Basis Set: CC-PVTZ
  Basis Set:
  Basis Set: CC-PVTZ
  Basis Set:
  @DF-RHF Final Energy:  -384.09315912400467
    Total Energy =                       -384.0931591240045577
  Basis Set: CC-PVTZ
  Basis Set:
  Basis Set: CC-PVTZ
  Basis Set:
  @DF-RHF Final Energy:  -384.09304137840968
    Total Energy =                       -384.0930413784099642
  Basis Set: CC-PVTZ
  Basis Set:
  Basis Set: CC-PVTZ
  Basis Set:
  @DF-RHF Final Energy:  -384.09322671828892
    Total Energy =                       -384.0932267182893156
  Basis Set: CC-PVTZ
  Basis Set:
  Basis Set: CC-PVTZ
  Basis Set:
  @DF-RHF Final Energy:  -384.09323332598427
    Total Energy =                       -384.0932333259842721
  Basis Set: CC-PVTZ
  Basis Set:
  Charge       = 0
  Multiplicity = 1
  Basis Set: CC-PVTZ
  Basis Set:

    Orbital Energies (a.u.)
    -----------------------

    Doubly Occupied:

       1A    -20.604004     2A    -20.540615     3A    -11.373622
       4A    -11.238989     5A    -11.221217     6A    -11.218760
       7A    -11.218142     8A    -11.210614     9A     -1.477537
      10A     -1.369073    11A     -1.097194    12A     -1.042008
      13A     -0.962323    14A     -0.870259    15A     -0.816115
      16A     -0.780255    17A     -0.703776    18A     -0.693732
      19A     -0.666282    20A     -0.635116    21A     -0.607799
      22A     -0.594848    23A     -0.580224    24A     -0.554168
      25A     -0.541071    26A     -0.511579    27A     -0.499728
      28A     -0.484678    29A     -0.470523    30A     -0.467388
      31A     -0.457523    32A     -0.446667

  @DF-RHF Final Energy:  -384.09323416418528

   => Energetics <=

    Nuclear Repulsion Energy =            377.0574185160895127
    One-Electron Energy =               -1270.3896478480587575
    Two-Electron Energy =                 509.2389951677837416
    DFT Exchange-Correlation Energy =       0.0000000000000000
    Empirical Dispersion Energy =           0.0000000000000000
    PCM Polarization Energy =               0.0000000000000000
    EFP Energy =                            0.0000000000000000
    Total Energy =                       -384.0932341641855601
    Molecular point group: c1
  Basis Set: CC-PVTZ
  Basis Set:

  -Total Gradient:
     Atom            X                  Y                   Z
    ------   -----------------  -----------------  -----------------
       1        0.000034230657     0.000001113559    -0.000008447233
       2       -0.000001560892    -0.000062607590     0.000035472245
       3       -0.000039356607    -0.000050587506     0.000027487084
       4       -0.000009976285     0.000010664489    -0.000021874883
       5        0.000041014117     0.000114152834    -0.000067009257
       6        0.000720409641    -0.001913273572     0.001820950807
       7       -0.000013160493    -0.000043014960    -0.000012018952
       8       -0.000003719413     0.000002937989     0.000035170347
       9       -0.001740718627     0.002960416818    -0.002197540691
      10        0.000009447816    -0.000000768784    -0.000040992870
      11        0.000004927172     0.000046521497     0.000021196854
      12        0.004055906959    -0.002334928198    -0.001223403781
      13       -0.000015905986     0.000041471142    -0.000004999691
      14        0.000001175162    -0.000009468925     0.000041303493
      15        0.000009931647     0.000009020399     0.000023543099
      16       -0.003046336722     0.001285985751     0.001561029037
      17        0.000026736973    -0.000043292643    -0.000015781785
      18       -0.000005217736    -0.000025255400    -0.000022683767
      19       -0.000025472776     0.000029247822     0.000005427663
      20       -0.000002354593    -0.000018334719     0.000043172282

  **** Optimization is complete! (in 8 steps) ****
    Final optimized geometry and variables:
    Molecular point group: c1

    Geometry (in Angstrom), charge = 0, multiplicity = 1:

    H            3.665565780525    -1.011372446157    -0.020447704295
    O            2.777664816610    -1.141562286933     0.276986807221
    C            2.045584646087    -0.103234593154    -0.117543774414
    C            0.611781634540    -0.235057195757     0.320321593890
    O            2.507345696105     0.792912693929    -0.735367412980
    C           -0.262942375025     0.937635152664    -0.104589601910
    H            0.250982828353    -1.179230939748    -0.070276206865
    H            0.618858857925    -0.345171233439     1.400089411458
    C           -1.715151360881     0.812009306800     0.360904401739
    H           -0.225262150699     1.042255273108    -1.183488815521
    H            0.165457385884     1.847663825742     0.297590098597
    C           -2.545691624121    -0.232481212378    -0.392219397856
    H           -2.200696607290     1.777652366462     0.267784587474
    H           -1.720558903758     0.576735406050     1.423068369733
    C           -3.785837929975    -0.668621807911     0.384250340359
    H           -2.870682680984     0.191984733162    -1.337460278501
    H           -1.947890360422    -1.106192218968    -0.626346349267
    H           -4.385005925919    -1.365143666920    -0.190981595999
    H           -4.412595639516     0.183040522396     0.628151477170
    H           -3.514668771665    -1.154354743553     1.315698892418

  Mulliken Charges: (a.u.)
   Center  Symbol    Alpha    Beta     Spin     Total
       1     H     0.38239  0.38239  0.00000  0.23522
       2     O     4.16041  4.16041  0.00000 -0.32081
       3     C     2.80329  2.80329  0.00000  0.39342
       4     C     3.11111  3.11111  0.00000 -0.22223
       5     O     4.19110  4.19110  0.00000 -0.38220
       6     C     3.09138  3.09138  0.00000 -0.18275
       7     H     0.43777  0.43777  0.00000  0.12447
       8     H     0.43789  0.43789  0.00000  0.12422
       9     C     3.10101  3.10101  0.00000 -0.20201
      10     H     0.44554  0.44554  0.00000  0.10892
      11     H     0.44018  0.44018  0.00000  0.11963
      12     C     3.08544  3.08544  0.00000 -0.17088
      13     H     0.44326  0.44326  0.00000  0.11347
      14     H     0.45703  0.45703  0.00000  0.08594
      15     C     3.14910  3.14910  0.00000 -0.29820
      16     H     0.45043  0.45043  0.00000  0.09913
      17     H     0.45508  0.45508  0.00000  0.08984
      18     H     0.44805  0.44805  0.00000  0.10390
      19     H     0.45390  0.45390  0.00000  0.09221
      20     H     0.45564  0.45564  0.00000  0.08871

   Total alpha = 32.00000, Total beta = 32.00000, Total charge = -0.00000

*** Psi4 exiting successfully. Buy a developer a beer!
