                              Psi4 1.0.54 Driver

  ==> Input File <==

--------------------------------------------------------------------------
set {
	reference rhf
	basis cc-pvtz
}

set_num_threads( 4 )
memory 2 gb

molecule MOL {
0 1

O	 2.868453	 1.353349	 -0.000734
C	 2.841259	 0.166180	 -0.000295
C	 1.542794	 -0.614730	 -0.000853
C	 4.113372	 -0.651103	 0.000743
C	 0.288398	 0.247429	 0.000314
H	 1.557171	 -1.273139	 -0.866508
H	 1.557484	 -1.274998	 0.863344
C	 -0.993089	 -0.581367	 -0.000217
H	 0.305153	 0.900562	 -0.864701
H	 0.305567	 0.898805	 0.866656
C	 -2.258482	 0.271340	 0.000669
H	 -1.002280	 -1.233920	 -0.870484
H	 -1.002061	 -1.235367	 0.868958
C	 -2.955359	 0.325318	 -1.355865
H	 -2.009549	 1.281650	 0.315976
H	 -2.951019	 -0.115850	 0.744043
C	 -4.218868	 1.179284	 -1.347066
H	 -2.264232	 0.713341	 -2.099317
H	 -3.205702	 -0.684030	 -1.671242
H	 -3.996490	 2.204067	 -1.068843
H	 -4.688488	 1.196621	 -2.323887
H	 -4.945005	 0.796231	 -0.637813
H	 4.145311	 -1.294584	 -0.871587
H	 4.970080	 0.004978	 -0.000091
H	 4.145223	 -1.291980	 0.874988

	symmetry c1
}
set optking {
	frozen_dihedral = ("
		15 11 8 12
	")
}

ee,wfn = optimize('scf', return_wfn=True)
oeprop( wfn, 'DIPOLE', 'QUADRUPOLE', 'MULLIKEN_CHARGES')
f=open( 'psi4out.xyz', 'w' )
f.write( "25  " )
f.write( str(ee) + "\n" )
f.write( MOL.save_string_xyz() )
f.close()
--------------------------------------------------------------------------

    Molecular point group: c1
  Charge       = 0
  Multiplicity = 1
  Basis Set: CC-PVTZ
  Basis Set:
  @DF-RHF Final Energy:  -387.26982276971535
    Total Energy =                       -387.2698227697154607
    Molecular point group: c1
  Basis Set: CC-PVTZ
  Basis Set:
  Basis Set: CC-PVTZ
  Basis Set:
  @DF-RHF Final Energy:  -387.27008946037938
    Total Energy =                       -387.2700894603793813
  Basis Set: CC-PVTZ
  Basis Set:
  Basis Set: CC-PVTZ
  Basis Set:
  @DF-RHF Final Energy:  -387.27018889113913
    Total Energy =                       -387.2701888911392416
  Basis Set: CC-PVTZ
  Basis Set:
  Basis Set: CC-PVTZ
  Basis Set:
  @DF-RHF Final Energy:  -387.26998296502273
    Total Energy =                       -387.2699829650221091
  Basis Set: CC-PVTZ
  Basis Set:
  Basis Set: CC-PVTZ
  Basis Set:
  @DF-RHF Final Energy:  -387.27019564633076
    Total Energy =                       -387.2701956463305351
  Basis Set: CC-PVTZ
  Basis Set:
  Charge       = 0
  Multiplicity = 1
  Basis Set: CC-PVTZ
  Basis Set:

    Orbital Energies (a.u.)
    -----------------------

    Doubly Occupied:

       1A    -20.538964     2A    -11.320623     3A    -11.230009
       4A    -11.226635     5A    -11.215350     6A    -11.214648
       7A    -11.213334     8A    -11.211355     9A    -11.205764
      10A     -1.398998    11A     -1.094305    12A     -1.056662
      13A     -1.014863    14A     -0.968999    15A     -0.890971
      16A     -0.820531    17A     -0.787295    18A     -0.731679
      19A     -0.654519    20A     -0.654259    21A     -0.637788
      22A     -0.621438    23A     -0.604695    24A     -0.581638
      25A     -0.565782    26A     -0.564744    27A     -0.544303
      28A     -0.527583    29A     -0.506901    30A     -0.494006
      31A     -0.486987    32A     -0.481573    33A     -0.464255
      34A     -0.456120    35A     -0.449251    36A     -0.401639

  @DF-RHF Final Energy:  -387.27019599211729

   => Energetics <=

    Nuclear Repulsion Energy =            442.7947133413713914
    One-Electron Energy =               -1402.4528913088242916
    Two-Electron Energy =                 572.3879819753353786
    DFT Exchange-Correlation Energy =       0.0000000000000000
    Empirical Dispersion Energy =           0.0000000000000000
    PCM Polarization Energy =               0.0000000000000000
    EFP Energy =                            0.0000000000000000
    Total Energy =                       -387.2701959921175785
    Molecular point group: c1
  Basis Set: CC-PVTZ
  Basis Set:

  -Total Gradient:
     Atom            X                  Y                   Z
    ------   -----------------  -----------------  -----------------
       1       -0.000020478271     0.000020090286     0.000001655176
       2        0.000004426290    -0.000019751778    -0.000004906080
       3        0.000018369580     0.000000794792    -0.000023916201
       4        0.000001534488    -0.000014002422     0.000010650458
       5       -0.000030657183    -0.000000457762     0.000034230291
       6        0.000004325295    -0.000001086685     0.000010397802
       7        0.000005618230     0.000006487435     0.000003913506
       8       -0.001497132683    -0.002235235142     0.001194637325
       9       -0.000004624189     0.000004071838     0.000002730104
      10        0.000007642591     0.000004911821    -0.000005348262
      11       -0.000338239005    -0.000403674392     0.002898220897
      12        0.001323036784     0.001949626985    -0.001479563813
      13       -0.000005082146     0.000010870140    -0.000001462534
      14        0.000018315402    -0.000022228377     0.000029268544
      15        0.000525340625     0.000699753765    -0.002647243234
      16        0.000015738525    -0.000005421688    -0.000007664868
      17       -0.000021056550     0.000022021288    -0.000003653185
      18       -0.000007158201    -0.000011286434     0.000004078687
      19        0.000000723098     0.000001627981    -0.000004846078
      20       -0.000005881577    -0.000008200388     0.000004088402
      21        0.000001883419     0.000003426369     0.000004236346
      22        0.000007356161     0.000004483724    -0.000011689020
      23        0.000003238624    -0.000000028154    -0.000002522222
      24       -0.000013448395     0.000002426194    -0.000000361866
      25        0.000006209090    -0.000009219390    -0.000004930172

  **** Optimization is complete! (in 6 steps) ****
    Final optimized geometry and variables:
    Molecular point group: c1

    Geometry (in Angstrom), charge = 0, multiplicity = 1:

    O            2.714437835464     1.162454101285     0.298704309280
    C            2.696615288850    -0.024792449519     0.284923032443
    C            1.404495357164    -0.816180095556     0.300954524405
    C            3.974824212638    -0.831823082197     0.249324688418
    C            0.144070227617     0.035444914494     0.344985384413
    H            1.404721394427    -1.460124140963    -0.575634290391
    H            1.443529102593    -1.490638942748     1.153472337938
    C           -1.133145681526    -0.804007681759     0.365663347239
    H            0.134476516186     0.701061437659    -0.510979614092
    H            0.176688577368     0.674708574463     1.219626383702
    C           -2.413981408960     0.049087868849     0.339037089533
    H           -1.122949477554    -1.462770652629    -0.498634399860
    H           -1.124847418956    -1.441999263165     1.243627150900
    C           -3.066655380160     0.118021788626    -1.041394231437
    H           -2.177917527982     1.062443626161     0.650571961195
    H           -3.137213110379    -0.335885947697     1.050312008902
    C           -4.294716127440     1.020748980508    -1.079525136566
    H           -2.337796381846     0.471356403072    -1.766138705998
    H           -3.345881423098    -0.884198279465    -1.354770138179
    H           -4.039763410149     2.040099546931    -0.809635583414
    H           -4.736914424183     1.041612789389    -2.069011992023
    H           -5.054351664688     0.676853363286    -0.385169388280
    H            3.992846855986    -1.465152191146    -0.630790165633
    H            4.826273456605    -0.168991826061     0.237530314919
    H            4.030432330289    -1.482157800296     1.115354239243

  Mulliken Charges: (a.u.)
   Center  Symbol    Alpha    Beta     Spin     Total
       1     O     4.17067  4.17067  0.00000 -0.34134
       2     C     2.86206  2.86206  0.00000  0.27589
       3     C     3.11556  3.11556  0.00000 -0.23113
       4     C     3.15121  3.15121  0.00000 -0.30243
       5     C     3.08164  3.08164  0.00000 -0.16328
       6     H     0.44504  0.44504  0.00000  0.10993
       7     H     0.44539  0.44539  0.00000  0.10922
       8     C     3.10100  3.10100  0.00000 -0.20199
       9     H     0.44548  0.44548  0.00000  0.10904
      10     H     0.44572  0.44572  0.00000  0.10856
      11     C     3.09673  3.09673  0.00000 -0.19346
      12     H     0.45613  0.45613  0.00000  0.08774
      13     H     0.44742  0.44742  0.00000  0.10516
      14     C     3.08135  3.08135  0.00000 -0.16271
      15     H     0.45292  0.45292  0.00000  0.09417
      16     H     0.44730  0.44730  0.00000  0.10540
      17     C     3.15091  3.15091  0.00000 -0.30183
      18     H     0.45438  0.45438  0.00000  0.09124
      19     H     0.45502  0.45502  0.00000  0.08997
      20     H     0.45390  0.45390  0.00000  0.09219
      21     H     0.44871  0.44871  0.00000  0.10259
      22     H     0.45537  0.45537  0.00000  0.08926
      23     H     0.45041  0.45041  0.00000  0.09917
      24     H     0.43536  0.43536  0.00000  0.12928
      25     H     0.45032  0.45032  0.00000  0.09936

   Total alpha = 36.00000, Total beta = 36.00000, Total charge = -0.00000

*** Psi4 exiting successfully. Buy a developer a beer!
