                              Psi4 1.0.54 Driver

  ==> Input File <==

--------------------------------------------------------------------------
set {
	reference rhf
	basis cc-pvtz
}

set_num_threads( 4 )
memory 2 gb

molecule MOL {
0 1

H	 -3.436473	 1.252944	 -1.023892
O	 -3.458596	 0.315260	 -0.960865
C	 -3.176635	 -0.080824	 0.355601
C	 -1.763371	 0.265266	 0.799691
H	 -3.321825	 -1.153438	 0.379502
H	 -3.895468	 0.357385	 1.043382
C	 -0.673390	 -0.426948	 -0.013392
H	 -1.631049	 1.344913	 0.747560
H	 -1.664587	 -0.001624	 1.849167
C	 0.737842	 -0.043159	 0.423759
H	 -0.806103	 -0.190518	 -1.063345
H	 -0.797221	 -1.503753	 0.074146
C	 1.543188	 -1.231821	 0.944863
H	 1.253665	 0.415343	 -0.414449
H	 0.681244	 0.717173	 1.199999
C	 2.937026	 -0.884292	 1.470493
H	 1.633544	 -1.976384	 0.157265
H	 0.982315	 -1.706229	 1.745474
C	 3.913222	 -0.383732	 0.408596
H	 3.357316	 -1.769137	 1.938661
H	 2.848021	 -0.139699	 2.257309
H	 4.017902	 -1.105844	 -0.394942
H	 4.896322	 -0.222011	 0.835915
H	 3.591377	 0.553491	 -0.029164

	symmetry c1
}
set optking {
	frozen_dihedral = ("
		13 10 7 11
	")
}

ee,wfn = optimize('scf', return_wfn=True)
oeprop( wfn, 'DIPOLE', 'QUADRUPOLE', 'MULLIKEN_CHARGES')
f=open( 'psi4out.xyz', 'w' )
f.write( "24  " )
f.write( str(ee) + "\n" )
f.write( MOL.save_string_xyz() )
f.close()
--------------------------------------------------------------------------

    Molecular point group: c1
  Charge       = 0
  Multiplicity = 1
  Basis Set: CC-PVTZ
  Basis Set:
  @DF-RHF Final Energy:  -349.37463467379536
    Total Energy =                       -349.3746346737954127
    Molecular point group: c1
  Basis Set: CC-PVTZ
  Basis Set:
  Basis Set: CC-PVTZ
  Basis Set:
  @DF-RHF Final Energy:  -349.37486979319351
    Total Energy =                       -349.3748697931939091
  Basis Set: CC-PVTZ
  Basis Set:
  Basis Set: CC-PVTZ
  Basis Set:
  @DF-RHF Final Energy:  -349.37493589189665
    Total Energy =                       -349.3749358918967687
  Basis Set: CC-PVTZ
  Basis Set:
  Charge       = 0
  Multiplicity = 1
  Basis Set: CC-PVTZ
  Basis Set:

    Orbital Energies (a.u.)
    -----------------------

    Doubly Occupied:

       1A    -20.546199     2A    -11.265294     3A    -11.215734
       4A    -11.212340     5A    -11.210831     6A    -11.209698
       7A    -11.208712     8A    -11.205315     9A     -1.364030
      10A     -1.088463    11A     -1.048903    12A     -0.985477
      13A     -0.915916    14A     -0.852549    15A     -0.802664
      16A     -0.777099    17A     -0.682140    18A     -0.650084
      19A     -0.626092    20A     -0.620977    21A     -0.596174
      22A     -0.580248    23A     -0.572558    24A     -0.530974
      25A     -0.525262    26A     -0.512699    27A     -0.491570
      28A     -0.482483    29A     -0.466602    30A     -0.460878
      31A     -0.456210    32A     -0.441006    33A     -0.423000

  @DF-RHF Final Energy:  -349.37493616164147

   => Energetics <=

    Nuclear Repulsion Energy =            384.7934566030193082
    One-Electron Energy =               -1236.2804050725724210
    Two-Electron Energy =                 502.1120123079116411
    DFT Exchange-Correlation Energy =       0.0000000000000000
    Empirical Dispersion Energy =           0.0000000000000000
    PCM Polarization Energy =               0.0000000000000000
    EFP Energy =                            0.0000000000000000
    Total Energy =                       -349.3749361616414717
    Molecular point group: c1
  Basis Set: CC-PVTZ
  Basis Set:

  -Total Gradient:
     Atom            X                  Y                   Z
    ------   -----------------  -----------------  -----------------
       1       -0.000004870036     0.000010096647    -0.000003456829
       2       -0.000030561257     0.000012164581     0.000039224853
       3        0.000015575768    -0.000070794803    -0.000013034004
       4        0.000016583618     0.000057319626    -0.000027795690
       5       -0.000015310836    -0.000003563728    -0.000009693645
       6       -0.000008818935     0.000000937674    -0.000013945996
       7       -0.000053126247     0.000317682530     0.000029335503
       8        0.000011345082     0.000011159317     0.000001023480
       9        0.000002487718     0.000011410322    -0.000010015020
      10       -0.000097598643    -0.000065648127     0.000227028770
      11        0.000087758237    -0.000247186758    -0.000038073612
      12        0.000003423980    -0.000013049543    -0.000002173189
      13        0.000048268872    -0.000014294842    -0.000184691200
      14        0.000001446522    -0.000003539825    -0.000005542627
      15        0.000003552972    -0.000004380728     0.000005936675
      16        0.000021070367    -0.000018336482     0.000001039320
      17        0.000004917578     0.000007856177     0.000003134040
      18       -0.000020706350     0.000000306817    -0.000008897798
      19       -0.000004295059     0.000008499823     0.000011510668
      20        0.000012159573     0.000000347384     0.000002902225
      21        0.000009627157    -0.000004467840    -0.000003620747
      22       -0.000000349821    -0.000002000622     0.000007872943
      23       -0.000000045774     0.000007612481    -0.000001586468
      24       -0.000002534493     0.000001869916    -0.000006481656

  **** Optimization is complete! (in 4 steps) ****
    Final optimized geometry and variables:
    Molecular point group: c1

    Geometry (in Angstrom), charge = 0, multiplicity = 1:

    H           -3.419815999597     1.508835677601    -1.443895569053
    O           -3.431314731638     0.571770926120    -1.369956882772
    C           -3.137971351384     0.194241940968    -0.050547726350
    C           -1.727280457421     0.563028246866     0.382398269791
    H           -3.269713638938    -0.879787199710    -0.014000542749
    H           -3.859070249204     0.631185811294     0.635780096427
    C           -0.630491421593    -0.123834803187    -0.428231154133
    H           -1.607597382388     1.643464262608     0.318363886140
    H           -1.618751890237     0.308559904261     1.434294069701
    C            0.795666869789     0.254703256723     0.022447392492
    H           -0.768779203442     0.111502678930    -1.475541548931
    H           -0.764285836665    -1.198749615696    -0.346404209055
    C            1.599252888571    -0.935734217754     0.546099603968
    H            1.325314340087     0.715368059582    -0.802810578890
    H            0.745196506761     1.009368227486     0.802887284894
    C            2.989361037838    -0.590337810020     1.081878394037
    H            1.693586755196    -1.678005171544    -0.243235775196
    H            1.031604133977    -1.412296731009     1.341352344861
    C            3.972910912752    -0.086667702375     0.028088973785
    H            3.406445596459    -1.476794877922     1.550046061994
    H            2.895299078385     0.151799696063     1.870519881097
    H            4.081392614709    -0.805460679971    -0.777858344867
    H            4.953575589144     0.071449446211     0.462260508849
    H            3.655448915553     0.852842018469    -0.407743241121

  Mulliken Charges: (a.u.)
   Center  Symbol    Alpha    Beta     Spin     Total
       1     H     0.39522  0.39522  0.00000  0.20955
       2     O     4.20391  4.20391  0.00000 -0.40783
       3     C     2.97765  2.97765  0.00000  0.04471
       4     C     3.10021  3.10021  0.00000 -0.20041
       5     H     0.45880  0.45880  0.00000  0.08240
       6     H     0.46066  0.46066  0.00000  0.07868
       7     C     3.09559  3.09559  0.00000 -0.19118
       8     H     0.45771  0.45771  0.00000  0.08459
       9     H     0.45296  0.45296  0.00000  0.09408
      10     C     3.10107  3.10107  0.00000 -0.20214
      11     H     0.44111  0.44111  0.00000  0.11779
      12     H     0.45492  0.45492  0.00000  0.09016
      13     C     3.09357  3.09357  0.00000 -0.18714
      14     H     0.44609  0.44609  0.00000  0.10781
      15     H     0.45582  0.45582  0.00000  0.08837
      16     C     3.09046  3.09046  0.00000 -0.18092
      17     H     0.45245  0.45245  0.00000  0.09510
      18     H     0.45001  0.45001  0.00000  0.09997
      19     C     3.15238  3.15238  0.00000 -0.30476
      20     H     0.44890  0.44890  0.00000  0.10220
      21     H     0.45511  0.45511  0.00000  0.08978
      22     H     0.45470  0.45470  0.00000  0.09061
      23     H     0.44681  0.44681  0.00000  0.10638
      24     H     0.45390  0.45390  0.00000  0.09220

   Total alpha = 33.00000, Total beta = 33.00000, Total charge = -0.00000

*** Psi4 exiting successfully. Buy a developer a beer!
