  ==> Input File <==

--------------------------------------------------------------------------
set {
	reference rhf
	basis 6-31G*
}

set_num_threads( 4 )
memory 2 gb

molecule MOL {
0 1

H	 -2.195639	 1.347701	 -1.161621
C	 -1.368304	 1.989929	 -0.885202
C	 -0.047444	 1.231144	 -0.933512
H	 -1.564647	 2.364873	 0.111868
H	 -1.345028	 2.831837	 -1.569251
C	 -0.000005	 0.033229	 -0.000001
H	 0.783580	 1.886491	 -0.679908
H	 0.158180	 0.878271	 -1.942271
C	 1.290528	 -0.768786	 0.000276
O	 -0.924485	 -0.261125	 0.694172
C	 2.545731	 0.095645	 -0.000061
H	 1.275672	 -1.427874	 -0.865626
H	 1.275566	 -1.427086	 0.866768
H	 2.577157	 0.734767	 -0.874036
H	 3.433520	 -0.528139	 0.000137
H	 2.577172	 0.735117	 0.873581

	symmetry c1
}
set optking {
	frozen_dihedral = ("
		3 6 9 12
	")
}

ee = optimize('scf')
oeprop('DIPOLE', 'QUADRUPOLE', 'MULLIKEN_CHARGES')
f=open( 'psi4out.xyz', 'w' )
f.write( "16  " )
f.write( str(ee) + "\n" )
f.write( MOL.save_string_xyz() )
f.close()
--------------------------------------------------------------------------

    Molecular point group: c1
  Charge       = 0
  Multiplicity = 1
  Basis Set: 6-31G*
  Basis Set:
  @DF-RHF Final Energy:  -270.02880059847053
    Total Energy =                       -270.0288005984705819
    Molecular point group: c1
  Basis Set: 6-31G*
  Basis Set:
  Basis Set: 6-31G*
  Basis Set:
  @DF-RHF Final Energy:  -270.02927781274792
    Total Energy =                       -270.0292778127476936
  Basis Set: 6-31G*
  Basis Set:
  Basis Set: 6-31G*
  Basis Set:
  @DF-RHF Final Energy:  -270.03011577873605
    Total Energy =                       -270.0301157787359330
  Basis Set: 6-31G*
  Basis Set:
  Basis Set: 6-31G*
  Basis Set:
  @DF-RHF Final Energy:  -270.03024862365783
    Total Energy =                       -270.0302486236577693
  Basis Set: 6-31G*
  Basis Set:
  Basis Set: 6-31G*
  Basis Set:
  @DF-RHF Final Energy:  -270.03028998956688
    Total Energy =                       -270.0302899895669952
  Basis Set: 6-31G*
  Basis Set:
  Basis Set: 6-31G*
  Basis Set:
  @DF-RHF Final Energy:  -270.03030410118436
    Total Energy =                       -270.0303041011841856
  Basis Set: 6-31G*
  Basis Set:
  Basis Set: 6-31G*
  Basis Set:
  @DF-RHF Final Energy:  -270.03030728223689
    Total Energy =                       -270.0303072822367199
  Basis Set: 6-31G*
  Basis Set:
  Charge       = 0
  Multiplicity = 1
  Basis Set: 6-31G*
  Basis Set:

    Orbital Energies (a.u.)
    -----------------------

    Doubly Occupied:

       1A    -20.548548     2A    -11.323117     3A    -11.233593
       4A    -11.233061     5A    -11.229155     6A    -11.213078
       7A     -1.394223     8A     -1.073068     9A     -1.034979
      10A     -0.908378    11A     -0.864872    12A     -0.723275
      13A     -0.659473    14A     -0.641194    15A     -0.631113
      16A     -0.608544    17A     -0.555566    18A     -0.543533
      19A     -0.534239    20A     -0.510498    21A     -0.506092
      22A     -0.496950    23A     -0.477843    24A     -0.396581

  @DF-RHF Final Energy:  -270.03030825453345

   => Energetics <=

    Nuclear Repulsion Energy =            240.5055594452801131
    One-Electron Energy =                -842.3897892758164971
    Two-Electron Energy =                 331.8539215760030174
    DFT Exchange-Correlation Energy =       0.0000000000000000
    Empirical Dispersion Energy =           0.0000000000000000
    PCM Polarization Energy =               0.0000000000000000
    EFP Energy =                            0.0000000000000000
    Total Energy =                       -270.0303082545333382
    Molecular point group: c1
  Basis Set: 6-31G*
  Basis Set:

  -Total Gradient:
     Atom            X                  Y                   Z
    ------   -----------------  -----------------  -----------------
       1        0.000013595360     0.000003031704     0.000005515855
       2        0.000009291349     0.000001910809     0.000002128963
       3        0.000275139283     0.000397368470     0.000525873563
       4       -0.000014986695     0.000006135318     0.000005836927
       5       -0.000004011356     0.000004159792     0.000001456330
       6       -0.000505878241    -0.000703350632    -0.000632606111
       7       -0.000009530189    -0.000004289831    -0.000007203657
       8        0.000020000351    -0.000018942324    -0.000009539113
       9        0.000649756110     0.000949646462    -0.000379513460
      10       -0.000008045658     0.000001085037    -0.000012299783
      11       -0.000002459259    -0.000004722260    -0.000007780483
      12       -0.000398881817    -0.000626689231     0.000511658681
      13       -0.000001495576    -0.000000119187     0.000004326490
      14       -0.000009150764     0.000005045549    -0.000002048541
      15       -0.000002647638    -0.000006552257    -0.000001104076
      16       -0.000010695263    -0.000003717419    -0.000004701588

  **** Optimization is complete! (in 8 steps) ****
    Final optimized geometry and variables:
    Molecular point group: c1

    Geometry (in Angstrom), charge = 0, multiplicity = 1:

    H           -2.426677437396     0.828092385223    -1.120387530106
    C           -1.688033256398     1.532152813829    -0.755792707142
    C           -0.303943873606     0.895833475456    -0.702500071255
    H           -2.003235027647     1.856188473268     0.227900219499
    H           -1.682094735236     2.393191676447    -1.416064488316
    C           -0.232217246821    -0.312374097970     0.215291759356
    H            0.432485133279     1.619011518138    -0.358810306212
    H            0.024545371318     0.594565315422    -1.695358329655
    C            1.027426168278    -1.164561882520     0.181210408773
    O           -1.141497672912    -0.606430856188     0.930478759773
    C            2.351460239022    -0.397906927982     0.127491398015
    H            0.945311383735    -1.816212492637    -0.687570892247
    H            0.991498519468    -1.804760660210     1.054038660593
    H            2.452835523272     0.181297897619    -0.783510592483
    H            3.182927891078    -1.092819376828     0.167011244203
    H            2.450079622394     0.279759554432     0.969919524930

  Mulliken Charges: (a.u.)
   Center  Symbol    Alpha    Beta     Spin     Total
       1     H     0.41265  0.41265  0.00000  0.17470
       2     C     3.23447  3.23447  0.00000 -0.46895
       3     C     3.21091  3.21091  0.00000 -0.42183
       4     H     0.40827  0.40827  0.00000  0.18347
       5     H     0.42039  0.42039  0.00000  0.15922
       6     C     2.73167  2.73167  0.00000  0.53666
       7     H     0.40530  0.40530  0.00000  0.18940
       8     H     0.41110  0.41110  0.00000  0.17780
       9     C     3.20257  3.20257  0.00000 -0.40514
      10     O     4.26482  4.26482  0.00000 -0.52963
      11     C     3.25072  3.25072  0.00000 -0.50144
      12     H     0.40755  0.40755  0.00000  0.18490
      13     H     0.39818  0.39818  0.00000  0.20364
      14     H     0.41638  0.41638  0.00000  0.16723
      15     H     0.41079  0.41079  0.00000  0.17842
      16     H     0.41424  0.41424  0.00000  0.17153

   Total alpha = 24.00000, Total beta = 24.00000, Total charge = -0.00000
