  ==> Input File <==

--------------------------------------------------------------------------
set {
	reference rhf
	basis 6-31G*
}

set_num_threads( 4 )
memory 2 gb

molecule MOL {
0 1

H	 -4.031818	 -0.453427	 -0.000094
C	 -2.967712	 -0.297022	 -0.000064
C	 -2.458620	 0.992929	 0.000032
C	 -2.109895	 -1.385637	 -0.000122
H	 -3.124998	 1.836319	 0.000077
C	 -1.090278	 1.193236	 0.000070
H	 -2.506361	 -2.384847	 -0.000198
C	 -0.739812	 -1.187531	 -0.000085
H	 -0.678594	 2.184290	 0.000146
C	 -0.226438	 0.104061	 0.000012
H	 -0.072310	 -2.027032	 -0.000131
C	 1.239129	 0.373821	 0.000060
O	 1.956970	 -0.658472	 0.416806
O	 1.725648	 1.407290	 -0.337729
C	 3.362994	 -0.488903	 0.448654
H	 3.740817	 -0.275581	 -0.540557
H	 3.763427	 -1.423287	 0.809809
H	 3.631817	 0.317715	 1.115005

	symmetry c1
}
set optking {
	frozen_dihedral = ("
		13 12 10 6
	")
}

ee = optimize('scf')
oeprop('DIPOLE', 'QUADRUPOLE', 'MULLIKEN_CHARGES')
f=open( 'psi4out.xyz', 'w' )
f.write( "18  " )
f.write( str(ee) + "\n" )
f.write( MOL.save_string_xyz() )
f.close()
--------------------------------------------------------------------------

    Molecular point group: c1
  Charge       = 0
  Multiplicity = 1
  Basis Set: 6-31G*
  Basis Set:
  @DF-RHF Final Energy:  -457.34952581969094
    Total Energy =                       -457.3495258196913937
    Molecular point group: c1
  Basis Set: 6-31G*
  Basis Set:
  Basis Set: 6-31G*
  Basis Set:
  @DF-RHF Final Energy:  -457.34836245739257
    Total Energy =                       -457.3483624573925681
  Basis Set: 6-31G*
  Basis Set:
  Basis Set: 6-31G*
  Basis Set:
  @DF-RHF Final Energy:  -457.34962217906468
    Total Energy =                       -457.3496221790647951
  Basis Set: 6-31G*
  Basis Set:
  Basis Set: 6-31G*
  Basis Set:
  @DF-RHF Final Energy:  -457.34964566200335
    Total Energy =                       -457.3496456620031267
  Basis Set: 6-31G*
  Basis Set:
  Charge       = 0
  Multiplicity = 1
  Basis Set: 6-31G*
  Basis Set:

    Orbital Energies (a.u.)
    -----------------------

    Doubly Occupied:

       1A    -20.608022     2A    -20.544945     3A    -11.377963
       4A    -11.283024     5A    -11.246059     6A    -11.244852
       7A    -11.244335     8A    -11.242133     9A    -11.237812
      10A    -11.237075    11A     -1.472972    12A     -1.364248
      13A     -1.165552    14A     -1.048307    15A     -1.025043
      16A     -0.978301    17A     -0.860215    18A     -0.834918
      19A     -0.778025    20A     -0.739532    21A     -0.683470
      22A     -0.677579    23A     -0.672624    24A     -0.630934
      25A     -0.624799    26A     -0.597698    27A     -0.585829
      28A     -0.559590    29A     -0.530244    30A     -0.516489
      31A     -0.504174    32A     -0.499719    33A     -0.458871
      34A     -0.444485    35A     -0.344606    36A     -0.341249

  @DF-RHF Final Energy:  -457.34964619582121

   => Energetics <=

    Nuclear Repulsion Energy =            492.9445929964976472
    One-Electron Energy =               -1600.1770927450111230
    Two-Electron Energy =                 649.8828535526922678
    DFT Exchange-Correlation Energy =       0.0000000000000000
    Empirical Dispersion Energy =           0.0000000000000000
    PCM Polarization Energy =               0.0000000000000000
    EFP Energy =                            0.0000000000000000
    Total Energy =                       -457.3496461958211512
    Molecular point group: c1
  Basis Set: 6-31G*
  Basis Set:

  -Total Gradient:
     Atom            X                  Y                   Z
    ------   -----------------  -----------------  -----------------
       1       -0.000000937714     0.000002462521     0.000012403624
       2        0.000004645569    -0.000028857241    -0.000039522927
       3        0.000025726861     0.000019466629     0.000017363343
       4       -0.000024924313     0.000005431226    -0.000001715896
       5        0.000000193586    -0.000000709708    -0.000006333083
       6       -0.000035766319    -0.000007534407     0.002525787794
       7        0.000002613286    -0.000000686891     0.000003114245
       8        0.000017854517     0.000004603136     0.000031391848
       9        0.000004281826    -0.000002289112     0.000004204738
      10        0.000000352233     0.000289474191    -0.002786635473
      11       -0.000006945838     0.000004674004    -0.000027645777
      12        0.000231435988    -0.001125383503    -0.002128624637
      13       -0.000186607915     0.000828188444     0.002455245837
      14       -0.000021179600     0.000023233160    -0.000010229861
      15       -0.000002494390    -0.000031676829    -0.000120474575
      16        0.000020014189    -0.000002135944     0.000032468480
      17       -0.000003931314     0.000003549403     0.000020357089
      18       -0.000024330648     0.000018190915     0.000018845229

  **** Optimization is complete! (in 5 steps) ****
    Final optimized geometry and variables:
    Molecular point group: c1

    Geometry (in Angstrom), charge = 0, multiplicity = 1:

    H           -4.027324857922    -0.469933908298    -0.049571904703
    C           -2.963641267382    -0.311286763051    -0.056278251728
    C           -2.457265851128     0.979582345163    -0.060042957680
    C           -2.103435396802    -1.398150541677    -0.057695058794
    H           -3.125335608130     1.821655085636    -0.053333538634
    C           -1.089214250087     1.183092823164    -0.073446891191
    H           -2.497765184708    -2.398183117762    -0.053570490116
    C           -0.733897843322    -1.196766765492    -0.057438712844
    H           -0.680623868840     2.175573781872    -0.085365787620
    C           -0.223940411408     0.095705493289    -0.076912488606
    H           -0.064081147759    -2.034799090856    -0.045666328799
    C            1.241579101368     0.366043726293    -0.064352457874
    O            1.953707276767    -0.671483662811     0.348859005093
    O            1.728500171114     1.411131421333    -0.362900744590
    C            3.360226569426    -0.507157162122     0.387619465207
    H            3.743549927060    -0.280167159447    -0.596578946260
    H            3.756115099762    -1.447841954132     0.737067749959
    H            3.628210341417     0.288685535019     1.066985149966

  Mulliken Charges: (a.u.)
   Center  Symbol    Alpha    Beta     Spin     Total
       1     H     0.39549  0.39549  0.00000  0.20902
       2     C     3.09063  3.09063  0.00000 -0.18125
       3     C     3.10645  3.10645  0.00000 -0.21290
       4     C     3.10683  3.10683  0.00000 -0.21366
       5     H     0.39538  0.39538  0.00000  0.20924
       6     C     3.08850  3.08850  0.00000 -0.17700
       7     H     0.39619  0.39619  0.00000  0.20761
       8     C     3.08782  3.08782  0.00000 -0.17564
       9     H     0.37742  0.37742  0.00000  0.24517
      10     C     3.06546  3.06546  0.00000 -0.13092
      11     H     0.38214  0.38214  0.00000  0.23572
      12     C     2.59075  2.59075  0.00000  0.81849
      13     O     4.31082  4.31082  0.00000 -0.62165
      14     O     4.29035  4.29035  0.00000 -0.58070
      15     C     3.09304  3.09304  0.00000 -0.18608
      16     H     0.40786  0.40786  0.00000  0.18429
      17     H     0.40776  0.40776  0.00000  0.18447
      18     H     0.40710  0.40710  0.00000  0.18580

   Total alpha = 36.00000, Total beta = 36.00000, Total charge = -0.00000
