  ==> Input File <==

--------------------------------------------------------------------------
set {
	reference rhf
	basis cc-pvtz
}

set_num_threads( 4 )
memory 2 gb

molecule MOL {
0 1

H	 -0.366580	 2.045936	 -0.305741
C	 0.351829	 1.335402	 0.083179
N	 -0.000018	 0.000080	 -0.334836
H	 1.327156	 1.599860	 -0.305475
H	 0.380566	 1.445403	 1.171445
C	 -0.467192	 -0.805150	 0.767767
C	 -0.936248	 0.007054	 -1.432864
H	 -0.655043	 -1.817359	 0.432750
H	 0.287749	 -0.844548	 1.542814
H	 -1.389230	 -0.420003	 1.213388
H	 -0.524251	 0.561267	 -2.266704
H	 -1.123806	 -1.006045	 -1.765395
H	 -1.896778	 0.459326	 -1.168398

	symmetry c1
}
set optking {
	frozen_dihedral = ("
		6 3 2 1
	")
}

ee = optimize('scf')
oeprop('DIPOLE', 'QUADRUPOLE', 'MULLIKEN_CHARGES')
f=open( 'psi4out.xyz', 'w' )
f.write( "13  " )
f.write( str(ee) + "\n" )
f.write( MOL.save_string_xyz() )
f.close()
--------------------------------------------------------------------------

    Molecular point group: c1
  Charge       = 0
  Multiplicity = 1
  Basis Set: CC-PVTZ
  Basis Set:
  @DF-RHF Final Energy:  -173.32755278672099
    Total Energy =                       -173.3275527867209007
    Molecular point group: c1
  Basis Set: CC-PVTZ
  Basis Set:
  Basis Set: CC-PVTZ
  Basis Set:
  @DF-RHF Final Energy:  -173.32841338493111
    Total Energy =                       -173.3284133849310820
  Basis Set: CC-PVTZ
  Basis Set:
  Basis Set: CC-PVTZ
  Basis Set:
  @DF-RHF Final Energy:  -173.32856903987576
    Total Energy =                       -173.3285690398758447
  Basis Set: CC-PVTZ
  Basis Set:
  Basis Set: CC-PVTZ
  Basis Set:
  @DF-RHF Final Energy:  -173.32858411088162
    Total Energy =                       -173.3285841108817635
  Basis Set: CC-PVTZ
  Basis Set:
  Charge       = 0
  Multiplicity = 1
  Basis Set: CC-PVTZ
  Basis Set:

    Orbital Energies (a.u.)
    -----------------------

    Doubly Occupied:

       1A    -15.534573     2A    -11.234175     3A    -11.234070
       4A    -11.233857     5A     -1.221632     6A     -0.952818
       7A     -0.951989     8A     -0.805849     9A     -0.638247
      10A     -0.630644    11A     -0.629018    12A     -0.548590
      13A     -0.545047    14A     -0.515700    15A     -0.503287
      16A     -0.502171    17A     -0.339487

  @DF-RHF Final Energy:  -173.32858537756610

   => Energetics <=

    Nuclear Repulsion Energy =            138.9332623749283755
    One-Electron Energy =                -508.4813830662027385
    Two-Electron Energy =                 196.2195353137082066
    DFT Exchange-Correlation Energy =       0.0000000000000000
    Empirical Dispersion Energy =           0.0000000000000000
    PCM Polarization Energy =               0.0000000000000000
    EFP Energy =                            0.0000000000000000
    Total Energy =                       -173.3285853775661280
    Molecular point group: c1
  Basis Set: CC-PVTZ
  Basis Set:

  -Total Gradient:
     Atom            X                  Y                   Z
    ------   -----------------  -----------------  -----------------
       1        0.001952929050     0.000352706101    -0.003222614427
       2       -0.001381579835    -0.000751482312     0.004337388278
       3       -0.003281166326     0.001311594140    -0.001470466661
       4       -0.000025887218    -0.000006504984    -0.000020507754
       5       -0.000000908303    -0.000026711535    -0.000005602374
       6        0.002729311205    -0.000886035728     0.000417446728
       7        0.000017326128     0.000036163077    -0.000030247639
       8       -0.000004026524     0.000001914635     0.000003210467
       9       -0.000002634820    -0.000018923531     0.000024890107
      10        0.000008134832    -0.000004009950    -0.000015140026
      11       -0.000019026786    -0.000001888471    -0.000019427655
      12       -0.000003651252    -0.000000208984    -0.000008273160
      13        0.000011179849    -0.000006612459     0.000009344118

  **** Optimization is complete! (in 5 steps) ****
    Final optimized geometry and variables:
    Molecular point group: c1

    Geometry (in Angstrom), charge = 0, multiplicity = 1:

    H           -0.054417147057     1.965242302291    -0.044582100063
    C            0.648858781479     1.207927970981     0.297324840502
    N            0.246641559140    -0.129865785316    -0.094020420072
    H            1.613034712628     1.460664293570    -0.133200496123
    H            0.736851438390     1.289750377647     1.372432245216
    C           -0.189655176827    -0.961311094574     0.998746771396
    C           -0.643504464948    -0.149740672260    -1.224741388175
    H           -0.364794656665    -1.969598175975     0.644085316941
    H            0.579342249341    -1.008872892535     1.758871897424
    H           -1.112087201913    -0.609931219405     1.472484119258
    H           -0.208159211396     0.402966961230    -2.048362562702
    H           -0.799799117656    -1.168356868757    -1.557676627303
    H           -1.622456509301     0.289047564681    -1.007015897618

  Mulliken Charges: (a.u.)
   Center  Symbol    Alpha    Beta     Spin     Total
       1     H     0.46688  0.46688  0.00000  0.06623
       2     C     3.08601  3.08601  0.00000 -0.17202
       3     N     3.59826  3.59826  0.00000 -0.19651
       4     H     0.45169  0.45169  0.00000  0.09663
       5     H     0.45785  0.45785  0.00000  0.08429
       6     C     3.08925  3.08925  0.00000 -0.17850
       7     C     3.09008  3.09008  0.00000 -0.18016
       8     H     0.45372  0.45372  0.00000  0.09256
       9     H     0.45264  0.45264  0.00000  0.09473
      10     H     0.47392  0.47392  0.00000  0.05216
      11     H     0.45245  0.45245  0.00000  0.09510
      12     H     0.45379  0.45379  0.00000  0.09241
      13     H     0.47347  0.47347  0.00000  0.05307

   Total alpha = 17.00000, Total beta = 17.00000, Total charge = -0.00000
