  ==> Input File <==

--------------------------------------------------------------------------
set {
	reference rhf
	basis 6-31G*
}

set_num_threads( 1 )
memory 2 gb

molecule MOL {
0 1

O	 0.749854	 1.307668	 -0.000040
C	 0.576249	 0.131685	 -0.000108
C	 -0.766779	 -0.556801	 -0.000461
O	 1.568443	 -0.749345	 -0.000005
C	 -1.945214	 0.412366	 0.000161
H	 -0.796911	 -1.211249	 -0.867467
H	 -0.796854	 -1.212390	 0.865687
C	 -3.287791	 -0.317055	 0.000105
H	 -1.876087	 1.060580	 -0.866812
H	 -1.875822	 1.059691	 0.867761
H	 -3.394745	 -0.949193	 -0.877058
H	 -4.111778	 0.388953	 0.000015
H	 -3.394954	 -0.949187	 0.877259
C	 1.261775	 -2.062674	 -0.431663
H	 0.506875	 -2.504561	 0.202690
H	 2.183085	 -2.619389	 -0.360091
H	 0.907560	 -2.054236	 -1.452433

	symmetry c1
}
set optking {
	frozen_dihedral = ("
		1 2 3 6,
		9 5 3 6
	")
}

ee = energy('scf')
oeprop('DIPOLE', 'QUADRUPOLE', 'MULLIKEN_CHARGES')
f=open( 'psi4out.xyz', 'w' )
f.write( "17  " )
f.write( str(ee) + "\n" )
f.write( MOL.save_string_xyz() )
f.close()
--------------------------------------------------------------------------

    Molecular point group: c1

    Geometry (in Angstrom), charge = 0, multiplicity = 1:

       Center              X                  Y                   Z               Mass
    ------------   -----------------  -----------------  -----------------  -----------------
           O          1.000752932369     1.590231903660     0.066654333974    15.994914619560
           C          0.827147932369     0.414248903660     0.066586333974    12.000000000000
           C         -0.515880067631    -0.274237096340     0.066233333974    12.000000000000
           O          1.819341932369    -0.466781096340     0.066689333974    15.994914619560
           C         -1.694315067631     0.694929903660     0.066855333974    12.000000000000
           H         -0.546012067631    -0.928685096340    -0.800772666026     1.007825032070
           H         -0.545955067631    -0.929826096340     0.932381333974     1.007825032070
           C         -3.036892067631    -0.034491096340     0.066799333974    12.000000000000
           H         -1.625188067631     1.343143903660    -0.800117666026     1.007825032070
           H         -1.624923067631     1.342254903660     0.934455333974     1.007825032070
           H         -3.143846067631    -0.666629096340    -0.810363666026     1.007825032070
           H         -3.860879067631     0.671516903660     0.066709333974     1.007825032070
           H         -3.144055067631    -0.666623096340     0.943953333974     1.007825032070
           C          1.512673932369    -1.780110096340    -0.364968666026    12.000000000000
           H          0.757773932369    -2.221997096340     0.269384333974     1.007825032070
           H          2.433983932369    -2.336825096340    -0.293396666026     1.007825032070
           H          1.158458932369    -1.771672096340    -1.385738666026     1.007825032070

  Charge       = 0
  Multiplicity = 1
  Basis Set: 6-31G*
  Basis Set:

    Orbital Energies (a.u.)
    -----------------------

    Doubly Occupied:

       1A    -20.606463     2A    -20.545220     3A    -11.375204
       4A    -11.297876     5A    -11.242785     6A    -11.225943
       7A    -11.218997     8A     -1.468542     9A     -1.369670
      10A     -1.084362    11A     -0.989693    12A     -0.977515
      13A     -0.844196    14A     -0.763534    15A     -0.706884
      16A     -0.697767    17A     -0.678037    18A     -0.638689
      19A     -0.605759    20A     -0.579993    21A     -0.570433
      22A     -0.553157    23A     -0.534111    24A     -0.499135
      25A     -0.490811    26A     -0.484592    27A     -0.451790
      28A     -0.430594

  @DF-RHF Final Energy:  -344.88055669958379

   => Energetics <=

    Nuclear Repulsion Energy =            317.3662486872692057
    One-Electron Energy =               -1098.6301740747164786
    Two-Electron Energy =                 436.3833686878632534
    DFT Exchange-Correlation Energy =       0.0000000000000000
    Empirical Dispersion Energy =           0.0000000000000000
    PCM Polarization Energy =               0.0000000000000000
    EFP Energy =                            0.0000000000000000
    Total Energy =                       -344.8805566995839627

  Mulliken Charges: (a.u.)
   Center  Symbol    Alpha    Beta     Spin     Total
       1     O     4.27163  4.27163  0.00000 -0.54327
       2     C     2.59047  2.59047  0.00000  0.81907
       3     C     3.24443  3.24443  0.00000 -0.48886
       4     O     4.30046  4.30046  0.00000 -0.60093
       5     C     3.14753  3.14753  0.00000 -0.29506
       6     H     0.40334  0.40334  0.00000  0.19332
       7     H     0.39950  0.39950  0.00000  0.20100
       8     C     3.24285  3.24285  0.00000 -0.48570
       9     H     0.40951  0.40951  0.00000  0.18098
      10     H     0.40857  0.40857  0.00000  0.18286
      11     H     0.42280  0.42280  0.00000  0.15439
      12     H     0.41367  0.41367  0.00000  0.17266
      13     H     0.42210  0.42210  0.00000  0.15580
      14     C     3.10338  3.10338  0.00000 -0.20676
      15     H     0.41304  0.41304  0.00000  0.17391
      16     H     0.39564  0.39564  0.00000  0.20872
      17     H     0.41106  0.41106  0.00000  0.17787

   Total alpha = 28.00000, Total beta = 28.00000, Total charge = -0.00000
