  ==> Input File <==

--------------------------------------------------------------------------
set {
	reference rhf
	basis 6-31G*
}

set_num_threads( 4 )
memory 2 gb

molecule MOL {
0 1

H	 2.911820	 -0.256008	 1.972176
O	 1.992048	 -0.458483	 2.070313
C	 1.274963	 0.032683	 1.036420
C	 1.861081	 0.735781	 -0.008291
C	 -0.091579	 -0.186316	 1.042231
H	 2.924733	 0.905114	 -0.010889
C	 1.081110	 1.218974	 -1.045518
H	 -0.545574	 -0.729245	 1.848576
C	 -0.865228	 0.300799	 0.000000
H	 1.545991	 1.761650	 -1.848491
C	 -0.285358	 1.004745	 -1.047847
C	 -2.333960	 0.069074	 0.000000
H	 -0.893100	 1.379171	 -1.852496
O	 -2.847347	 -1.003763	 0.000000
H	 -2.943845	 0.977528	 0.000000

	symmetry c1
}
set optking {
	frozen_dihedral = ("
		11 9 12 14
	")
}

ee = optimize('scf')
oeprop('DIPOLE', 'QUADRUPOLE', 'MULLIKEN_CHARGES')
f=open( 'psi4out.xyz', 'w' )
f.write( "15  " )
f.write( str(ee) + "\n" )
f.write( MOL.save_string_xyz() )
f.close()
--------------------------------------------------------------------------

    Molecular point group: c1
  Charge       = 0
  Multiplicity = 1
  Basis Set: 6-31G*
  Basis Set:
  @DF-RHF Final Energy:  -418.27661790171078
    Total Energy =                       -418.2766179017108925
    Molecular point group: c1
  Basis Set: 6-31G*
  Basis Set:
  Basis Set: 6-31G*
  Basis Set:
  @DF-RHF Final Energy:  -418.27519269075680
    Total Energy =                       -418.2751926907567395
  Basis Set: 6-31G*
  Basis Set:
  Basis Set: 6-31G*
  Basis Set:
  @DF-RHF Final Energy:  -418.27711056664663
    Total Energy =                       -418.2771105666465701
  Basis Set: 6-31G*
  Basis Set:
  Basis Set: 6-31G*
  Basis Set:
  @DF-RHF Final Energy:  -418.27724870081119
    Total Energy =                       -418.2772487008113558
  Basis Set: 6-31G*
  Basis Set:
  Basis Set: 6-31G*
  Basis Set:
  @DF-RHF Final Energy:  -418.27725052373921
    Total Energy =                       -418.2772505237398946
  Basis Set: 6-31G*
  Basis Set:
  Charge       = 0
  Multiplicity = 1
  Basis Set: 6-31G*
  Basis Set:

    Orbital Energies (a.u.)
    -----------------------

    Doubly Occupied:

       1A    -20.601972     2A    -20.570799     3A    -11.335542
       4A    -11.312760     5A    -11.255546     6A    -11.252281
       7A    -11.244070     8A    -11.242145     9A    -11.239283
      10A     -1.421774    11A     -1.410207    12A     -1.168003
      13A     -1.047504    14A     -1.024728    15A     -0.898907
      16A     -0.842964    17A     -0.816037    18A     -0.737201
      19A     -0.700498    20A     -0.681506    21A     -0.651175
      22A     -0.638957    23A     -0.613153    24A     -0.600297
      25A     -0.579745    26A     -0.544713    27A     -0.532010
      28A     -0.513244    29A     -0.489657    30A     -0.423582
      31A     -0.352825    32A     -0.324021

  @DF-RHF Final Energy:  -418.27725109087788

   => Energetics <=

    Nuclear Repulsion Energy =            402.6122568040622696
    One-Electron Energy =               -1367.6448060941320364
    Two-Electron Energy =                 546.7552981991927936
    DFT Exchange-Correlation Energy =       0.0000000000000000
    Empirical Dispersion Energy =           0.0000000000000000
    PCM Polarization Energy =               0.0000000000000000
    EFP Energy =                            0.0000000000000000
    Total Energy =                       -418.2772510908769164
    Molecular point group: c1
  Basis Set: 6-31G*
  Basis Set:

  -Total Gradient:
     Atom            X                  Y                   Z
    ------   -----------------  -----------------  -----------------
       1       -0.000007260488     0.000022230984     0.000003728837
       2        0.000007356362    -0.000005916105    -0.000026338854
       3       -0.000040051532    -0.000046095813     0.000008458405
       4       -0.000016161524     0.000060048766    -0.000014815486
       5        0.000067235833     0.000003115192     0.000038561785
       6        0.000006000845    -0.000012882892    -0.000000523021
       7        0.000087824190    -0.000022104279     0.000022242839
       8       -0.000006926568     0.000015674789    -0.000005588158
       9       -0.001342762792     0.006773695195     0.000639942631
      10        0.000000698758    -0.000003385166     0.000004934209
      11        0.000877055629    -0.004764476349    -0.002486009994
      12        0.000190818696    -0.001775888529     0.008543952920
      13       -0.000002743024    -0.000001324217    -0.000000830244
      14        0.000180875378    -0.000220382318    -0.006720959825
      15       -0.000001959753    -0.000022309257    -0.000006756048

  **** Optimization is complete! (in 6 steps) ****
    Final optimized geometry and variables:
    Molecular point group: c1

    Geometry (in Angstrom), charge = 0, multiplicity = 1:

    H            2.937125767059    -0.447765898171     1.676362857113
    O            2.012695091258    -0.618636686825     1.790499445653
    C            1.298989963907    -0.119345867196     0.759086124972
    C            1.886578927802     0.570279917009    -0.290215997332
    C           -0.072349786215    -0.328024694079     0.772966530800
    H            2.952388645687     0.723813618951    -0.304899719572
    C            1.099308618175     1.056726960126    -1.321724879639
    H           -0.510701059722    -0.890076308709     1.575906162240
    C           -0.852017445349     0.188341080956    -0.246455909514
    H            1.563560481303     1.578936938034    -2.138645529080
    C           -0.271008193367     0.875788124480    -1.305964854628
    C           -2.321868333612    -0.091482087807    -0.276451332673
    H           -0.878936291824     1.261384666428    -2.105182595285
    O           -2.783495346431    -1.185643422727    -0.252214200038
    H           -2.970361705984     0.782071534543    -0.389962224586

  Mulliken Charges: (a.u.)
   Center  Symbol    Alpha    Beta     Spin     Total
       1     H     0.27032  0.27032  0.00000  0.45936
       2     O     4.37601  4.37601  0.00000 -0.75201
       3     C     2.79291  2.79291  0.00000  0.41418
       4     C     3.13985  3.13985  0.00000 -0.27970
       5     C     3.11948  3.11948  0.00000 -0.23896
       6     H     0.40019  0.40019  0.00000  0.19961
       7     C     3.09033  3.09033  0.00000 -0.18067
       8     H     0.37952  0.37952  0.00000  0.24096
       9     C     3.02675  3.02675  0.00000 -0.05350
      10     H     0.39358  0.39358  0.00000  0.21284
      11     C     3.11793  3.11793  0.00000 -0.23585
      12     C     2.85036  2.85036  0.00000  0.29929
      13     H     0.39440  0.39440  0.00000  0.21120
      14     O     4.22553  4.22553  0.00000 -0.45106
      15     H     0.42284  0.42284  0.00000  0.15431

   Total alpha = 32.00000, Total beta = 32.00000, Total charge = -0.00000
