  ==> Input File <==

--------------------------------------------------------------------------
set {
	reference rhf
	basis 6-31G*
}

set_num_threads( 1 )
memory 2 gb

molecule MOL {
0 1

O	 1.712526	 1.529354	 0.440046
C	 1.304218	 0.811881	 1.295403
C	 -0.011336	 0.072666	 1.268093
O	 1.974256	 0.559481	 2.412756
C	 -0.823008	 0.326187	 0.001381
H	 0.207737	 -0.984580	 1.390372
H	 -0.565893	 0.363940	 2.155980
C	 -2.149452	 -0.435131	 -0.000098
H	 -0.233192	 0.041462	 -0.864203
H	 -1.008612	 1.391141	 -0.097284
C	 -3.368779	 0.488503	 -0.000883
H	 -2.193746	 -1.087250	 -0.871175
H	 -2.195311	 -1.087803	 0.870418
C	 -4.693822	 -0.272754	 -0.001129
H	 -3.325798	 1.139422	 -0.871284
H	 -3.326423	 1.139959	 0.869145
H	 -4.781274	 -0.907928	 -0.878124
H	 -5.538651	 0.408946	 -0.001420
H	 -4.781694	 -0.907783	 0.875984
C	 3.231980	 1.191941	 2.564681
H	 3.904509	 0.895611	 1.772581
H	 3.612712	 0.866033	 3.520036
H	 3.120896	 2.266661	 2.552689

	symmetry c1
}
set optking {
	frozen_dihedral = ("
		15 11 8 12,
		1 2 3 6,
		9 5 3 6,
		1 2 4 20
	")
}

ee = energy('scf')
oeprop('DIPOLE', 'QUADRUPOLE', 'MULLIKEN_CHARGES')
f=open( 'psi4out.xyz', 'w' )
f.write( "23  " )
f.write( str(ee) + "\n" )
f.write( MOL.save_string_xyz() )
f.close()
--------------------------------------------------------------------------

    Molecular point group: c1

    Geometry (in Angstrom), charge = 0, multiplicity = 1:

       Center              X                  Y                   Z               Mass
    ------------   -----------------  -----------------  -----------------  -----------------
           O          1.992244549891     1.043757771395    -0.464377845854    15.994914619560
           C          1.583936549891     0.326284771395     0.390979154146    12.000000000000
           C          0.268382549891    -0.412930228605     0.363669154146    12.000000000000
           O          2.253974549891     0.073884771395     1.508332154146    15.994914619560
           C         -0.543289450109    -0.159409228605    -0.903042845854    12.000000000000
           H          0.487455549891    -1.470176228605     0.485948154146     1.007825032070
           H         -0.286174450109    -0.121656228605     1.251556154146     1.007825032070
           C         -1.869733450109    -0.920727228605    -0.904521845854    12.000000000000
           H          0.046526549891    -0.444134228605    -1.768626845854     1.007825032070
           H         -0.728893450109     0.905544771395    -1.001707845854     1.007825032070
           C         -3.089060450109     0.002906771395    -0.905306845854    12.000000000000
           H         -1.914027450109    -1.572846228605    -1.775598845854     1.007825032070
           H         -1.915592450109    -1.573399228605    -0.034005845854     1.007825032070
           C         -4.414103450109    -0.758350228605    -0.905552845854    12.000000000000
           H         -3.046079450109     0.653825771395    -1.775707845854     1.007825032070
           H         -3.046704450109     0.654362771395    -0.035278845854     1.007825032070
           H         -4.501555450109    -1.393524228605    -1.782547845854     1.007825032070
           H         -5.258932450109    -0.076650228605    -0.905843845854     1.007825032070
           H         -4.501975450109    -1.393379228605    -0.028439845854     1.007825032070
           C          3.511698549891     0.706344771395     1.660257154146    12.000000000000
           H          4.184227549891     0.410014771395     0.868157154146     1.007825032070
           H          3.892430549891     0.380436771395     2.615612154146     1.007825032070
           H          3.400614549891     1.781064771395     1.648265154146     1.007825032070

  Charge       = 0
  Multiplicity = 1
  Basis Set: 6-31G*
  Basis Set:

    Orbital Energies (a.u.)
    -----------------------

    Doubly Occupied:

       1A    -20.603437     2A    -20.545321     3A    -11.371714
       4A    -11.280731     5A    -11.235853     6A    -11.217627
       7A    -11.217517     8A    -11.216073     9A    -11.209605
      10A     -1.469141    11A     -1.362580    12A     -1.093802
      13A     -1.043000    14A     -0.986874    15A     -0.932050
      16A     -0.845008    17A     -0.794804    18A     -0.767436
      19A     -0.700192    20A     -0.682323    21A     -0.672317
      22A     -0.638086    23A     -0.619940    24A     -0.598776
      25A     -0.572852    26A     -0.559534    27A     -0.556094
      28A     -0.528053    29A     -0.521130    30A     -0.499304
      31A     -0.493974    32A     -0.471201    33A     -0.464059
      34A     -0.458248    35A     -0.451363    36A     -0.435069

  @DF-RHF Final Energy:  -422.97057247369128

   => Energetics <=

    Nuclear Repulsion Energy =            454.4318456606459904
    One-Electron Energy =               -1476.5747823921226427
    Two-Electron Energy =                 599.1723642577871942
    DFT Exchange-Correlation Energy =       0.0000000000000000
    Empirical Dispersion Energy =           0.0000000000000000
    PCM Polarization Energy =               0.0000000000000000
    EFP Energy =                            0.0000000000000000
    Total Energy =                       -422.9705724736894581

  Mulliken Charges: (a.u.)
   Center  Symbol    Alpha    Beta     Spin     Total
       1     O     4.28593  4.28593  0.00000 -0.57187
       2     C     2.60568  2.60568  0.00000  0.78864
       3     C     3.21062  3.21062  0.00000 -0.42124
       4     O     4.30739  4.30739  0.00000 -0.61479
       5     C     3.15520  3.15520  0.00000 -0.31040
       6     H     0.39998  0.39998  0.00000  0.20003
       7     H     0.40070  0.40070  0.00000  0.19860
       8     C     3.15658  3.15658  0.00000 -0.31317
       9     H     0.40929  0.40929  0.00000  0.18143
      10     H     0.40886  0.40886  0.00000  0.18228
      11     C     3.15375  3.15375  0.00000 -0.30750
      12     H     0.41888  0.41888  0.00000  0.16224
      13     H     0.42235  0.42235  0.00000  0.15530
      14     C     3.24020  3.24020  0.00000 -0.48040
      15     H     0.42001  0.42001  0.00000  0.15998
      16     H     0.42344  0.42344  0.00000  0.15312
      17     H     0.42121  0.42121  0.00000  0.15759
      18     H     0.41877  0.41877  0.00000  0.16245
      19     H     0.42199  0.42199  0.00000  0.15603
      20     C     3.09246  3.09246  0.00000 -0.18492
      21     H     0.40907  0.40907  0.00000  0.18185
      22     H     0.40850  0.40850  0.00000  0.18300
      23     H     0.40913  0.40913  0.00000  0.18173

   Total alpha = 36.00000, Total beta = 36.00000, Total charge = -0.00000
