  ==> Input File <==

--------------------------------------------------------------------------
set {
	reference rhf
	basis 6-31G*
}

set_num_threads( 1 )
memory 2 gb

molecule MOL {
0 1

H	 -1.395148	 -1.279591	 0.432354
O	 -1.422729	 -0.573567	 -0.196946
C	 -0.731407	 0.539437	 0.309156
C	 0.680193	 0.672443	 -0.251532
H	 -1.319765	 1.404033	 0.030086
H	 -0.700012	 0.506517	 1.397677
C	 1.599139	 -0.492137	 0.118598
H	 0.616402	 0.758534	 -1.332349
H	 1.107032	 1.602637	 0.117369
H	 1.239738	 -1.428634	 -0.297334
H	 2.601428	 -0.335055	 -0.265730
H	 1.674954	 -0.608418	 1.197020

	symmetry c1
}
set optking {
	frozen_dihedral = ("
		8 4 3 2
	")
}

ee = energy('scf')
oeprop('DIPOLE', 'QUADRUPOLE', 'MULLIKEN_CHARGES')
f=open( 'psi4out.xyz', 'w' )
f.write( "12  " )
f.write( str(ee) + "\n" )
f.write( MOL.save_string_xyz() )
f.close()
--------------------------------------------------------------------------

    Molecular point group: c1

    Geometry (in Angstrom), charge = 0, multiplicity = 1:

       Center              X                  Y                   Z               Mass
    ------------   -----------------  -----------------  -----------------  -----------------
           H         -1.389707015006    -1.281050193016     0.428130856741     1.007825032070
           O         -1.417288015006    -0.575026193016    -0.201169143259    15.994914619560
           C         -0.725966015006     0.537977806984     0.304932856741    12.000000000000
           C          0.685633984994     0.670983806984    -0.255755143259    12.000000000000
           H         -1.314324015006     1.402573806984     0.025862856741     1.007825032070
           H         -0.694571015006     0.505057806984     1.393453856741     1.007825032070
           C          1.604579984994    -0.493596193016     0.114374856741    12.000000000000
           H          0.621842984994     0.757074806984    -1.336572143259     1.007825032070
           H          1.112472984994     1.601177806984     0.113145856741     1.007825032070
           H          1.245178984994    -1.430093193016    -0.301557143259     1.007825032070
           H          2.606868984994    -0.336514193016    -0.269953143259     1.007825032070
           H          1.680394984994    -0.609877193016     1.192796856741     1.007825032070

  Charge       = 0
  Multiplicity = 1
  Basis Set: 6-31G*
  Basis Set:

    Orbital Energies (a.u.)
    -----------------------

    Doubly Occupied:

       1A    -20.553080     2A    -11.268098     3A    -11.215947
       4A    -11.211745     5A     -1.360122     6A     -1.048163
       7A     -0.923774     8A     -0.804564     9A     -0.702612
      10A     -0.634393    11A     -0.596316    12A     -0.586393
      13A     -0.526818    14A     -0.513548    15A     -0.490093
      16A     -0.467814    17A     -0.427830

  @DF-RHF Final Energy:  -193.10909144171777

   => Energetics <=

    Nuclear Repulsion Energy =            132.8452825215600512
    One-Electron Energy =                -525.2460927478284702
    Two-Electron Energy =                 199.2917187845508522
    DFT Exchange-Correlation Energy =       0.0000000000000000
    Empirical Dispersion Energy =           0.0000000000000000
    PCM Polarization Energy =               0.0000000000000000
    EFP Energy =                            0.0000000000000000
    Total Energy =                       -193.1090914417175384

  Mulliken Charges: (a.u.)
   Center  Symbol    Alpha    Beta     Spin     Total
       1     H     0.27980  0.27980  0.00000  0.44040
       2     O     4.37027  4.37027  0.00000 -0.74054
       3     C     2.99911  2.99911  0.00000  0.00178
       4     C     3.15696  3.15696  0.00000 -0.31392
       5     H     0.41710  0.41710  0.00000  0.16580
       6     H     0.43275  0.43275  0.00000  0.13450
       7     C     3.24729  3.24729  0.00000 -0.49458
       8     H     0.41439  0.41439  0.00000  0.17122
       9     H     0.42445  0.42445  0.00000  0.15109
      10     H     0.41563  0.41563  0.00000  0.16873
      11     H     0.41660  0.41660  0.00000  0.16681
      12     H     0.42565  0.42565  0.00000  0.14871

   Total alpha = 17.00000, Total beta = 17.00000, Total charge =  0.00000
