  ==> Input File <==

--------------------------------------------------------------------------
set {
	reference rhf
	basis cc-pvtz
}

set_num_threads( 4 )
memory 2 gb

molecule MOL {
0 1

H	 -3.294565	 0.569785	 0.000000
C	 -2.246225	 0.343737	 0.000000
C	 -1.809462	 -0.973484	 0.000000
C	 -1.312577	 1.353775	 0.000000
H	 -2.523539	 -1.775124	 0.000000
C	 -0.467257	 -1.267606	 0.000000
H	 -1.631287	 2.379013	 0.000000
C	 0.046966	 1.074396	 0.000000
H	 -0.119372	 -2.281828	 0.000000
C	 0.471772	 -0.241514	 0.000000
H	 0.748162	 1.882966	 0.000000
O	 1.760432	 -0.625184	 0.000000
C	 2.206709	 -1.569059	 -0.926335
H	 1.692957	 -2.516533	 -0.807760
H	 3.258034	 -1.712525	 -0.732682
H	 2.079491	 -1.218256	 -1.944402

	symmetry c1
}
set optking {
	frozen_dihedral = ("
		13 12 10 8
	")
}

ee = optimize('scf')
oeprop('DIPOLE', 'QUADRUPOLE', 'MULLIKEN_CHARGES')
f=open( 'psi4out.xyz', 'w' )
f.write( "16  " )
f.write( str(ee) + "\n" )
f.write( MOL.save_string_xyz() )
f.close()
--------------------------------------------------------------------------

    Molecular point group: c1
  Charge       = 0
  Multiplicity = 1
  Basis Set: CC-PVTZ
  Basis Set:
  @DF-RHF Final Energy:  -344.69619778220203
    Total Energy =                       -344.6961977822020913
    Molecular point group: c1
  Basis Set: CC-PVTZ
  Basis Set:
  Basis Set: CC-PVTZ
  Basis Set:
  @DF-RHF Final Energy:  -344.70001601785947
    Total Energy =                       -344.7000160178592978
  Basis Set: CC-PVTZ
  Basis Set:
  Basis Set: CC-PVTZ
  Basis Set:
  @DF-RHF Final Energy:  -344.70104203177630
    Total Energy =                       -344.7010420317761827
  Basis Set: CC-PVTZ
  Basis Set:
  Basis Set: CC-PVTZ
  Basis Set:
  @DF-RHF Final Energy:  -344.70115203249014
    Total Energy =                       -344.7011520324905405
  Basis Set: CC-PVTZ
  Basis Set:
  Basis Set: CC-PVTZ
  Basis Set:
  @DF-RHF Final Energy:  -344.70116697511264
    Total Energy =                       -344.7011669751129261
  Basis Set: CC-PVTZ
  Basis Set:
  Charge       = 0
  Multiplicity = 1
  Basis Set: CC-PVTZ
  Basis Set:

    Orbital Energies (a.u.)
    -----------------------

    Doubly Occupied:

       1A    -20.570975     2A    -11.288633     3A    -11.275734
       4A    -11.232093     5A    -11.230892     6A    -11.224141
       7A    -11.221383     8A    -11.220751     9A     -1.409345
      10A     -1.152280    11A     -1.022901    12A     -1.018131
      13A     -0.938812    14A     -0.837197    15A     -0.809608
      16A     -0.720968    17A     -0.669313    18A     -0.666890
      19A     -0.648023    20A     -0.617239    21A     -0.595650
      22A     -0.585215    23A     -0.532003    24A     -0.514613
      25A     -0.509008    26A     -0.486408    27A     -0.449488
      28A     -0.340107    29A     -0.319076

  @DF-RHF Final Energy:  -344.70116811862937

   => Energetics <=

    Nuclear Repulsion Energy =            348.6489285444960728
    One-Electron Energy =               -1158.4864359844959836
    Two-Electron Energy =                 465.1363393213702579
    DFT Exchange-Correlation Energy =       0.0000000000000000
    Empirical Dispersion Energy =           0.0000000000000000
    PCM Polarization Energy =               0.0000000000000000
    EFP Energy =                            0.0000000000000000
    Total Energy =                       -344.7011681186295959
    Molecular point group: c1
  Basis Set: CC-PVTZ
  Basis Set:

  -Total Gradient:
     Atom            X                  Y                   Z
    ------   -----------------  -----------------  -----------------
       1       -0.000007681573    -0.000018295559    -0.000008702454
       2        0.000048355054     0.000139754138    -0.000053635279
       3        0.000080491099    -0.000090834605     0.000083000217
       4       -0.000100748454    -0.000042502561     0.000045553038
       5       -0.000014567467     0.000011277555    -0.000010765809
       6       -0.000039581155    -0.000071092050    -0.000028069841
       7        0.000013909786     0.000001228624    -0.000007303373
       8        0.000083615115    -0.000078363190    -0.000879755565
       9       -0.000002298310     0.000005574620    -0.000007919403
      10       -0.000086951248     0.000491706288     0.000988793389
      11        0.000010053600    -0.000000955891    -0.000007622466
      12       -0.000118486296    -0.001011099027     0.000445159728
      13        0.000133489685     0.000641392873    -0.000605989965
      14       -0.000004181528    -0.000000877798     0.000018172122
      15        0.000005820201     0.000013559080     0.000007889406
      16       -0.000001238508     0.000009527505     0.000021196255

  **** Optimization is complete! (in 6 steps) ****
    Final optimized geometry and variables:
    Molecular point group: c1

    Geometry (in Angstrom), charge = 0, multiplicity = 1:

    H           -3.200141276291     0.924400863361     0.134894927824
    C           -2.161501041209     0.656315909922     0.131833886691
    C           -1.783832414215    -0.672060409460     0.128487249527
    C           -1.185742511389     1.635906177305     0.134297610053
    H           -2.531753887126    -1.442149013966     0.132207517879
    C           -0.447440362784    -1.026585411846     0.127927530370
    H           -1.465075796037     2.672393104714     0.137137714161
    C            0.151430686134     1.293199572797     0.125460949463
    H           -0.167184980867    -2.061143115453     0.140763905266
    C            0.523015949592    -0.039660493659     0.125519756885
    H            0.917471244998     2.043561463891     0.126147956231
    O            1.847309324300    -0.321704792886     0.158202581893
    C            2.352438055533    -1.229477971410    -0.782467866596
    H            2.037990330619    -2.245249186894    -0.575315155399
    H            3.428439993926    -1.179984517581    -0.713737672409
    H            2.043955616380    -0.960243476259    -1.786431403607

  Mulliken Charges: (a.u.)
   Center  Symbol    Alpha    Beta     Spin     Total
       1     H     0.42386  0.42386  0.00000  0.15229
       2     C     3.09268  3.09268  0.00000 -0.18536
       3     C     3.06465  3.06465  0.00000 -0.12930
       4     C     3.06303  3.06303  0.00000 -0.12606
       5     H     0.42251  0.42251  0.00000  0.15498
       6     C     3.11868  3.11868  0.00000 -0.23736
       7     H     0.42239  0.42239  0.00000  0.15522
       8     C     3.11243  3.11243  0.00000 -0.22486
       9     H     0.42342  0.42342  0.00000  0.15316
      10     C     2.85897  2.85897  0.00000  0.28205
      11     H     0.41819  0.41819  0.00000  0.16361
      12     O     4.16972  4.16972  0.00000 -0.33943
      13     C     3.04025  3.04025  0.00000 -0.08050
      14     H     0.46322  0.46322  0.00000  0.07356
      15     H     0.44289  0.44289  0.00000  0.11422
      16     H     0.46311  0.46311  0.00000  0.07377

   Total alpha = 29.00000, Total beta = 29.00000, Total charge = -0.00000
