  ==> Input File <==

--------------------------------------------------------------------------
set {
	reference rhf
	basis 6-31G*
}

set_num_threads( 1 )
memory 2 gb

molecule MOL {
0 1

H	 2.863103	 -1.360301	 1.052286
O	 2.826016	 -1.159218	 0.122261
C	 2.077727	 -0.067559	 -0.035091
C	 0.624473	 -0.343591	 0.253101
O	 2.542965	 0.974826	 -0.363729
C	 -0.265902	 0.883932	 0.072916
H	 0.324016	 -1.163849	 -0.390541
H	 0.565024	 -0.726111	 1.268924
C	 -1.728698	 0.646073	 0.462102
H	 -0.209144	 1.219470	 -0.958188
H	 0.135059	 1.692851	 0.673903
C	 -2.482460	 -0.343073	 -0.431425
H	 -2.245265	 1.602650	 0.432430
H	 -1.779332	 0.308348	 1.496285
C	 -3.960546	 -0.461025	 -0.060175
H	 -2.395034	 -0.026811	 -1.468912
H	 -2.024850	 -1.327147	 -0.371646
H	 -4.472726	 -1.168004	 -0.705284
H	 -4.465146	 0.496508	 -0.151489
H	 -4.081218	 -0.800940	 0.964585

	symmetry c1
}
set optking {
	frozen_dihedral = ("
		16 12 9 6,
		7 4 6 10,
		12 9 6 10,
		5 3 4 7
	")
}

ee = energy('scf')
oeprop('DIPOLE', 'QUADRUPOLE', 'MULLIKEN_CHARGES')
f=open( 'psi4out.xyz', 'w' )
f.write( "20  " )
f.write( str(ee) + "\n" )
f.write( MOL.save_string_xyz() )
f.close()
--------------------------------------------------------------------------

    Molecular point group: c1

    Geometry (in Angstrom), charge = 0, multiplicity = 1:

       Center              X                  Y                   Z               Mass
    ------------   -----------------  -----------------  -----------------  -----------------
           H          2.870624851024    -1.356550313385     1.042537472522     1.007825032070
           O          2.833537851024    -1.155467313385     0.112512472522    15.994914619560
           C          2.085248851024    -0.063808313385    -0.044839527478    12.000000000000
           C          0.631994851024    -0.339840313385     0.243352472522    12.000000000000
           O          2.550486851024     0.978576686615    -0.373477527478    15.994914619560
           C         -0.258380148976     0.887682686615     0.063167472522    12.000000000000
           H          0.331537851024    -1.160098313385    -0.400289527478     1.007825032070
           H          0.572545851024    -0.722360313385     1.259175472522     1.007825032070
           C         -1.721176148976     0.649823686615     0.452353472522    12.000000000000
           H         -0.201622148976     1.223220686615    -0.967936527478     1.007825032070
           H          0.142580851024     1.696601686615     0.664154472522     1.007825032070
           C         -2.474938148976    -0.339322313385    -0.441173527478    12.000000000000
           H         -2.237743148976     1.606400686615     0.422681472522     1.007825032070
           H         -1.771810148976     0.312098686615     1.486536472522     1.007825032070
           C         -3.953024148976    -0.457274313385    -0.069923527478    12.000000000000
           H         -2.387512148976    -0.023060313385    -1.478660527478     1.007825032070
           H         -2.017328148976    -1.323396313385    -0.381394527478     1.007825032070
           H         -4.465204148976    -1.164253313385    -0.715032527478     1.007825032070
           H         -4.457624148976     0.500258686615    -0.161237527478     1.007825032070
           H         -4.073696148976    -0.797189313385     0.954836472522     1.007825032070

  Charge       = 0
  Multiplicity = 1
  Basis Set: 6-31G*
  Basis Set:

    Orbital Energies (a.u.)
    -----------------------

    Doubly Occupied:

       1A    -20.600447     2A    -20.559077     3A    -11.379939
       4A    -11.244172     5A    -11.225146     6A    -11.222995
       7A    -11.222395     8A    -11.214406     9A     -1.468544
      10A     -1.369951    11A     -1.098455    12A     -1.041980
      13A     -0.959671    14A     -0.865398    15A     -0.821403
      16A     -0.787896    17A     -0.716440    18A     -0.676656
      19A     -0.661649    20A     -0.638911    21A     -0.620186
      22A     -0.590363    23A     -0.562420    24A     -0.552614
      25A     -0.538171    26A     -0.507902    27A     -0.502624
      28A     -0.489513    29A     -0.471784    30A     -0.466465
      31A     -0.460022    32A     -0.442560

  @DF-RHF Final Energy:  -383.92594775761273

   => Energetics <=

    Nuclear Repulsion Energy =            376.2274620068852187
    One-Electron Energy =               -1268.3465153450858907
    Two-Electron Energy =                 508.1931055805887354
    DFT Exchange-Correlation Energy =       0.0000000000000000
    Empirical Dispersion Energy =           0.0000000000000000
    PCM Polarization Energy =               0.0000000000000000
    EFP Energy =                            0.0000000000000000
    Total Energy =                       -383.9259477576119934

  Mulliken Charges: (a.u.)
   Center  Symbol    Alpha    Beta     Spin     Total
       1     H     0.26721  0.26721  0.00000  0.46558
       2     O     4.35527  4.35527  0.00000 -0.71053
       3     C     2.62956  2.62956  0.00000  0.74088
       4     C     3.21694  3.21694  0.00000 -0.43388
       5     O     4.25287  4.25287  0.00000 -0.50574
       6     C     3.15471  3.15471  0.00000 -0.30942
       7     H     0.39439  0.39439  0.00000  0.21123
       8     H     0.41380  0.41380  0.00000  0.17240
       9     C     3.15545  3.15545  0.00000 -0.31091
      10     H     0.41020  0.41020  0.00000  0.17961
      11     H     0.40887  0.40887  0.00000  0.18225
      12     C     3.15477  3.15477  0.00000 -0.30953
      13     H     0.41745  0.41745  0.00000  0.16510
      14     H     0.42516  0.42516  0.00000  0.14969
      15     C     3.23922  3.23922  0.00000 -0.47845
      16     H     0.42055  0.42055  0.00000  0.15889
      17     H     0.42365  0.42365  0.00000  0.15270
      18     H     0.41795  0.41795  0.00000  0.16410
      19     H     0.42021  0.42021  0.00000  0.15957
      20     H     0.42177  0.42177  0.00000  0.15647

   Total alpha = 32.00000, Total beta = 32.00000, Total charge =  0.00000
