                              Psi4 1.0.54 Driver

  ==> Input File <==

--------------------------------------------------------------------------
set {
	reference rhf
	basis cc-pvtz
}

set_num_threads( 4 )
memory 2 gb

molecule MOL {
0 1

H	 -3.436473	 1.252944	 -1.023892
O	 -3.458596	 0.315260	 -0.960865
C	 -3.176635	 -0.080824	 0.355601
C	 -1.763371	 0.265266	 0.799691
H	 -3.321825	 -1.153438	 0.379502
H	 -3.895468	 0.357385	 1.043382
C	 -0.673390	 -0.426948	 -0.013392
H	 -1.631049	 1.344913	 0.747560
H	 -1.664587	 -0.001624	 1.849167
C	 0.737842	 -0.043159	 0.423759
H	 -0.806103	 -0.190518	 -1.063345
H	 -0.797221	 -1.503753	 0.074146
C	 1.824000	 -0.743224	 -0.390623
H	 0.850588	 1.033777	 0.343840
H	 0.868587	 -0.286314	 1.476203
C	 3.255957	 -0.453067	 0.062319
H	 1.718250	 -0.470599	 -1.438164
H	 1.658105	 -1.815850	 -0.339904
C	 4.318113	 -1.354638	 -0.562291
H	 3.302144	 -0.558950	 1.141870
H	 3.495445	 0.585722	 -0.149774
H	 4.101454	 -2.400931	 -0.371485
H	 5.296530	 -1.140189	 -0.147616
H	 4.383968	 -1.221116	 -1.635343

	symmetry c1
}
set optking {
	frozen_dihedral = ("
		20 16 13 17
	")
}

ee,wfn = optimize('scf', return_wfn=True)
oeprop( wfn, 'DIPOLE', 'QUADRUPOLE', 'MULLIKEN_CHARGES')
f=open( 'psi4out.xyz', 'w' )
f.write( "24  " )
f.write( str(ee) + "\n" )
f.write( MOL.save_string_xyz() )
f.close()
--------------------------------------------------------------------------

    Molecular point group: c1
  Charge       = 0
  Multiplicity = 1
  Basis Set: CC-PVTZ
  Basis Set:
  @DF-RHF Final Energy:  -349.38129642229512
    Total Energy =                       -349.3812964222950086
    Molecular point group: c1
  Basis Set: CC-PVTZ
  Basis Set:
  Basis Set: CC-PVTZ
  Basis Set:
  @DF-RHF Final Energy:  -349.38179628243654
    Total Energy =                       -349.3817962824368806
  Basis Set: CC-PVTZ
  Basis Set:
  Basis Set: CC-PVTZ
  Basis Set:
  @DF-RHF Final Energy:  -349.38182683666332
    Total Energy =                       -349.3818268366633220
  Basis Set: CC-PVTZ
  Basis Set:
  Basis Set: CC-PVTZ
  Basis Set:
  @DF-RHF Final Energy:  -349.38182898891375
    Total Energy =                       -349.3818289889132984
  Basis Set: CC-PVTZ
  Basis Set:
  Charge       = 0
  Multiplicity = 1
  Basis Set: CC-PVTZ
  Basis Set:

    Orbital Energies (a.u.)
    -----------------------

    Doubly Occupied:

       1A    -20.546309     2A    -11.265529     3A    -11.215194
       4A    -11.211610     5A    -11.210528     6A    -11.209187
       7A    -11.208972     8A    -11.205361     9A     -1.364159
      10A     -1.089933    11A     -1.050224    12A     -0.989089
      13A     -0.914905    14A     -0.842783    15A     -0.797903
      16A     -0.788491    17A     -0.681695    18A     -0.658729
      19A     -0.631709    20A     -0.615808    21A     -0.592402
      22A     -0.586633    23A     -0.549156    24A     -0.543177
      25A     -0.531777    26A     -0.498961    27A     -0.497944
      28A     -0.472666    29A     -0.467225    30A     -0.461402
      31A     -0.458467    32A     -0.456336    33A     -0.420737

  @DF-RHF Final Energy:  -349.38182966067131

   => Energetics <=

    Nuclear Repulsion Energy =            380.9825087993308443
    One-Electron Energy =               -1228.6586700423499678
    Two-Electron Energy =                 498.2943315823478088
    DFT Exchange-Correlation Energy =       0.0000000000000000
    Empirical Dispersion Energy =           0.0000000000000000
    PCM Polarization Energy =               0.0000000000000000
    EFP Energy =                            0.0000000000000000
    Total Energy =                       -349.3818296606713147
    Molecular point group: c1
  Basis Set: CC-PVTZ
  Basis Set:

  -Total Gradient:
     Atom            X                  Y                   Z
    ------   -----------------  -----------------  -----------------
       1        0.000000818394    -0.000001229428     0.000003893231
       2       -0.000008647717    -0.000002265307    -0.000005869680
       3        0.000019542013    -0.000003235600    -0.000014974460
       4        0.000018145827    -0.000001124149     0.000006782819
       5       -0.000004249801    -0.000001845042    -0.000002827325
       6        0.000010248299    -0.000001730390     0.000003012295
       7       -0.000021088024     0.000015610250    -0.000001379968
       8        0.000002216615     0.000003782081    -0.000002937871
       9        0.000003287536    -0.000000942230     0.000007493937
      10       -0.000049744756     0.000015808238    -0.000002968230
      11       -0.000004886244     0.000004795040    -0.000003059496
      12        0.000003535970    -0.000010856967     0.000004238702
      13        0.000599007338    -0.001695175710    -0.000595165183
      14       -0.000006426549     0.000013926570    -0.000006493580
      15        0.000024163191    -0.000007766762    -0.000005147229
      16        0.000506411866    -0.001830884457    -0.000127999319
      17       -0.000592361642     0.001693102594     0.000548651143
      18        0.000001132625     0.000005400197    -0.000014902786
      19        0.000015300377     0.000032873313     0.000011412919
      20       -0.000524046035     0.001787717506     0.000230328276
      21        0.000015555967    -0.000011353186    -0.000010079685
      22       -0.000010159729     0.000019529398    -0.000006566647
      23        0.000001872723    -0.000010074176    -0.000003022667
      24        0.000000371755    -0.000014061783    -0.000012419198

  **** Optimization is complete! (in 5 steps) ****
    Final optimized geometry and variables:
    Molecular point group: c1

    Geometry (in Angstrom), charge = 0, multiplicity = 1:

    H           -3.484431057321     1.645957799347    -0.856692338317
    O           -3.528159703797     0.707051132975    -0.841891068387
    C           -3.248955251158     0.237434288007     0.450695008004
    C           -1.825506264650     0.526746703639     0.902790839159
    H           -3.419724462113    -0.831251035344     0.420254033694
    H           -3.953574101909     0.656467058650     1.164634999043
    C           -0.756686010117    -0.147230895434     0.047463360759
    H           -1.667746775640     1.604246972834     0.905976618771
    H           -1.727295490317     0.203294879203     1.936270863043
    C            0.665204902391     0.179888280177     0.494486727182
    H           -0.889968723305     0.146083208046    -0.987914334030
    H           -0.905087222753    -1.224115982770     0.080375142334
    C            1.737330888978    -0.506605715123    -0.348088768166
    H            0.814674914041     1.256697363174     0.455556576249
    H            0.791382293880    -0.105837886767     1.536254317271
    C            3.159583784189    -0.144387180828     0.073277828300
    H            1.592901842531    -0.229116979860    -1.389309585992
    H            1.603709226880    -1.583967966990    -0.291216443362
    C            4.228582362226    -0.973451652508    -0.629381793121
    H            3.256635937411    -0.253035671852     1.150155241684
    H            3.330656625175     0.909157088660    -0.132147579646
    H            4.117363524261    -2.028446180560    -0.402315433387
    H            5.224313704816    -0.672545629636    -0.324276691410
    H            4.164908540250    -0.860836702399    -1.706746176836

  Mulliken Charges: (a.u.)
   Center  Symbol    Alpha    Beta     Spin     Total
       1     H     0.39531  0.39531  0.00000  0.20937
       2     O     4.20372  4.20372  0.00000 -0.40744
       3     C     2.97761  2.97761  0.00000  0.04478
       4     C     3.10263  3.10263  0.00000 -0.20526
       5     H     0.45889  0.45889  0.00000  0.08222
       6     H     0.46029  0.46029  0.00000  0.07943
       7     C     3.08797  3.08797  0.00000 -0.17593
       8     H     0.45904  0.45904  0.00000  0.08192
       9     H     0.45331  0.45331  0.00000  0.09337
      10     C     3.08852  3.08852  0.00000 -0.17704
      11     H     0.44645  0.44645  0.00000  0.10711
      12     H     0.45542  0.45542  0.00000  0.08916
      13     C     3.08578  3.08578  0.00000 -0.17156
      14     H     0.45567  0.45567  0.00000  0.08866
      15     H     0.45614  0.45614  0.00000  0.08772
      16     C     3.08425  3.08425  0.00000 -0.16851
      17     H     0.45416  0.45416  0.00000  0.09169
      18     H     0.45536  0.45536  0.00000  0.08928
      19     C     3.14999  3.14999  0.00000 -0.29998
      20     H     0.45565  0.45565  0.00000  0.08869
      21     H     0.45484  0.45484  0.00000  0.09032
      22     H     0.45522  0.45522  0.00000  0.08955
      23     H     0.44888  0.44888  0.00000  0.10225
      24     H     0.45490  0.45490  0.00000  0.09020

   Total alpha = 33.00000, Total beta = 33.00000, Total charge = -0.00000

*** Psi4 exiting successfully. Buy a developer a beer!
