  ==> Input File <==

--------------------------------------------------------------------------
set {
	reference rhf
	basis 6-31G*
}

set_num_threads( 4 )
memory 2 gb

molecule MOL {
0 1

O	 -2.042549	 -1.228399	 -0.269030
C	 -1.653912	 -0.146171	 0.050137
C	 -0.332303	 0.024011	 0.778412
C	 -2.438579	 1.106236	 -0.272369
C	 -0.498179	 0.921690	 2.014750
H	 0.067201	 -0.942163	 1.073855
H	 0.366943	 0.482886	 0.088187
C	 0.817768	 1.144499	 2.761524
H	 -1.225772	 0.481335	 2.694292
H	 -0.907024	 1.876203	 1.697115
C	 0.657423	 2.044125	 3.986338
H	 1.226349	 0.184206	 3.068647
H	 1.544517	 1.583907	 2.082316
H	 -0.038688	 1.614289	 4.700986
H	 0.280817	 3.023481	 3.706208
H	 1.606123	 2.186891	 4.493894
H	 -3.277823	 0.863061	 -0.908988
H	 -1.806773	 1.843019	 -0.759671
H	 -2.802853	 1.554979	 0.648059

	symmetry c1
}
set optking {
	frozen_dihedral = ("
		5 3 2 4
	")
}

ee = optimize('scf')
oeprop('DIPOLE', 'QUADRUPOLE', 'MULLIKEN_CHARGES')
f=open( 'psi4out.xyz', 'w' )
f.write( "19  " )
f.write( str(ee) + "\n" )
f.write( MOL.save_string_xyz() )
f.close()
--------------------------------------------------------------------------

    Molecular point group: c1
  Charge       = 0
  Multiplicity = 1
  Basis Set: 6-31G*
  Basis Set:
  @DF-RHF Final Energy:  -309.06281024469064
    Total Energy =                       -309.0628102446906951
    Molecular point group: c1
  Basis Set: 6-31G*
  Basis Set:
  Basis Set: 6-31G*
  Basis Set:
  @DF-RHF Final Energy:  -309.06418185479356
    Total Energy =                       -309.0641818547932189
  Basis Set: 6-31G*
  Basis Set:
  Basis Set: 6-31G*
  Basis Set:
  @DF-RHF Final Energy:  -309.06422670648271
    Total Energy =                       -309.0642267064828275
  Basis Set: 6-31G*
  Basis Set:
  Basis Set: 6-31G*
  Basis Set:
  @DF-RHF Final Energy:  -309.06440340023528
    Total Energy =                       -309.0644034002353351
  Basis Set: 6-31G*
  Basis Set:
  @DF-RHF Final Energy:  -309.06453654286196
    Total Energy =                       -309.0645365428619016
  Basis Set: 6-31G*
  Basis Set:
  @DF-RHF Final Energy:  -309.06453310751778
    Total Energy =                       -309.0645331075177751
  Basis Set: 6-31G*
  Basis Set:
  Basis Set: 6-31G*
  Basis Set:
  @DF-RHF Final Energy:  -309.06453860800235
    Total Energy =                       -309.0645386080022945
  Basis Set: 6-31G*
  Basis Set:
  Basis Set: 6-31G*
  Basis Set:
  @DF-RHF Final Energy:  -309.06454618941672
    Total Energy =                       -309.0645461894169443
  Basis Set: 6-31G*
  Basis Set:
  Charge       = 0
  Multiplicity = 1
  Basis Set: 6-31G*
  Basis Set:

    Orbital Energies (a.u.)
    -----------------------

    Doubly Occupied:

       1A    -20.547711     2A    -11.324712     3A    -11.233097
       4A    -11.230231     5A    -11.227571     6A    -11.227012
       7A    -11.217169     8A     -1.393158     9A     -1.094601
      10A     -1.029173    11A     -0.982032    12A     -0.894624
      13A     -0.810088    14A     -0.732678    15A     -0.663954
      16A     -0.646177    17A     -0.626433    18A     -0.613201
      19A     -0.583143    20A     -0.574717    21A     -0.554659
      22A     -0.532721    23A     -0.513198    24A     -0.499600
      25A     -0.485782    26A     -0.478606    27A     -0.471617
      28A     -0.397176

  @DF-RHF Final Energy:  -309.06454684269221

   => Energetics <=

    Nuclear Repulsion Energy =            301.1074806020159826
    One-Electron Energy =               -1015.1743698138559466
    Two-Electron Energy =                 405.0023423691478115
    DFT Exchange-Correlation Energy =       0.0000000000000000
    Empirical Dispersion Energy =           0.0000000000000000
    PCM Polarization Energy =               0.0000000000000000
    EFP Energy =                            0.0000000000000000
    Total Energy =                       -309.0645468426920957
    Molecular point group: c1
  Basis Set: 6-31G*
  Basis Set:

  -Total Gradient:
     Atom            X                  Y                   Z
    ------   -----------------  -----------------  -----------------
       1        0.000033765780     0.000002333147    -0.000011450952
       2        0.000411497611     0.000215283788    -0.000804193496
       3       -0.000270019263    -0.000607685228     0.000680684463
       4       -0.000265359223    -0.000040493891     0.000494386842
       5        0.000084995043     0.000429671449    -0.000313128678
       6        0.000013601775     0.000002817604    -0.000012958856
       7       -0.000015290687     0.000011579309    -0.000017334662
       8        0.000011496010    -0.000008377945    -0.000007308688
       9       -0.000015656454    -0.000009334921    -0.000020653423
      10        0.000005189153     0.000017616460     0.000014582201
      11       -0.000006665683     0.000008619172    -0.000016326801
      12       -0.000020668259    -0.000001815821     0.000021891022
      13        0.000019013294    -0.000027316918     0.000000005598
      14        0.000006752749    -0.000005100122     0.000005972174
      15       -0.000010379586    -0.000001193290     0.000000947080
      16        0.000002099232     0.000003494517    -0.000011691126
      17        0.000003365237    -0.000006360893     0.000005714479
      18        0.000001992491     0.000006852237    -0.000011070854
      19        0.000010270783     0.000009411350     0.000001933678

  **** Optimization is complete! (in 9 steps) ****
    Final optimized geometry and variables:
    Molecular point group: c1

    Geometry (in Angstrom), charge = 0, multiplicity = 1:

    O           -1.208280412134    -1.819672578980    -1.565622014947
    C           -0.870223824556    -0.715013680858    -1.266216954582
    C            0.425639100338    -0.469755775832    -0.513771705724
    C           -1.718227179094     0.485392616229    -1.634416173322
    C            0.294021720812     0.429935237066     0.721700817225
    H            0.821910264629    -1.440590132100    -0.241784364005
    H            1.128144059103    -0.016514599424    -1.212672597740
    C            1.613051229273     0.562940932506     1.485326998215
    H           -0.465098121962     0.023712622909     1.387346873320
    H           -0.048107048766     1.419138618535     0.428940502838
    C            1.498738891739     1.464297821753     2.713823013954
    H            1.951808962927    -0.424013856855     1.790628319225
    H            2.376679560010     0.955745460686     0.817487582956
    H            0.766454669791     1.077980201606     3.416895169102
    H            1.193166964758     2.469308458091     2.436903769183
    H            2.448465031505     1.539172841535     3.233690546827
    H           -2.460803362127     0.188457808041    -2.361946132285
    H           -1.111814759195     1.292581684430    -2.033163322425
    H           -2.224706574334     0.864755688778    -0.751763218713

  Mulliken Charges: (a.u.)
   Center  Symbol    Alpha    Beta     Spin     Total
       1     O     4.26164  4.26164  0.00000 -0.52327
       2     C     2.73157  2.73157  0.00000  0.53686
       3     C     3.20664  3.20664  0.00000 -0.41329
       4     C     3.29115  3.29115  0.00000 -0.58229
       5     C     3.16343  3.16343  0.00000 -0.32687
       6     H     0.39890  0.39890  0.00000  0.20221
       7     H     0.41059  0.41059  0.00000  0.17883
       8     C     3.15184  3.15184  0.00000 -0.30368
       9     H     0.41585  0.41585  0.00000  0.16830
      10     H     0.41895  0.41895  0.00000  0.16210
      11     C     3.24025  3.24025  0.00000 -0.48051
      12     H     0.41831  0.41831  0.00000  0.16338
      13     H     0.42121  0.42121  0.00000  0.15757
      14     H     0.41982  0.41982  0.00000  0.16036
      15     H     0.42118  0.42118  0.00000  0.15764
      16     H     0.41665  0.41665  0.00000  0.16669
      17     H     0.39600  0.39600  0.00000  0.20801
      18     H     0.41169  0.41169  0.00000  0.17662
      19     H     0.40433  0.40433  0.00000  0.19133

   Total alpha = 28.00000, Total beta = 28.00000, Total charge = -0.00000
