  ==> Input File <==

--------------------------------------------------------------------------
set {
	reference rhf
	basis cc-pvtz
}

set_num_threads( 4 )
memory 2 gb

molecule MOL {
0 1

H	 -1.835082	 1.385983	 0.000069
C	 -1.300516	 0.441153	 -0.000028
O	 -0.006604	 0.654344	 -0.000106
O	 -1.828920	 -0.612308	 0.000113
C	 0.852093	 -0.482521	 -0.000161
C	 1.887094	 -0.278554	 -1.080843
H	 0.258870	 -1.368250	 -0.177724
H	 1.307080	 -0.576604	 0.975595
H	 1.417238	 -0.182120	 -2.051362
H	 2.558337	 -1.128601	 -1.107418
H	 2.470704	 0.613525	 -0.892260

	symmetry c1
}
set optking {
	frozen_dihedral = ("
		7 5 3 2
	")
}

ee = optimize('scf')
oeprop('DIPOLE', 'QUADRUPOLE', 'MULLIKEN_CHARGES')
f=open( 'psi4out.xyz', 'w' )
f.write( "11  " )
f.write( str(ee) + "\n" )
f.write( MOL.save_string_xyz() )
f.close()
--------------------------------------------------------------------------

    Molecular point group: c1
  Charge       = 0
  Multiplicity = 1
  Basis Set: CC-PVTZ
  Basis Set:
  @DF-RHF Final Energy:  -266.92940119385662
    Total Energy =                       -266.9294011938564495
    Molecular point group: c1
  Basis Set: CC-PVTZ
  Basis Set:
  Basis Set: CC-PVTZ
  Basis Set:
  @DF-RHF Final Energy:  -266.92971815891417
    Total Energy =                       -266.9297181589143975
  Basis Set: CC-PVTZ
  Basis Set:
  Basis Set: CC-PVTZ
  Basis Set:
  @DF-RHF Final Energy:  -266.92974290503219
    Total Energy =                       -266.9297429050321853
  Basis Set: CC-PVTZ
  Basis Set:
  Basis Set: CC-PVTZ
  Basis Set:
  @DF-RHF Final Energy:  -266.93003462601871
    Total Energy =                       -266.9300346260189372
  Basis Set: CC-PVTZ
  Basis Set:
  Basis Set: CC-PVTZ
  Basis Set:
  @DF-RHF Final Energy:  -266.93004569157404
    Total Energy =                       -266.9300456915742075
  Basis Set: CC-PVTZ
  Basis Set:
  Basis Set: CC-PVTZ
  Basis Set:
  @DF-RHF Final Energy:  -266.93005185059172
    Total Energy =                       -266.9300518505918376
  Basis Set: CC-PVTZ
  Basis Set:
  Charge       = 0
  Multiplicity = 1
  Basis Set: CC-PVTZ
  Basis Set:

    Orbital Energies (a.u.)
    -----------------------

    Doubly Occupied:

       1A    -20.604700     2A    -20.544786     3A    -11.371238
       4A    -11.288781     5A    -11.225080     6A     -1.477047
       7A     -1.377642     8A     -1.053148     9A     -0.907701
      10A     -0.801885    11A     -0.746646    12A     -0.687891
      13A     -0.673673    14A     -0.607704    15A     -0.572783
      16A     -0.556395    17A     -0.532507    18A     -0.505784
      19A     -0.461214    20A     -0.456325

  @DF-RHF Final Energy:  -266.93005201862218

   => Energetics <=

    Nuclear Repulsion Energy =            179.7321994306499562
    One-Electron Energy =                -720.4186374399200758
    Two-Electron Energy =                 273.7563859906481412
    DFT Exchange-Correlation Energy =       0.0000000000000000
    Empirical Dispersion Energy =           0.0000000000000000
    PCM Polarization Energy =               0.0000000000000000
    EFP Energy =                            0.0000000000000000
    Total Energy =                       -266.9300520186219501
    Molecular point group: c1
  Basis Set: CC-PVTZ
  Basis Set:

  -Total Gradient:
     Atom            X                  Y                   Z
    ------   -----------------  -----------------  -----------------
       1        0.000008157972    -0.000000121025     0.000000981743
       2       -0.000004725645    -0.000023594759    -0.000669403729
       3        0.000038487971    -0.000040157836     0.001158590980
       4       -0.000006018296     0.000010655091     0.000002012752
       5        0.000071290112     0.000104729767    -0.001239121791
       6       -0.000004835599     0.000021376145     0.000009094326
       7       -0.000091293277    -0.000098355033     0.000732055498
       8       -0.000004899716     0.000020450481     0.000003235899
       9       -0.000003864615     0.000000288939     0.000001062362
      10       -0.000012258410     0.000000781902     0.000008970514
      11        0.000009959502     0.000003946325    -0.000007478552

  **** Optimization is complete! (in 7 steps) ****
    Final optimized geometry and variables:
    Molecular point group: c1

    Geometry (in Angstrom), charge = 0, multiplicity = 1:

    H           -1.727988318138     1.471345425943     0.232722493040
    C           -1.226144460950     0.508688589491     0.231690338545
    O            0.073690841867     0.689196806911     0.217341968030
    O           -1.795318420378    -0.523029903701     0.242327268973
    C            0.946990196884    -0.438439302645     0.192446063850
    C            1.999740379595    -0.218102898472    -0.870050132880
    H            0.372669032449    -1.331497990521     0.012418649938
    H            1.394948962230    -0.511616416785     1.174235785775
    H            1.548435438335    -0.157988289950    -1.852573371226
    H            2.701019634967    -1.044389475578    -0.865661430272
    H            2.547670162330     0.697425032476    -0.687008095663

  Mulliken Charges: (a.u.)
   Center  Symbol    Alpha    Beta     Spin     Total
       1     H     0.45067  0.45067  0.00000  0.09865
       2     C     2.84025  2.84025  0.00000  0.31949
       3     O     4.14842  4.14842  0.00000 -0.29684
       4     O     4.19599  4.19599  0.00000 -0.39198
       5     C     2.97989  2.97989  0.00000  0.04023
       6     C     3.13285  3.13285  0.00000 -0.26569
       7     H     0.44302  0.44302  0.00000  0.11396
       8     H     0.45317  0.45317  0.00000  0.09366
       9     H     0.45097  0.45097  0.00000  0.09806
      10     H     0.45435  0.45435  0.00000  0.09130
      11     H     0.45042  0.45042  0.00000  0.09917

   Total alpha = 20.00000, Total beta = 20.00000, Total charge =  0.00000
