  ==> Input File <==

--------------------------------------------------------------------------
set {
	reference rhf
	basis 6-31G*
}

set_num_threads( 4 )
memory 2 gb

molecule MOL {
0 1

O	 3.695388	 0.761324	 1.534212
C	 2.951957	 -0.054451	 1.092759
C	 1.463657	 -0.113632	 1.338215
O	 3.347903	 -1.046386	 0.304773
C	 0.957546	 1.017000	 2.231322
H	 0.980559	 -0.111955	 0.366719
H	 1.246804	 -1.084776	 1.775880
C	 -0.532034	 0.911780	 2.575670
H	 1.157649	 1.970194	 1.751217
H	 1.535157	 1.017323	 3.149356
C	 -1.482822	 1.084767	 1.387737
H	 -0.760837	 1.673423	 3.317475
H	 -0.726118	 -0.045614	 3.057061
C	 -2.956356	 1.081403	 1.799666
H	 -1.253764	 2.020228	 0.879540
H	 -1.320149	 0.293609	 0.659329
C	 -3.915874	 1.248343	 0.620010
H	 -3.130570	 1.879604	 2.519220
H	 -3.183403	 0.150754	 2.317394
C	 -5.385234	 1.247768	 1.040343
H	 -3.689724	 2.177351	 0.100932
H	 -3.746235	 0.448908	 -0.098257
H	 -6.040149	 1.367680	 0.182838
H	 -5.595237	 2.058194	 1.732661
H	 -5.651916	 0.316657	 1.532466
C	 4.728119	 -1.109107	 -0.004993
H	 4.882018	 -1.033965	 -1.071845
H	 5.068212	 -2.067527	 0.355250
H	 5.265056	 -0.311663	 0.488280

	symmetry c1
}
set optking {
	frozen_dihedral = ("
		2 4 26 27
	")
}

ee = optimize('scf')
oeprop('DIPOLE', 'QUADRUPOLE', 'MULLIKEN_CHARGES')
f=open( 'psi4out.xyz', 'w' )
f.write( "29  " )
f.write( str(ee) + "\n" )
f.write( MOL.save_string_xyz() )
f.close()
--------------------------------------------------------------------------

    Molecular point group: c1
  Charge       = 0
  Multiplicity = 1
  Basis Set: 6-31G*
  Basis Set:
  @DF-RHF Final Energy:  -501.04095420098804
    Total Energy =                       -501.0409542009886081
    Molecular point group: c1
  Basis Set: 6-31G*
  Basis Set:
  Basis Set: 6-31G*
  Basis Set:
  @DF-RHF Final Energy:  -501.04137545957281
    Total Energy =                       -501.0413754595730325
  Basis Set: 6-31G*
  Basis Set:
  Basis Set: 6-31G*
  Basis Set:
  @DF-RHF Final Energy:  -501.04183486094973
    Total Energy =                       -501.0418348609496206
  Basis Set: 6-31G*
  Basis Set:
  Basis Set: 6-31G*
  Basis Set:
  @DF-RHF Final Energy:  -501.04178853939356
    Total Energy =                       -501.0417885393941333
  Basis Set: 6-31G*
  Basis Set:
  Basis Set: 6-31G*
  Basis Set:
  @DF-RHF Final Energy:  -501.04196840559246
    Total Energy =                       -501.0419684055930247
  Basis Set: 6-31G*
  Basis Set:
  Basis Set: 6-31G*
  Basis Set:
  @DF-RHF Final Energy:  -501.04197182056032
    Total Energy =                       -501.0419718205607751
  Basis Set: 6-31G*
  Basis Set:
  Basis Set: 6-31G*
  Basis Set:
  @DF-RHF Final Energy:  -501.04197043574538
    Total Energy =                       -501.0419704357456112
  Basis Set: 6-31G*
  Basis Set:
  Charge       = 0
  Multiplicity = 1
  Basis Set: 6-31G*
  Basis Set:

    Orbital Energies (a.u.)
    -----------------------

    Doubly Occupied:

       1A    -20.602240     2A    -20.544449     3A    -11.373539
       4A    -11.279072     5A    -11.234064     6A    -11.218534
       7A    -11.217279     8A    -11.215762     9A    -11.215645
      10A    -11.214248    11A    -11.208940    12A     -1.466107
      13A     -1.363031    14A     -1.097680    15A     -1.066489
      16A     -1.019563    17A     -0.977820    18A     -0.928408
      19A     -0.861239    20A     -0.798891    21A     -0.790151
      22A     -0.762790    23A     -0.701727    24A     -0.679950
      25A     -0.672064    26A     -0.650656    27A     -0.628766
      28A     -0.604973    29A     -0.594921    30A     -0.580434
      31A     -0.568415    32A     -0.550155    33A     -0.533822
      34A     -0.527040    35A     -0.514733    36A     -0.511609
      37A     -0.496159    38A     -0.477548    39A     -0.469853
      40A     -0.462099    41A     -0.458322    42A     -0.451908
      43A     -0.441039    44A     -0.435355

  @DF-RHF Final Energy:  -501.04197200046099

   => Energetics <=

    Nuclear Repulsion Energy =            609.6831770411182561
    One-Electron Energy =               -1890.5153217440188200
    Two-Electron Energy =                 779.7901727024395768
    DFT Exchange-Correlation Energy =       0.0000000000000000
    Empirical Dispersion Energy =           0.0000000000000000
    PCM Polarization Energy =               0.0000000000000000
    EFP Energy =                            0.0000000000000000
    Total Energy =                       -501.0419720004611008
    Molecular point group: c1
  Basis Set: 6-31G*
  Basis Set:

  -Total Gradient:
     Atom            X                  Y                   Z
    ------   -----------------  -----------------  -----------------
       1        0.000015500871     0.000012759347     0.000008684960
       2       -0.000004006815    -0.000030882307     0.000054880605
       3       -0.000004873091    -0.000001414884    -0.000001905519
       4        0.000004762759     0.000022232352    -0.000091720755
       5       -0.000004551889    -0.000002392789    -0.000000966661
       6       -0.000006166105    -0.000001095996    -0.000005649813
       7        0.000000642395    -0.000005852197     0.000003386251
       8        0.000001131378    -0.000000859972    -0.000004488263
       9        0.000000245259     0.000009741548    -0.000003375486
      10        0.000006197869    -0.000000550740     0.000007785145
      11        0.000000147281     0.000003467208    -0.000000498506
      12       -0.000000245155     0.000004396047     0.000003739276
      13       -0.000001156125    -0.000005665263     0.000003903943
      14        0.000001079682    -0.000001758502    -0.000000266975
      15       -0.000000902352     0.000001407610    -0.000000450793
      16        0.000001437146    -0.000001858849    -0.000002052611
      17       -0.000001136373    -0.000000047897    -0.000000392141
      18       -0.000000460548     0.000002332899     0.000001730053
      19        0.000000377534    -0.000000942715     0.000000710019
      20        0.000000618831    -0.000000893126     0.000000079684
      21       -0.000000181583     0.000000651376    -0.000000228194
      22        0.000000391998    -0.000002410039    -0.000002260151
      23       -0.000002120240     0.000000442498    -0.000002366941
      24       -0.000000782720     0.000002398583     0.000002223218
      25        0.000000248220    -0.000000785148     0.000000026209
      26       -0.000007588328     0.000065255744     0.000035689352
      27       -0.000009244910    -0.000066316865    -0.000011377844
      28        0.000005442248    -0.000008473840     0.000002006852
      29        0.000005192753     0.000007115919     0.000003155082

  **** Optimization is complete! (in 8 steps) ****
    Final optimized geometry and variables:
    Molecular point group: c1

    Geometry (in Angstrom), charge = 0, multiplicity = 1:

    O            3.390847902844     0.345995008624     0.307385697458
    C            2.659275381248    -0.475814425298    -0.141725013422
    C            1.169910809823    -0.543188822853     0.097859184657
    O            3.051173300279    -1.469628311523    -0.931636948592
    C            0.653599812131     0.581554314320     0.992432476321
    H            0.691040995316    -0.541064107095    -0.875685938679
    H            0.956580585944    -1.516990583492     0.531225389023
    C           -0.837154941885     0.467183300935     1.328819228186
    H            0.851029283792     1.537573258138     0.516872801055
    H            1.226475831164     0.581552927668     1.913425141432
    C           -1.782887384420     0.640194033192     0.136832502422
    H           -1.073705748631     1.224565391117     2.072580894851
    H           -1.028749472221    -0.493197800565     1.805276598522
    C           -3.258446904526     0.627409929086     0.541286947553
    H           -1.556189575835     1.578971386973    -0.366281260478
    H           -1.612405408008    -0.147020321982    -0.594048108441
    C           -4.212914797518     0.793873935209    -0.642527303839
    H           -3.440534566417     1.421845655531     1.263062049997
    H           -3.483134055916    -0.306450824015     1.054238737386
    C           -5.684368446687     0.783431941117    -0.229681743224
    H           -3.989320720594     1.726242672811    -1.156665612174
    H           -4.035202133475    -0.001655973856    -1.363180543400
    H           -6.335603984664     0.903118873325    -1.090029409259
    H           -5.902401884817     1.589897590718     0.464780941481
    H           -5.948321253699    -0.151112484170     0.257384574816
    C            4.420854338001    -1.588002022051    -1.277736373152
    H            4.500142122195    -1.519372679993    -2.353715369903
    H            4.761886448792    -2.561065380260    -0.953085285228
    H            5.004162193186    -0.812789741278    -0.810499026801

  Mulliken Charges: (a.u.)
   Center  Symbol    Alpha    Beta     Spin     Total
       1     O     4.28537  4.28537  0.00000 -0.57074
       2     C     2.60445  2.60445  0.00000  0.79110
       3     C     3.21025  3.21025  0.00000 -0.42051
       4     O     4.30970  4.30970  0.00000 -0.61941
       5     C     3.15374  3.15374  0.00000 -0.30749
       6     H     0.39890  0.39890  0.00000  0.20220
       7     H     0.40138  0.40138  0.00000  0.19724
       8     C     3.15658  3.15658  0.00000 -0.31317
       9     H     0.41316  0.41316  0.00000  0.17369
      10     H     0.40886  0.40886  0.00000  0.18227
      11     C     3.15503  3.15503  0.00000 -0.31005
      12     H     0.41833  0.41833  0.00000  0.16334
      13     H     0.42394  0.42394  0.00000  0.15213
      14     C     3.15028  3.15028  0.00000 -0.30056
      15     H     0.42264  0.42264  0.00000  0.15471
      16     H     0.42361  0.42361  0.00000  0.15279
      17     C     3.15144  3.15144  0.00000 -0.30289
      18     H     0.42335  0.42335  0.00000  0.15330
      19     H     0.42400  0.42400  0.00000  0.15200
      20     C     3.23934  3.23934  0.00000 -0.47868
      21     H     0.42282  0.42282  0.00000  0.15437
      22     H     0.42345  0.42345  0.00000  0.15310
      23     H     0.41926  0.41926  0.00000  0.16148
      24     H     0.42156  0.42156  0.00000  0.15688
      25     H     0.42184  0.42184  0.00000  0.15632
      26     C     3.09882  3.09882  0.00000 -0.19763
      27     H     0.41243  0.41243  0.00000  0.17515
      28     H     0.41232  0.41232  0.00000  0.17536
      29     H     0.39315  0.39315  0.00000  0.21370

   Total alpha = 44.00000, Total beta = 44.00000, Total charge =  0.00000
