  ==> Input File <==

--------------------------------------------------------------------------
set {
	reference rhf
	basis 6-31G*
}

set_num_threads( 4 )
memory 2 gb

molecule MOL {
0 1

H	 -3.161837	 0.500524	 -0.000234
C	 -2.367097	 -0.232926	 -0.000000
O	 -1.158440	 0.455814	 -0.000122
H	 -2.468853	 -0.861886	 -0.882833
H	 -2.468942	 -0.861421	 0.883154
C	 -1.289348	 1.845245	 0.014665
C	 0.095798	 2.468166	 0.012818
H	 -1.845139	 2.160548	 0.898735
H	 -1.855416	 2.178249	 -0.856302
C	 0.049777	 3.995421	 0.028821
H	 0.639767	 2.100402	 0.877404
H	 0.629590	 2.118063	 -0.865358
H	 -0.459748	 4.367438	 0.913362
H	 1.051006	 4.413011	 0.026691
H	 -0.470684	 4.385300	 -0.841534

	symmetry c1
}
set optking {
	frozen_dihedral = ("
		6 3 2 4
	")
}

ee = optimize('scf')
oeprop('DIPOLE', 'QUADRUPOLE', 'MULLIKEN_CHARGES')
f=open( 'psi4out.xyz', 'w' )
f.write( "15  " )
f.write( str(ee) + "\n" )
f.write( MOL.save_string_xyz() )
f.close()
--------------------------------------------------------------------------

    Molecular point group: c1
  Charge       = 0
  Multiplicity = 1
  Basis Set: 6-31G*
  Basis Set:
  @DF-RHF Final Energy:  -232.13425172989429
    Total Energy =                       -232.1342517298941743
    Molecular point group: c1
  Basis Set: 6-31G*
  Basis Set:
  Basis Set: 6-31G*
  Basis Set:
  @DF-RHF Final Energy:  -232.13516887550770
    Total Energy =                       -232.1351688755077021
  Basis Set: 6-31G*
  Basis Set:
  Basis Set: 6-31G*
  Basis Set:
  @DF-RHF Final Energy:  -232.13549679908328
    Total Energy =                       -232.1354967990833984
  Basis Set: 6-31G*
  Basis Set:
  Charge       = 0
  Multiplicity = 1
  Basis Set: 6-31G*
  Basis Set:

    Orbital Energies (a.u.)
    -----------------------

    Doubly Occupied:

       1A    -20.549272     2A    -11.266737     3A    -11.263405
       4A    -11.213649     5A    -11.212620     6A     -1.372846
       7A     -1.056808     8A     -0.955312     9A     -0.877303
      10A     -0.808687    11A     -0.670742    12A     -0.651593
      13A     -0.629496    14A     -0.607468    15A     -0.563841
      16A     -0.546090    17A     -0.501880    18A     -0.488276
      19A     -0.478867    20A     -0.460223    21A     -0.407697

  @DF-RHF Final Energy:  -232.13549953734551

   => Energetics <=

    Nuclear Repulsion Energy =            189.3872223924114735
    One-Electron Energy =                -689.8798186736385105
    Two-Electron Energy =                 268.3570967438813568
    DFT Exchange-Correlation Energy =       0.0000000000000000
    Empirical Dispersion Energy =           0.0000000000000000
    PCM Polarization Energy =               0.0000000000000000
    EFP Energy =                            0.0000000000000000
    Total Energy =                       -232.1354995373457086
    Molecular point group: c1
  Basis Set: 6-31G*
  Basis Set:

  -Total Gradient:
     Atom            X                  Y                   Z
    ------   -----------------  -----------------  -----------------
       1       -0.000053411252     0.000003407745    -0.000007692937
       2        0.000019141575     0.000229372115     0.000071837741
       3       -0.000107668100    -0.000151154057    -0.000127842446
       4        0.000128602350    -0.000011593267     0.000031425686
       5        0.000015842739    -0.000031970846    -0.000007798439
       6       -0.000019384745     0.000007405301     0.000032783273
       7        0.000008896118    -0.000039639538     0.000002263640
       8        0.000001135362    -0.000026585668    -0.000009905961
       9        0.000002217234    -0.000021507601     0.000012360665
      10        0.000006657548     0.000024886696     0.000000354257
      11       -0.000000610838     0.000001285743    -0.000004612630
      12       -0.000004057547     0.000000857953     0.000006047792
      13        0.000001516641     0.000001674861    -0.000001333621
      14        0.000000025209     0.000012810803    -0.000000002196
      15        0.000001097706     0.000000749761     0.000002115177

  **** Optimization is complete! (in 4 steps) ****
    Final optimized geometry and variables:
    Molecular point group: c1

    Geometry (in Angstrom), charge = 0, multiplicity = 1:

    H           -2.280851798094    -1.281483642295     0.004335961831
    C           -1.413900985514    -1.935237371613    -0.010693422998
    O           -0.215748115776    -1.216756843592    -0.009175826219
    H           -1.467528215595    -2.554146946236    -0.900134681091
    H           -1.455403444351    -2.578124985477     0.862210539718
    C           -0.333905540171     0.175286714871     0.002211665687
    C            1.059602847304     0.778800803251     0.002821149165
    H           -0.885346883970     0.501102615143     0.884353206607
    H           -0.890663031776     0.515219744247    -0.871235335103
    C            1.034696561331     2.306738637855     0.015259911368
    H            1.596028740207     0.405051744753     0.869545069440
    H            1.590683004417     0.419163681448    -0.873112200892
    H            0.527755706321     2.687811598170     0.897449730934
    H            2.041554334772     2.710657485813     0.015351250398
    H            0.522219352578     2.702004230475    -0.857433779969

  Mulliken Charges: (a.u.)
   Center  Symbol    Alpha    Beta     Spin     Total
       1     H     0.42984  0.42984  0.00000  0.14033
       2     C     3.07588  3.07588  0.00000 -0.15175
       3     O     4.31085  4.31085  0.00000 -0.62170
       4     H     0.42089  0.42089  0.00000  0.15823
       5     H     0.42073  0.42073  0.00000  0.15853
       6     C     2.98132  2.98132  0.00000  0.03736
       7     C     3.15994  3.15994  0.00000 -0.31988
       8     H     0.43321  0.43321  0.00000  0.13358
       9     H     0.43322  0.43322  0.00000  0.13356
      10     C     3.24794  3.24794  0.00000 -0.49588
      11     H     0.41438  0.41438  0.00000  0.17124
      12     H     0.41438  0.41438  0.00000  0.17124
      13     H     0.42099  0.42099  0.00000  0.15803
      14     H     0.41545  0.41545  0.00000  0.16910
      15     H     0.42098  0.42098  0.00000  0.15803

   Total alpha = 21.00000, Total beta = 21.00000, Total charge = -0.00000
