                              Psi4 1.0.54 Driver

  ==> Input File <==

--------------------------------------------------------------------------
set {
	reference rhf
	basis cc-pvtz
}

set_num_threads( 4 )
memory 2 gb

molecule MOL {
0 1

O	 3.532617	 0.248316	 0.961676
C	 2.841259	 0.166180	 -0.000295
C	 1.542794	 -0.614730	 -0.000853
C	 3.215702	 0.842434	 -1.299793
C	 0.288398	 0.247429	 0.000314
H	 1.557171	 -1.273139	 -0.866508
H	 1.557484	 -1.274998	 0.863344
C	 -0.993089	 -0.581367	 -0.000217
H	 0.305153	 0.900562	 -0.864701
H	 0.305567	 0.898805	 0.866656
C	 -2.258482	 0.271340	 0.000669
H	 -1.002280	 -1.233920	 -0.870484
H	 -1.002061	 -1.235367	 0.868958
C	 -3.544441	 -0.550271	 -0.000253
H	 -2.250545	 0.925250	 -0.867923
H	 -2.250598	 0.923423	 0.870642
C	 -4.804551	 0.308747	 0.000556
H	 -3.553737	 -1.201524	 -0.870151
H	 -3.553831	 -1.203282	 0.868313
H	 -4.842050	 0.949078	 -0.874436
H	 -5.698404	 -0.304480	 -0.000254
H	 -4.842277	 0.947103	 0.876982
H	 2.440376	 1.540829	 -1.595026
H	 4.151741	 1.366523	 -1.183374
H	 3.305164	 0.106956	 -2.091696

	symmetry c1
}
set optking {
	frozen_dihedral = ("
		1 2 3 6
	")
}

ee,wfn = optimize('scf', return_wfn=True)
oeprop( wfn, 'DIPOLE', 'QUADRUPOLE', 'MULLIKEN_CHARGES')
f=open( 'psi4out.xyz', 'w' )
f.write( "25  " )
f.write( str(ee) + "\n" )
f.write( MOL.save_string_xyz() )
f.close()
--------------------------------------------------------------------------

    Molecular point group: c1
  Charge       = 0
  Multiplicity = 1
  Basis Set: CC-PVTZ
  Basis Set:
  @DF-RHF Final Energy:  -387.27193857905536
    Total Energy =                       -387.2719385790551314
    Molecular point group: c1
  Basis Set: CC-PVTZ
  Basis Set:
  Basis Set: CC-PVTZ
  Basis Set:
  @DF-RHF Final Energy:  -387.27217029991965
    Total Energy =                       -387.2721702999198214
  Basis Set: CC-PVTZ
  Basis Set:
  Basis Set: CC-PVTZ
  Basis Set:
  @DF-RHF Final Energy:  -387.27248012401071
    Total Energy =                       -387.2724801240108263
  Basis Set: CC-PVTZ
  Basis Set:
  Basis Set: CC-PVTZ
  Basis Set:
  @DF-RHF Final Energy:  -387.27253622836901
    Total Energy =                       -387.2725362283692903
  Basis Set: CC-PVTZ
  Basis Set:
  Basis Set: CC-PVTZ
  Basis Set:
  @DF-RHF Final Energy:  -387.27253805411857
    Total Energy =                       -387.2725380541187405
  Basis Set: CC-PVTZ
  Basis Set:
  Charge       = 0
  Multiplicity = 1
  Basis Set: CC-PVTZ
  Basis Set:

    Orbital Energies (a.u.)
    -----------------------

    Doubly Occupied:

       1A    -20.537305     2A    -11.318930     3A    -11.230037
       4A    -11.227657     5A    -11.225880     6A    -11.221330
       7A    -11.217877     8A    -11.217258     9A    -11.210017
      10A     -1.396793    11A     -1.101963    12A     -1.061526
      13A     -1.012699    14A     -0.971806    15A     -0.896903
      16A     -0.820502    17A     -0.797283    18A     -0.733646
      19A     -0.669828    20A     -0.649778    21A     -0.640106
      22A     -0.614258    23A     -0.607210    24A     -0.589097
      25A     -0.566590    26A     -0.559822    27A     -0.544526
      28A     -0.538018    29A     -0.509755    30A     -0.503758
      31A     -0.490250    32A     -0.480286    33A     -0.469155
      34A     -0.468695    35A     -0.457519    36A     -0.398322

  @DF-RHF Final Energy:  -387.27253827573776

   => Energetics <=

    Nuclear Repulsion Energy =            439.6086858133226656
    One-Electron Energy =               -1395.8496797128166236
    Two-Electron Energy =                 568.9684556237559718
    DFT Exchange-Correlation Energy =       0.0000000000000000
    Empirical Dispersion Energy =           0.0000000000000000
    PCM Polarization Energy =               0.0000000000000000
    EFP Energy =                            0.0000000000000000
    Total Energy =                       -387.2725382757380430
    Molecular point group: c1
  Basis Set: CC-PVTZ
  Basis Set:

  -Total Gradient:
     Atom            X                  Y                   Z
    ------   -----------------  -----------------  -----------------
       1        0.000308026049    -0.000514651855    -0.000226606985
       2       -0.000368712001     0.000615501493     0.000381116851
       3       -0.000227007682     0.000355326994    -0.000500592586
       4       -0.000003520169    -0.000002317127    -0.000024354514
       5       -0.000001590550     0.000002230234    -0.000008354079
       6        0.000295781710    -0.000463015453     0.000348126658
       7        0.000001665450    -0.000008249557    -0.000004996793
       8       -0.000000353821     0.000005832643     0.000008251890
       9       -0.000007071293     0.000002875731     0.000002499279
      10       -0.000009578057    -0.000004169349    -0.000001634621
      11       -0.000002138465     0.000004560030     0.000004222982
      12        0.000007649797    -0.000000378975     0.000002210779
      13        0.000000748593     0.000003429716    -0.000000685547
      14        0.000000234578    -0.000000687079    -0.000001516689
      15       -0.000001884485     0.000001408988     0.000003697371
      16       -0.000000290726    -0.000003009094     0.000000350778
      17        0.000001241368     0.000001974944    -0.000005607164
      18       -0.000000818698    -0.000001254004     0.000001628461
      19        0.000001194106     0.000003758800    -0.000000974186
      20       -0.000000893196     0.000000178887     0.000001888266
      21        0.000002256736    -0.000000361840    -0.000001230179
      22        0.000001415438    -0.000002323619    -0.000001588136
      23        0.000011217042    -0.000009255269     0.000008574205
      24       -0.000002057678    -0.000000595281     0.000001040308
      25       -0.000005514054     0.000013190041     0.000014533655

  **** Optimization is complete! (in 6 steps) ****
    Final optimized geometry and variables:
    Molecular point group: c1

    Geometry (in Angstrom), charge = 0, multiplicity = 1:

    O            3.541658461541     0.157818815016     0.957836841073
    C            2.861242763705     0.118013173605    -0.015395109202
    C            1.574743286727    -0.683540487026    -0.039879726081
    C            3.254401051537     0.855086725464    -1.275779240903
    C            0.318029210279     0.194182275741    -0.023889163648
    H            1.567809244108    -1.316459920505    -0.922828915682
    H            1.586057202456    -1.325520049493     0.830617543047
    C           -0.965703914904    -0.628493417531     0.044927965414
    H            0.290319034860     0.822362167320    -0.908580775974
    H            0.364757717408     0.862258839134     0.830985424670
    C           -2.228286283308     0.228058669469     0.065893084200
    H           -1.003606709104    -1.305171942137    -0.805317356594
    H           -0.940735761751    -1.254958868037     0.932419556898
    C           -3.513905591605    -0.591033937550     0.138044942540
    H           -2.253099108066     0.854783064488    -0.822574558166
    H           -2.187914341639     0.906118828305     0.914901475614
    C           -4.772333790332     0.270055954720     0.158264344741
    H           -3.555373057909    -1.269197930449    -0.709958002511
    H           -3.491153552744    -1.216087556646     1.026424877767
    H           -4.842137810542     0.882465017998    -0.734621787721
    H           -5.665652123258    -0.341553306355     0.209854254542
    H           -4.777394620235     0.935521671750     1.015071564673
    H            2.480775206766     1.554408975690    -1.569238883978
    H            4.179303097685     1.386333887836    -1.112485755410
    H            3.377641481768     0.149906393880    -2.090788554585

  Mulliken Charges: (a.u.)
   Center  Symbol    Alpha    Beta     Spin     Total
       1     O     4.17395  4.17395  0.00000 -0.34790
       2     C     2.85874  2.85874  0.00000  0.28253
       3     C     3.09440  3.09440  0.00000 -0.18881
       4     C     3.15809  3.15809  0.00000 -0.31617
       5     C     3.10828  3.10828  0.00000 -0.21655
       6     H     0.44951  0.44951  0.00000  0.10099
       7     H     0.43884  0.43884  0.00000  0.12232
       8     C     3.08901  3.08901  0.00000 -0.17802
       9     H     0.45092  0.45092  0.00000  0.09816
      10     H     0.44387  0.44387  0.00000  0.11225
      11     C     3.08616  3.08616  0.00000 -0.17232
      12     H     0.45392  0.45392  0.00000  0.09216
      13     H     0.45033  0.45033  0.00000  0.09935
      14     C     3.08507  3.08507  0.00000 -0.17014
      15     H     0.45528  0.45528  0.00000  0.08944
      16     H     0.45326  0.45326  0.00000  0.09347
      17     C     3.15033  3.15033  0.00000 -0.30067
      18     H     0.45453  0.45453  0.00000  0.09093
      19     H     0.45359  0.45359  0.00000  0.09282
      20     H     0.45522  0.45522  0.00000  0.08956
      21     H     0.44781  0.44781  0.00000  0.10438
      22     H     0.45450  0.45450  0.00000  0.09100
      23     H     0.44988  0.44988  0.00000  0.10025
      24     H     0.43429  0.43429  0.00000  0.13142
      25     H     0.45022  0.45022  0.00000  0.09957

   Total alpha = 36.00000, Total beta = 36.00000, Total charge =  0.00000

*** Psi4 exiting successfully. Buy a developer a beer!
