                              Psi4 1.0.54 Driver

  ==> Input File <==

--------------------------------------------------------------------------
set {
	reference rhf
	basis cc-pvtz
}

set_num_threads( 4 )
memory 2 gb

molecule MOL {
0 1

H	 -3.018157	 1.878655	 -0.637476
O	 -2.690191	 2.115208	 0.211602
C	 -1.301487	 1.993698	 0.230633
C	 -0.793473	 0.591216	 0.050087
H	 -0.973792	 2.370628	 1.192321
H	 -0.845938	 2.632327	 -0.523905
C	 -1.534243	 -0.493009	 -0.013340
H	 0.278089	 0.508532	 -0.028433
H	 -1.101195	 -1.466332	 -0.144046
H	 -2.604242	 -0.437780	 0.050785

	symmetry c1
}
set optking {
	frozen_dihedral = ("
		3 4 7 9
	")
}

ee,wfn = optimize('scf', return_wfn=True)
oeprop( wfn, 'DIPOLE', 'QUADRUPOLE', 'MULLIKEN_CHARGES')
f=open( 'psi4out.xyz', 'w' )
f.write( "10  " )
f.write( str(ee) + "\n" )
f.write( MOL.save_string_xyz() )
f.close()
--------------------------------------------------------------------------

    Molecular point group: c1
  Charge       = 0
  Multiplicity = 1
  Basis Set: CC-PVTZ
  Basis Set:
  @DF-RHF Final Energy:  -191.99879038922671
    Total Energy =                       -191.9987903892267980
    Molecular point group: c1
  Basis Set: CC-PVTZ
  Basis Set:
  Basis Set: CC-PVTZ
  Basis Set:
  @DF-RHF Final Energy:  -191.99883628505575
    Total Energy =                       -191.9988362850556882
  Basis Set: CC-PVTZ
  Basis Set:
  Basis Set: CC-PVTZ
  Basis Set:
  @DF-RHF Final Energy:  -191.99885543801301
    Total Energy =                       -191.9988554380130665
  Basis Set: CC-PVTZ
  Basis Set:
  Charge       = 0
  Multiplicity = 1
  Basis Set: CC-PVTZ
  Basis Set:

    Orbital Energies (a.u.)
    -----------------------

    Doubly Occupied:

       1A    -20.554517     2A    -11.278224     3A    -11.230446
       4A    -11.216662     5A     -1.374924     6A     -1.062296
       7A     -0.932317     8A     -0.771823     9A     -0.692424
      10A     -0.665456    11A     -0.621027    12A     -0.574261
      13A     -0.540621    14A     -0.496917    15A     -0.452479
      16A     -0.369131

  @DF-RHF Final Energy:  -191.99885571242433

   => Energetics <=

    Nuclear Repulsion Energy =            119.5379182066085093
    One-Electron Energy =                -497.4064970391567044
    Two-Electron Energy =                 185.8697231201238083
    DFT Exchange-Correlation Energy =       0.0000000000000000
    Empirical Dispersion Energy =           0.0000000000000000
    PCM Polarization Energy =               0.0000000000000000
    EFP Energy =                            0.0000000000000000
    Total Energy =                       -191.9988557124244153
    Molecular point group: c1
  Basis Set: CC-PVTZ
  Basis Set:

  -Total Gradient:
     Atom            X                  Y                   Z
    ------   -----------------  -----------------  -----------------
       1       -0.000001452079     0.000002610743    -0.000002669148
       2        0.000008286920     0.000037979311    -0.000016208938
       3       -0.000025982707    -0.000008608491     0.000087154932
       4        0.000029902917    -0.000049288753    -0.000076131422
       5        0.000005724361     0.000011730180    -0.000000190427
       6       -0.000021518087     0.000004025749    -0.000000976980
       7       -0.000010331648     0.000014381469    -0.000060476583
       8       -0.000006895027     0.000003432079     0.000001015792
       9        0.000000579344    -0.000012138016     0.000068850891
      10        0.000021686006    -0.000004124268    -0.000000368118

  **** Optimization is complete! (in 4 steps) ****
    Final optimized geometry and variables:
    Molecular point group: c1

    Geometry (in Angstrom), charge = 0, multiplicity = 1:

    H           -1.395410235406     0.771036090986    -0.727132826736
    O           -1.054169979492     1.004193933447     0.117621376434
    C            0.334736980835     0.883094864077     0.114033182466
    C            0.840785259929    -0.518848847090    -0.077249079317
    H            0.677794541983     1.258473684648     1.070940360078
    H            0.777619174920     1.523470536754    -0.646547053384
    C            0.099739299487    -1.603378223036    -0.129295916122
    H            1.910936466832    -0.600743627105    -0.173433730328
    H            0.542371024075    -2.571129104214    -0.269247003639
    H           -0.967189092229    -1.564259136578    -0.019794037438

  Mulliken Charges: (a.u.)
   Center  Symbol    Alpha    Beta     Spin     Total
       1     H     0.39105  0.39105  0.00000  0.21790
       2     O     4.19932  4.19932  0.00000 -0.39864
       3     C     2.95039  2.95039  0.00000  0.09922
       4     C     3.08495  3.08495  0.00000 -0.16990
       5     H     0.45341  0.45341  0.00000  0.09319
       6     H     0.46842  0.46842  0.00000  0.06316
       7     C     3.17677  3.17677  0.00000 -0.35355
       8     H     0.42328  0.42328  0.00000  0.15343
       9     H     0.42808  0.42808  0.00000  0.14385
      10     H     0.42432  0.42432  0.00000  0.15135

   Total alpha = 16.00000, Total beta = 16.00000, Total charge =  0.00000

*** Psi4 exiting successfully. Buy a developer a beer!
