  ==> Input File <==

--------------------------------------------------------------------------
set {
	reference rhf
	basis 6-31G*
}

set_num_threads( 4 )
memory 2 gb

molecule MOL {
0 1

H	 1.859905	 -0.733208	 0.665585
C	 1.008157	 -0.806875	 0.003465
O	 0.000000	 0.000000	 0.521119
H	 1.306886	 -0.482455	 -0.992127
H	 0.695533	 -1.848357	 -0.053716
C	 -1.165642	 0.000000	 -0.238270
H	 -1.228672	 0.883184	 -0.872070
H	 -2.003012	 0.000000	 0.445920
H	 -1.228672	 -0.883184	 -0.872070

	symmetry c1
}
set optking {
	frozen_dihedral = ("
		2 3 6 7
	")
}

ee = optimize('scf')
oeprop('DIPOLE', 'QUADRUPOLE', 'MULLIKEN_CHARGES')
f=open( 'psi4out.xyz', 'w' )
f.write( "9  " )
f.write( str(ee) + "\n" )
f.write( MOL.save_string_xyz() )
f.close()
--------------------------------------------------------------------------

    Molecular point group: c1
  Charge       = 0
  Multiplicity = 1
  Basis Set: 6-31G*
  Basis Set:
  @DF-RHF Final Energy:  -154.06139415558590
    Total Energy =                       -154.0613941555859583
    Molecular point group: c1
  Basis Set: 6-31G*
  Basis Set:
  Basis Set: 6-31G*
  Basis Set:
  @DF-RHF Final Energy:  -154.06158512227222
    Total Energy =                       -154.0615851222722199
  Basis Set: 6-31G*
  Basis Set:
  Basis Set: 6-31G*
  Basis Set:
  @DF-RHF Final Energy:  -154.06163181987017
    Total Energy =                       -154.0616318198701720
  Basis Set: 6-31G*
  Basis Set:
  Charge       = 0
  Multiplicity = 1
  Basis Set: 6-31G*
  Basis Set:

    Orbital Energies (a.u.)
    -----------------------

    Doubly Occupied:

       1A    -20.553280     2A    -11.265548     3A    -11.264701
       4A     -1.375266     5A     -0.975025     6A     -0.872707
       7A     -0.658161     8A     -0.652903     9A     -0.643336
      10A     -0.557118    11A     -0.528492    12A     -0.473480
      13A     -0.412816

  @DF-RHF Final Energy:  -154.06163221142791

   => Energetics <=

    Nuclear Repulsion Energy =             84.5352102841287945
    One-Electron Energy =                -376.7280180931602445
    Two-Electron Energy =                 138.1311755976034874
    DFT Exchange-Correlation Energy =       0.0000000000000000
    Empirical Dispersion Energy =           0.0000000000000000
    PCM Polarization Energy =               0.0000000000000000
    EFP Energy =                            0.0000000000000000
    Total Energy =                       -154.0616322114279910
    Molecular point group: c1
  Basis Set: 6-31G*
  Basis Set:

  -Total Gradient:
     Atom            X                  Y                   Z
    ------   -----------------  -----------------  -----------------
       1        0.000038063829    -0.000024595620    -0.000011878991
       2       -0.000687669550    -0.001796995634     0.001278292042
       3        0.000692035605     0.002930852078    -0.001245394027
       4       -0.000033485370     0.000000686740     0.000013869256
       5       -0.000035570559     0.000034046446    -0.000002679050
       6        0.001381831404    -0.002541767124    -0.002148469315
       7       -0.001336643283     0.001401838669     0.002124142062
       8       -0.000019512170     0.000000828417    -0.000007445947
       9        0.000000950094    -0.000004893972    -0.000000436029

  **** Optimization is complete! (in 4 steps) ****
    Final optimized geometry and variables:
    Molecular point group: c1

    Geometry (in Angstrom), charge = 0, multiplicity = 1:

    H            1.915439583109    -0.448262427575     0.599104996601
    C            1.074851333215    -0.527669970136    -0.076664252598
    O            0.054408724857     0.272032400990     0.430105867250
    H            1.391057170336    -0.202495380522    -1.066398076904
    H            0.770307457359    -1.570595073922    -0.137157272496
    C           -1.123896589157     0.279073992223    -0.318287157471
    H           -1.179582943479     1.167453931382    -0.941932431291
    H           -1.961764660143     0.299825645429     0.368270162250
    H           -1.214989093859    -0.603288587086    -0.945360833489

  Mulliken Charges: (a.u.)
   Center  Symbol    Alpha    Beta     Spin     Total
       1     H     0.41255  0.41255  0.00000  0.17491
       2     C     3.07921  3.07921  0.00000 -0.15842
       3     O     4.29901  4.29901  0.00000 -0.59803
       4     H     0.43040  0.43040  0.00000  0.13919
       5     H     0.42977  0.42977  0.00000  0.14045
       6     C     3.07814  3.07814  0.00000 -0.15629
       7     H     0.42444  0.42444  0.00000  0.15111
       8     H     0.41603  0.41603  0.00000  0.16793
       9     H     0.43043  0.43043  0.00000  0.13914

   Total alpha = 13.00000, Total beta = 13.00000, Total charge = -0.00000
