  ==> Input File <==

--------------------------------------------------------------------------
set {
	reference rhf
	basis cc-pvtz
}

set_num_threads( 4 )
memory 2 gb

molecule MOL {
0 1

H	 1.074451	 -0.970974	 -1.022237
O	 1.254570	 -0.051806	 -1.106726
C	 0.706474	 0.636793	 -0.025501
C	 -0.793473	 0.591216	 0.050087
H	 1.027431	 1.667168	 -0.123561
H	 1.116930	 0.272663	 0.914518
C	 -1.534243	 -0.493009	 -0.013340
H	 -1.266611	 1.552628	 0.164437
H	 -1.101195	 -1.466332	 -0.144046
H	 -2.604242	 -0.437780	 0.050785

	symmetry c1
}
set optking {
	frozen_dihedral = ("
		5 3 4 7
	")
}

ee = optimize('scf')
oeprop('DIPOLE', 'QUADRUPOLE', 'MULLIKEN_CHARGES')
f=open( 'psi4out.xyz', 'w' )
f.write( "10  " )
f.write( str(ee) + "\n" )
f.write( MOL.save_string_xyz() )
f.close()
--------------------------------------------------------------------------

    Molecular point group: c1
  Charge       = 0
  Multiplicity = 1
  Basis Set: CC-PVTZ
  Basis Set:
  @DF-RHF Final Energy:  -191.99227017265514
    Total Energy =                       -191.9922701726551111
    Molecular point group: c1
  Basis Set: CC-PVTZ
  Basis Set:
  Basis Set: CC-PVTZ
  Basis Set:
  @DF-RHF Final Energy:  -191.99256084969383
    Total Energy =                       -191.9925608496938025
  Basis Set: CC-PVTZ
  Basis Set:
  Basis Set: CC-PVTZ
  Basis Set:
  @DF-RHF Final Energy:  -191.99258907830691
    Total Energy =                       -191.9925890783068212
  Basis Set: CC-PVTZ
  Basis Set:
  Basis Set: CC-PVTZ
  Basis Set:
  @DF-RHF Final Energy:  -191.99259442934272
    Total Energy =                       -191.9925944293428302
  Basis Set: CC-PVTZ
  Basis Set:
  Basis Set: CC-PVTZ
  Basis Set:
  @DF-RHF Final Energy:  -191.99259772984209
    Total Energy =                       -191.9925977298421458
  Basis Set: CC-PVTZ
  Basis Set:
  Basis Set: CC-PVTZ
  Basis Set:
  @DF-RHF Final Energy:  -191.99259888970829
    Total Energy =                       -191.9925988897081481
  Basis Set: CC-PVTZ
  Basis Set:
  Charge       = 0
  Multiplicity = 1
  Basis Set: CC-PVTZ
  Basis Set:

    Orbital Energies (a.u.)
    -----------------------

    Doubly Occupied:

       1A    -20.551517     2A    -11.277034     3A    -11.233010
       4A    -11.224156     5A     -1.370569     6A     -1.065050
       7A     -0.931486     8A     -0.773338     9A     -0.701487
      10A     -0.652836    11A     -0.627194    12A     -0.578182
      13A     -0.536341    14A     -0.502650    15A     -0.443528
      16A     -0.375163

  @DF-RHF Final Energy:  -191.99259897351055

   => Energetics <=

    Nuclear Repulsion Energy =            118.7104931210328260
    One-Electron Energy =                -495.7190964456095230
    Two-Electron Energy =                 185.0160043510663002
    DFT Exchange-Correlation Energy =       0.0000000000000000
    Empirical Dispersion Energy =           0.0000000000000000
    PCM Polarization Energy =               0.0000000000000000
    EFP Energy =                            0.0000000000000000
    Total Energy =                       -191.9925989735104110
    Molecular point group: c1
  Basis Set: CC-PVTZ
  Basis Set:

  -Total Gradient:
     Atom            X                  Y                   Z
    ------   -----------------  -----------------  -----------------
       1        0.000001614395     0.000001413310     0.000000599587
       2       -0.000002209794    -0.000003377045     0.000002334583
       3       -0.000032973449    -0.000199403206    -0.000994875245
       4       -0.000073100060     0.000171299643    -0.001531206703
       5        0.000052025356     0.000126839976     0.001300893431
       6        0.000001191150    -0.000002634643    -0.000004850921
       7        0.000053781049    -0.000083531003     0.001227142739
       8        0.000001252562     0.000000899067    -0.000001940791
       9       -0.000000244895    -0.000004486069     0.000003218614
      10       -0.000001336311    -0.000007020030    -0.000001315294

  **** Optimization is complete! (in 7 steps) ****
    Final optimized geometry and variables:
    Molecular point group: c1

    Geometry (in Angstrom), charge = 0, multiplicity = 1:

    H            1.036405270090    -1.117009094484    -0.749612117053
    O            1.288993126963    -0.213257702606    -0.786128354119
    C            0.727182166016     0.493085124103     0.282292420924
    C           -0.784925111129     0.453081964762     0.342640651996
    H            1.055065361365     1.516464416488     0.173200136379
    H            1.129479175671     0.135634467952     1.227578421210
    C           -1.515274623362    -0.638317107959     0.285544574653
    H           -1.278686151234     1.400357464146     0.472512740723
    H           -1.083719559429    -1.617263259393     0.167408234176
    H           -2.586149716352    -0.599146479975     0.344438673734

  Mulliken Charges: (a.u.)
   Center  Symbol    Alpha    Beta     Spin     Total
       1     H     0.39240  0.39240  0.00000  0.21520
       2     O     4.19776  4.19776  0.00000 -0.39551
       3     C     2.95577  2.95577  0.00000  0.08845
       4     C     3.07493  3.07493  0.00000 -0.14986
       5     H     0.45308  0.45308  0.00000  0.09383
       6     H     0.46801  0.46801  0.00000  0.06397
       7     C     3.17210  3.17210  0.00000 -0.34421
       8     H     0.41914  0.41914  0.00000  0.16171
       9     H     0.44109  0.44109  0.00000  0.11782
      10     H     0.42571  0.42571  0.00000  0.14859

   Total alpha = 16.00000, Total beta = 16.00000, Total charge = -0.00000
