  ==> Input File <==

--------------------------------------------------------------------------
set {
	reference rhf
	basis cc-pvtz
}

set_num_threads( 4 )
memory 2 gb

molecule MOL {
0 1

O	 -1.751771	 -1.985239	 -1.146026
C	 -0.773166	 -1.593579	 -0.606782
C	 0.531007	 -2.345461	 -0.519237
O	 -0.695554	 -0.422406	 0.000602
C	 0.494091	 -3.701869	 -1.204631
H	 0.776289	 -2.441106	 0.532732
H	 1.298023	 -1.708347	 -0.945510
H	 -0.261105	 -4.339792	 -0.765369
H	 1.454790	 -4.193061	 -1.109046
H	 0.265364	 -3.600390	 -2.257063
C	 -1.852370	 0.402254	 0.000718
C	 -3.063338	 -0.501097	 -0.000437
H	 -1.831732	 1.039442	 -0.872158
H	 -1.832493	 1.038301	 0.874430
H	 -3.071944	 -1.133732	 -0.879113
H	 -3.966302	 0.097976	 -0.000483
H	 -3.072764	 -1.134834	 0.877435

	symmetry c1
}
set optking {
	frozen_dihedral = ("
		2 4 11 13
	")
}

ee = optimize('scf')
oeprop('DIPOLE', 'QUADRUPOLE', 'MULLIKEN_CHARGES')
f=open( 'psi4out.xyz', 'w' )
f.write( "17  " )
f.write( str(ee) + "\n" )
f.write( MOL.save_string_xyz() )
f.close()
--------------------------------------------------------------------------

    Molecular point group: c1
  Charge       = 0
  Multiplicity = 1
  Basis Set: CC-PVTZ
  Basis Set:
  @DF-RHF Final Energy:  -344.98984311117226
    Total Energy =                       -344.9898431111721493
    Molecular point group: c1
  Basis Set: CC-PVTZ
  Basis Set:
  Basis Set: CC-PVTZ
  Basis Set:
  @DF-RHF Final Energy:  -345.02197093873713
    Total Energy =                       -345.0219709387371267
  Basis Set: CC-PVTZ
  Basis Set:
  Basis Set: CC-PVTZ
  Basis Set:
  @DF-RHF Final Energy:  -345.02902034447055
    Total Energy =                       -345.0290203444703820
  Basis Set: CC-PVTZ
  Basis Set:
  Basis Set: CC-PVTZ
  Basis Set:
  @DF-RHF Final Energy:  -345.02809538004044
    Total Energy =                       -345.0280953800403267
  Basis Set: CC-PVTZ
  Basis Set:
  @DF-RHF Final Energy:  -345.03152858202230
    Total Energy =                       -345.0315285820223608
  @DF-RHF Final Energy:  -345.03228101309520
    Total Energy =                       -345.0322810130952575
  Basis Set: CC-PVTZ
  Basis Set:
  @DF-RHF Final Energy:  -345.03233548887528
    Total Energy =                       -345.0323354888748781
  Basis Set: CC-PVTZ
  Basis Set:
  Basis Set: CC-PVTZ
  Basis Set:
  @DF-RHF Final Energy:  -345.03234553638316
    Total Energy =                       -345.0323455363830476
  Basis Set: CC-PVTZ
  Basis Set:
  Basis Set: CC-PVTZ
  Basis Set:
  @DF-RHF Final Energy:  -345.03234724602225
    Total Energy =                       -345.0323472460217431
  Basis Set: CC-PVTZ
  Basis Set:
  Charge       = 0
  Multiplicity = 1
  Basis Set: CC-PVTZ
  Basis Set:

    Orbital Energies (a.u.)
    -----------------------

    Doubly Occupied:

       1A    -20.590994     2A    -20.530736     3A    -11.364162
       4A    -11.287367     5A    -11.234184     6A    -11.214613
       7A    -11.212651     8A     -1.465502     9A     -1.364492
      10A     -1.068625    11A     -1.028744    12A     -0.920055
      13A     -0.858542    14A     -0.746693    15A     -0.699300
      16A     -0.683050    17A     -0.667559    18A     -0.628097
      19A     -0.608316    20A     -0.567850    21A     -0.546414
      22A     -0.530997    23A     -0.522048    24A     -0.517741
      25A     -0.494927    26A     -0.492176    27A     -0.451409
      28A     -0.432232

  @DF-RHF Final Energy:  -345.03234769188333

   => Energetics <=

    Nuclear Repulsion Energy =            319.6303355122453809
    One-Electron Energy =               -1103.8664153589681973
    Two-Electron Energy =                 439.2037321548395994
    DFT Exchange-Correlation Energy =       0.0000000000000000
    Empirical Dispersion Energy =           0.0000000000000000
    PCM Polarization Energy =               0.0000000000000000
    EFP Energy =                            0.0000000000000000
    Total Energy =                       -345.0323476918831602
    Molecular point group: c1
  Basis Set: CC-PVTZ
  Basis Set:

  -Total Gradient:
     Atom            X                  Y                   Z
    ------   -----------------  -----------------  -----------------
       1        0.000035963474     0.000000513719    -0.000017735600
       2       -0.001417153478    -0.002455597236     0.004984593100
       3       -0.000012934532    -0.000035318425     0.000026692239
       4        0.002883025040     0.004722398038    -0.006787360674
       5        0.000013565695     0.000007671994    -0.000007756596
       6        0.000010155842     0.000008693352    -0.000013129804
       7       -0.000001950530     0.000004554454    -0.000018786762
       8       -0.000001169149    -0.000000249905     0.000001851419
       9        0.000002702885    -0.000007599344     0.000000773124
      10       -0.000002664313     0.000000390935     0.000006887070
      11       -0.004687665058    -0.006498903702    -0.001223139190
      12       -0.000051186719    -0.000018081943    -0.000023282274
      13        0.003229791318     0.004240879945     0.003030358698
      14       -0.000002494109     0.000012695101     0.000003683153
      15        0.000000098952     0.000029124917     0.000043408713
      16        0.000016563030    -0.000002535724    -0.000001607078
      17       -0.000014648348    -0.000008636175    -0.000005449539

  **** Optimization is complete! (in 10 steps) ****
    Final optimized geometry and variables:
    Molecular point group: c1

    Geometry (in Angstrom), charge = 0, multiplicity = 1:

    O           -0.595452318653    -0.611529568892    -0.869539807784
    C            0.279706411493    -0.189822729245    -0.193418306049
    C            1.570335055700    -0.918510651911     0.093417566684
    O            0.271892073841     0.993110354698     0.393076690437
    C            1.686094612744    -2.251742356538    -0.627565717866
    H            1.632656644475    -1.046065672157     1.168771693236
    H            2.383027738307    -0.252418903278    -0.172993555824
    H            0.882695807758    -2.918651309578    -0.345109696406
    H            2.628065875608    -2.726909530770    -0.381728943308
    H            1.640215625761    -2.119789121753    -1.700409034809
    C           -0.886867165417     1.820278879791     0.474062074875
    C           -2.213949958938     1.132257188899     0.728040843490
    H           -0.907352264384     2.460527973687    -0.398689478516
    H           -0.660804720012     2.462851733844     1.313296878549
    H           -2.577435297092     0.594087231036    -0.129963807512
    H           -2.933174743932     1.898487321463     0.996416508106
    H           -2.136027006340     0.444421321055     1.562000522665

  Mulliken Charges: (a.u.)
   Center  Symbol    Alpha    Beta     Spin     Total
       1     O     4.19912  4.19912  0.00000 -0.39824
       2     C     2.80181  2.80181  0.00000  0.39637
       3     C     3.09400  3.09400  0.00000 -0.18800
       4     O     4.15462  4.15462  0.00000 -0.30924
       5     C     3.13986  3.13986  0.00000 -0.27973
       6     H     0.44353  0.44353  0.00000  0.11294
       7     H     0.44030  0.44030  0.00000  0.11939
       8     H     0.44853  0.44853  0.00000  0.10293
       9     H     0.45079  0.45079  0.00000  0.09843
      10     H     0.44895  0.44895  0.00000  0.10209
      11     C     2.98308  2.98308  0.00000  0.03384
      12     C     3.15539  3.15539  0.00000 -0.31078
      13     H     0.45516  0.45516  0.00000  0.08967
      14     H     0.44913  0.44913  0.00000  0.10175
      15     H     0.43249  0.43249  0.00000  0.13502
      16     H     0.45046  0.45046  0.00000  0.09907
      17     H     0.45276  0.45276  0.00000  0.09449

   Total alpha = 28.00000, Total beta = 28.00000, Total charge = -0.00000
