  ==> Input File <==

--------------------------------------------------------------------------
set {
	reference rhf
	basis 6-31G*
}

set_num_threads( 4 )
memory 2 gb

molecule MOL {
0 1

H	 -2.040725	 -2.854641	 -0.902414
C	 -2.589970	 -1.906468	 -0.956444
C	 -2.513548	 -1.054115	 0.284629
O	 -3.186931	 -1.617423	 -1.942264
C	 -1.069241	 -0.813666	 0.745518
H	 -3.030796	 -0.121454	 0.091479
H	 -3.056528	 -1.580947	 1.068387
C	 -0.252658	 0.041456	 -0.226725
H	 -1.094439	 -0.330185	 1.717575
H	 -0.574109	 -1.771631	 0.896863
C	 1.180775	 0.282413	 0.250794
H	 -0.753927	 0.996792	 -0.367825
H	 -0.229291	 -0.433337	 -1.205789
C	 2.148627	 -0.814315	 -0.201312
H	 1.516199	 1.249228	 -0.115937
H	 1.192670	 0.346017	 1.338083
C	 3.580890	 -0.659131	 0.322722
H	 2.166869	 -0.852443	 -1.289387
H	 1.762857	 -1.776509	 0.128956
C	 4.324889	 0.564933	 -0.213704
H	 4.142010	 -1.551473	 0.056605
H	 3.564836	 -0.624694	 1.410140
H	 4.342616	 0.565491	 -1.300421
H	 3.866655	 1.493402	 0.110242
H	 5.353900	 0.572371	 0.132816

	symmetry c1
}
set optking {
	frozen_dihedral = ("
		12 8 11 14
	")
}

ee = optimize('scf')
oeprop('DIPOLE', 'QUADRUPOLE', 'MULLIKEN_CHARGES')
f=open( 'psi4out.xyz', 'w' )
f.write( "25  " )
f.write( str(ee) + "\n" )
f.write( MOL.save_string_xyz() )
f.close()
--------------------------------------------------------------------------

    Molecular point group: c1
  Charge       = 0
  Multiplicity = 1
  Basis Set: 6-31G*
  Basis Set:
  @DF-RHF Final Energy:  -387.11892480772480
    Total Energy =                       -387.1189248077249658
    Molecular point group: c1
  Basis Set: 6-31G*
  Basis Set:
  Basis Set: 6-31G*
  Basis Set:
  @DF-RHF Final Energy:  -387.11889929212555
    Total Energy =                       -387.1188992921250929
  Basis Set: 6-31G*
  Basis Set:
  Basis Set: 6-31G*
  Basis Set:
  @DF-RHF Final Energy:  -387.11669662489140
    Total Energy =                       -387.1166966248907784
  Basis Set: 6-31G*
  Basis Set:
  Basis Set: 6-31G*
  Basis Set:
  @DF-RHF Final Energy:  -387.11908514825183
    Total Energy =                       -387.1190851482519975
  Basis Set: 6-31G*
  Basis Set:
  @DF-RHF Final Energy:  -387.11915919381323
    Total Energy =                       -387.1191591938135161
  @DF-RHF Final Energy:  -387.11918129667487
    Total Energy =                       -387.1191812966753787
  @DF-RHF Final Energy:  -387.11917381459011
    Total Energy =                       -387.1191738145906811
  Basis Set: 6-31G*
  Basis Set:
  @DF-RHF Final Energy:  -387.11917943002999
    Total Energy =                       -387.1191794300303854
  Basis Set: 6-31G*
  Basis Set:
  Basis Set: 6-31G*
  Basis Set:
  @DF-RHF Final Energy:  -387.11918105384984
    Total Energy =                       -387.1191810538500704
  Basis Set: 6-31G*
  Basis Set:
  Basis Set: 6-31G*
  Basis Set:
  @DF-RHF Final Energy:  -387.11918306304102
    Total Energy =                       -387.1191830630410777
  Basis Set: 6-31G*
  Basis Set:
  Charge       = 0
  Multiplicity = 1
  Basis Set: 6-31G*
  Basis Set:

    Orbital Energies (a.u.)
    -----------------------

    Doubly Occupied:

       1A    -20.562015     2A    -11.326184     3A    -11.235386
       4A    -11.234650     5A    -11.223929     6A    -11.219879
       7A    -11.219055     8A    -11.218425     9A    -11.210897
      10A     -1.401963    11A     -1.103875    12A     -1.069342
      13A     -1.012500    14A     -0.941218    15A     -0.879834
      16A     -0.821324    17A     -0.790203    18A     -0.778929
      19A     -0.665623    20A     -0.651761    21A     -0.632792
      22A     -0.625593    23A     -0.609853    24A     -0.593110
      25A     -0.573277    26A     -0.560911    27A     -0.529935
      28A     -0.521608    29A     -0.515769    30A     -0.497074
      31A     -0.489069    32A     -0.479984    33A     -0.464568
      34A     -0.450419    35A     -0.445690    36A     -0.409555

  @DF-RHF Final Energy:  -387.11918339307368

   => Energetics <=

    Nuclear Repulsion Energy =            443.3372719991804729
    One-Electron Energy =               -1402.9805131735731720
    Two-Electron Energy =                 572.5240577813185610
    DFT Exchange-Correlation Energy =       0.0000000000000000
    Empirical Dispersion Energy =           0.0000000000000000
    PCM Polarization Energy =               0.0000000000000000
    EFP Energy =                            0.0000000000000000
    Total Energy =                       -387.1191833930740813
    Molecular point group: c1
  Basis Set: 6-31G*
  Basis Set:

  -Total Gradient:
     Atom            X                  Y                   Z
    ------   -----------------  -----------------  -----------------
       1       -0.000002119723    -0.000001609497     0.000001880959
       2        0.000006133922    -0.000000122334    -0.000000700462
       3       -0.000011984017    -0.000002484944     0.000004622634
       4        0.000000703429     0.000001837389     0.000001591161
       5       -0.000001224092     0.000000435402    -0.000001488026
       6        0.000001266790     0.000000955933     0.000000784505
       7        0.000000564794    -0.000000502256    -0.000000915224
       8       -0.000863075436     0.000360809093     0.002643272567
       9        0.000000281000    -0.000002035391     0.000000628383
      10       -0.000002940937    -0.000000959220    -0.000001980465
      11       -0.000305048575    -0.001418314725     0.001738365113
      12        0.000808568381     0.000037155522    -0.002681241949
      13        0.000003853481     0.000001604842     0.000005113693
      14        0.000361864621     0.001025927630    -0.001718841865
      15       -0.000001394461     0.000001969382     0.000003061064
      16       -0.000000020380    -0.000006349721    -0.000005719020
      17        0.000002006988    -0.000001032976     0.000007051203
      18       -0.000001770004    -0.000001983207     0.000000284555
      19       -0.000004144804     0.000003366086     0.000002069680
      20       -0.000001322561     0.000001411850    -0.000000616329
      21        0.000005955877     0.000004902446     0.000000815046
      22        0.000000543996    -0.000004904497     0.000000501709
      23       -0.000003723308     0.000000218728     0.000002317778
      24        0.000006414915     0.000000092916     0.000001569144
      25        0.000000610103    -0.000000388450    -0.000002425848

  **** Optimization is complete! (in 11 steps) ****
    Final optimized geometry and variables:
    Molecular point group: c1

    Geometry (in Angstrom), charge = 0, multiplicity = 1:

    H           -2.206347214630    -2.210670816176    -0.630259335262
    C           -2.760751797548    -1.267308313862    -0.710844772708
    C           -2.705043715713    -0.388817443006     0.513126089972
    O           -3.352091613925    -1.005782072604    -1.707722606895
    C           -1.268071980925    -0.125630222365     0.984404594809
    H           -3.227976923846     0.535211945761     0.294830393430
    H           -3.252218768126    -0.903837980392     1.301705121004
    C           -0.456453781422     0.733509062224     0.010865140377
    H           -1.307302546591     0.369222658037     1.950328331964
    H           -0.765310045805    -1.076155800097     1.152135649513
    C            0.997749430752     0.964397045980     0.453902500265
    H           -0.955967061435     1.688972296165    -0.126630678331
    H           -0.454991299599     0.270458798565    -0.974483114945
    C            1.955957119238    -0.139417960982    -0.007055391380
    H            1.336610406929     1.915151196843     0.054283247483
    H            1.039887519561     1.060004488599     1.537620645604
    C            3.385180708496    -0.011070806948     0.532058708921
    H            1.982301658040    -0.151221597296    -1.095176251347
    H            1.562449722882    -1.107589771602     0.296389870588
    C            4.138110194216     1.229431142809     0.047573590309
    H            3.944328356534    -0.895597973353     0.237162761767
    H            3.360745054187    -0.016921188769     1.619943281114
    H            4.162913344353     1.271698751655    -1.038032902282
    H            3.682349560366     2.147068575586     0.404289656010
    H            5.164764523665     1.218301818995     0.400272151091

  Mulliken Charges: (a.u.)
   Center  Symbol    Alpha    Beta     Spin     Total
       1     H     0.43264  0.43264  0.00000  0.13471
       2     C     2.83062  2.83062  0.00000  0.33876
       3     C     3.20839  3.20839  0.00000 -0.41678
       4     O     4.23787  4.23787  0.00000 -0.47573
       5     C     3.16729  3.16729  0.00000 -0.33458
       6     H     0.39968  0.39968  0.00000  0.20064
       7     H     0.40660  0.40660  0.00000  0.18680
       8     C     3.15816  3.15816  0.00000 -0.31632
       9     H     0.41255  0.41255  0.00000  0.17489
      10     H     0.41878  0.41878  0.00000  0.16244
      11     C     3.15721  3.15721  0.00000 -0.31442
      12     H     0.41573  0.41573  0.00000  0.16853
      13     H     0.41754  0.41754  0.00000  0.16493
      14     C     3.15428  3.15428  0.00000 -0.30855
      15     H     0.41629  0.41629  0.00000  0.16742
      16     H     0.42303  0.42303  0.00000  0.15395
      17     C     3.15251  3.15251  0.00000 -0.30502
      18     H     0.42166  0.42166  0.00000  0.15668
      19     H     0.42381  0.42381  0.00000  0.15239
      20     C     3.24174  3.24174  0.00000 -0.48348
      21     H     0.42036  0.42036  0.00000  0.15929
      22     H     0.42335  0.42335  0.00000  0.15330
      23     H     0.42145  0.42145  0.00000  0.15711
      24     H     0.41990  0.41990  0.00000  0.16020
      25     H     0.41858  0.41858  0.00000  0.16284

   Total alpha = 36.00000, Total beta = 36.00000, Total charge =  0.00000
