  ==> Input File <==

--------------------------------------------------------------------------
set {
	reference rhf
	basis 6-31G*
}

set_num_threads( 4 )
memory 2 gb

molecule MOL {
0 1

H	 -1.889430	 -0.879976	 -0.350170
O	 -2.035884	 -0.060112	 0.102722
C	 -0.955155	 0.788182	 -0.092531
C	 0.353668	 0.040312	 -0.004810
H	 -0.985057	 1.290372	 -1.054184
H	 -0.974469	 1.533190	 0.688632
F	 0.394464	 -0.937475	 -0.903053
F	 1.368604	 0.853376	 -0.249821
F	 0.546173	 -0.502608	 1.179981

	symmetry c1
}
set optking {
	frozen_dihedral = ("
		1 2 3 5
	")
}

ee = optimize('scf')
oeprop('DIPOLE', 'QUADRUPOLE', 'MULLIKEN_CHARGES')
f=open( 'psi4out.xyz', 'w' )
f.write( "9  " )
f.write( str(ee) + "\n" )
f.write( MOL.save_string_xyz() )
f.close()
--------------------------------------------------------------------------

    Molecular point group: c1
  Charge       = 0
  Multiplicity = 1
  Basis Set: 6-31G*
  Basis Set:
  @DF-RHF Final Energy:  -450.66145042756682
    Total Energy =                       -450.6614504275668764
    Molecular point group: c1
  Basis Set: 6-31G*
  Basis Set:
  Basis Set: 6-31G*
  Basis Set:
  @DF-RHF Final Energy:  -450.66154492521599
    Total Energy =                       -450.6615449252159351
  Basis Set: 6-31G*
  Basis Set:
  Basis Set: 6-31G*
  Basis Set:
  @DF-RHF Final Energy:  -450.66156950828571
    Total Energy =                       -450.6615695082857656
  Basis Set: 6-31G*
  Basis Set:
  Charge       = 0
  Multiplicity = 1
  Basis Set: 6-31G*
  Basis Set:

    Orbital Energies (a.u.)
    -----------------------

    Doubly Occupied:

       1A    -26.349339     2A    -26.348056     3A    -26.343772
       4A    -20.588702     5A    -11.505557     6A    -11.309360
       7A     -1.745253     8A     -1.644460     9A     -1.641274
      10A     -1.400880    11A     -1.050220    12A     -0.927278
      13A     -0.835014    14A     -0.833465    15A     -0.813387
      16A     -0.723115    17A     -0.716525    18A     -0.691898
      19A     -0.668856    20A     -0.664625    21A     -0.647367
      22A     -0.632762    23A     -0.622065    24A     -0.527776
      25A     -0.479015

  @DF-RHF Final Energy:  -450.66157061733168

   => Energetics <=

    Nuclear Repulsion Energy =            277.3013824845130557
    One-Electron Energy =               -1176.5058618341581678
    Two-Electron Energy =                 448.5429087323131512
    DFT Exchange-Correlation Energy =       0.0000000000000000
    Empirical Dispersion Energy =           0.0000000000000000
    PCM Polarization Energy =               0.0000000000000000
    EFP Energy =                            0.0000000000000000
    Total Energy =                       -450.6615706173319609
    Molecular point group: c1
  Basis Set: 6-31G*
  Basis Set:

  -Total Gradient:
     Atom            X                  Y                   Z
    ------   -----------------  -----------------  -----------------
       1        0.001436924702    -0.001253153915     0.002569057343
       2       -0.002224726788     0.002167986138    -0.002783400961
       3        0.002250021934    -0.003077081278    -0.001054641559
       4       -0.000132006232    -0.000067516436     0.000068980808
       5       -0.001409509289     0.002124707636     0.001240178161
       6        0.000013964617    -0.000005910103     0.000014733079
       7        0.000013919645     0.000066015394     0.000133380743
       8        0.000086216630     0.000084365416    -0.000074448461
       9       -0.000034805215    -0.000039412853    -0.000113839154

  **** Optimization is complete! (in 4 steps) ****
    Final optimized geometry and variables:
    Molecular point group: c1

    Geometry (in Angstrom), charge = 0, multiplicity = 1:

    H           -1.914333048926    -0.872693893074    -0.384605617505
    O           -2.045209547405    -0.060934008413     0.088011721553
    C           -0.958084021075     0.784304135995    -0.093068473343
    C            0.354407611343     0.045683505380    -0.006174816590
    H           -0.996875314318     1.307554325730    -1.042944182020
    H           -0.978712024712     1.521634641622     0.696403499499
    F            0.387045822646    -0.953855190453    -0.882535572671
    F            1.363614032449     0.853871141901    -0.277100091644
    F            0.558872563446    -0.476749796724     1.187008862187

  Mulliken Charges: (a.u.)
   Center  Symbol    Alpha    Beta     Spin     Total
       1     H     0.27198  0.27198  0.00000  0.45604
       2     O     4.36608  4.36608  0.00000 -0.73215
       3     C     3.04033  3.04033  0.00000 -0.08066
       4     C     2.47457  2.47457  0.00000  1.05087
       5     H     0.40921  0.40921  0.00000  0.18157
       6     H     0.39739  0.39739  0.00000  0.20521
       7     F     4.68612  4.68612  0.00000 -0.37223
       8     F     4.67940  4.67940  0.00000 -0.35880
       9     F     4.67492  4.67492  0.00000 -0.34984

   Total alpha = 25.00000, Total beta = 25.00000, Total charge = -0.00000
