  ==> Input File <==

--------------------------------------------------------------------------
set {
	reference rhf
	basis 6-31G*
}

set_num_threads( 4 )
memory 2 gb

molecule MOL {
0 1

O	 -0.682937	 1.318834	 -0.186099
C	 -0.860635	 0.152188	 -0.042321
C	 -2.173363	 -0.477127	 0.338347
O	 0.083258	 -0.765189	 -0.202595
H	 -2.477673	 -1.180929	 -0.427595
H	 -2.923125	 0.290956	 0.455536
H	 -2.058825	 -1.029004	 1.264191
C	 1.391937	 -0.334737	 -0.569838
C	 1.353447	 0.980499	 -1.325696
H	 1.869512	 -1.108062	 -1.152102
H	 1.915100	 -0.226497	 0.369355
H	 2.365520	 1.319577	 -1.524352
H	 0.841087	 0.866440	 -2.272715
H	 0.847660	 1.741563	 -0.741422

	symmetry c1
}
set optking {
	frozen_dihedral = ("
		10 8 4 2
	")
}

ee = optimize('scf')
oeprop('DIPOLE', 'QUADRUPOLE', 'MULLIKEN_CHARGES')
f=open( 'psi4out.xyz', 'w' )
f.write( "14  " )
f.write( str(ee) + "\n" )
f.write( MOL.save_string_xyz() )
f.close()
--------------------------------------------------------------------------

    Molecular point group: c1
  Charge       = 0
  Multiplicity = 1
  Basis Set: 6-31G*
  Basis Set:
  @DF-RHF Final Energy:  -305.83729668423729
    Total Energy =                       -305.8372966842372875
    Molecular point group: c1
  Basis Set: 6-31G*
  Basis Set:
  Basis Set: 6-31G*
  Basis Set:
  @DF-RHF Final Energy:  -305.86054162377724
    Total Energy =                       -305.8605416237771237
  Basis Set: 6-31G*
  Basis Set:
  Basis Set: 6-31G*
  Basis Set:
  @DF-RHF Final Energy:  -305.86520321584078
    Total Energy =                       -305.8652032158406655
  Basis Set: 6-31G*
  Basis Set:
  Basis Set: 6-31G*
  Basis Set:
  @DF-RHF Final Energy:  -305.86197201868265
    Total Energy =                       -305.8619720186824225
  Basis Set: 6-31G*
  Basis Set:
  @DF-RHF Final Energy:  -305.86680321321285
    Total Energy =                       -305.8668032132127337
  Basis Set: 6-31G*
  Basis Set:
  @DF-RHF Final Energy:  -305.86697380451972
    Total Energy =                       -305.8669738045195459
  Basis Set: 6-31G*
  Basis Set:
  Basis Set: 6-31G*
  Basis Set:
  @DF-RHF Final Energy:  -305.86699531446010
    Total Energy =                       -305.8669953144599845
  Basis Set: 6-31G*
  Basis Set:
  Basis Set: 6-31G*
  Basis Set:
  @DF-RHF Final Energy:  -305.86699890582986
    Total Energy =                       -305.8669989058298597
  Basis Set: 6-31G*
  Basis Set:
  Charge       = 0
  Multiplicity = 1
  Basis Set: 6-31G*
  Basis Set:

    Orbital Energies (a.u.)
    -----------------------

    Doubly Occupied:

       1A    -20.599487     2A    -20.541857     3A    -11.375747
       4A    -11.291097     5A    -11.231186     6A    -11.216069
       7A     -1.462429     8A     -1.362300     9A     -1.055013
      10A     -0.996868    11A     -0.891322    12A     -0.750167
      13A     -0.693796    14A     -0.679909    15A     -0.666486
      16A     -0.614266    17A     -0.586402    18A     -0.569449
      19A     -0.548255    20A     -0.532781    21A     -0.512635
      22A     -0.495675    23A     -0.447930    24A     -0.430751

  @DF-RHF Final Energy:  -305.86699944782850

   => Energetics <=

    Nuclear Repulsion Energy =            249.2610622031251637
    One-Electron Energy =                -911.1523756836888879
    Two-Electron Energy =                 356.0243140327353331
    DFT Exchange-Correlation Energy =       0.0000000000000000
    Empirical Dispersion Energy =           0.0000000000000000
    PCM Polarization Energy =               0.0000000000000000
    EFP Energy =                            0.0000000000000000
    Total Energy =                       -305.8669994478283343
    Molecular point group: c1
  Basis Set: 6-31G*
  Basis Set:

  -Total Gradient:
     Atom            X                  Y                   Z
    ------   -----------------  -----------------  -----------------
       1       -0.000002004923    -0.000021687328     0.000022598685
       2       -0.001515333755    -0.000615453152    -0.005350518161
       3       -0.000015147299    -0.000004083736    -0.000077583198
       4        0.001862681483     0.001333953283     0.007321681293
       5        0.000006126461    -0.000014546449     0.000024916784
       6       -0.000001617643     0.000001296215     0.000008674871
       7        0.000004149660     0.000011168616     0.000028666787
       8        0.001849600542    -0.002904420602     0.002961360978
       9       -0.000012111373    -0.000002487169    -0.000005667727
      10       -0.002231853356     0.002197752616    -0.004936143176
      11        0.000008378405     0.000020280214    -0.000009696673
      12        0.000016330995    -0.000000703084    -0.000008877107
      13        0.000019193566     0.000000254038     0.000027981426
      14        0.000011607239    -0.000001323460    -0.000007394781

  **** Optimization is complete! (in 9 steps) ****
    Final optimized geometry and variables:
    Molecular point group: c1

    Geometry (in Angstrom), charge = 0, multiplicity = 1:

    O           -0.682789769966     1.191008977967     0.375991547357
    C           -0.764914216410     0.006213104908     0.349847772833
    C           -2.044964451405    -0.760983208417     0.555961269599
    O            0.249712006554    -0.824903604064     0.166145765922
    H           -2.256450048569    -1.363688498520    -0.319743468021
    H           -2.855544845630    -0.070523942272     0.735396998931
    H           -1.936475685852    -1.434012758479     1.398518482862
    C            1.557927089449    -0.419662162623    -0.244428993102
    C            1.652144604824     0.787637916852    -1.168119677706
    H            1.917641607360    -1.278265216322    -0.792977024218
    H            2.158685085058    -0.280870912039     0.644508937262
    H            2.666448053451     0.821176736886    -1.556345454651
    H            0.977767656972     0.683673066950    -2.011120728065
    H            1.436156752904     1.717647616533    -0.668688382879

  Mulliken Charges: (a.u.)
   Center  Symbol    Alpha    Beta     Spin     Total
       1     O     4.28273  4.28273  0.00000 -0.56546
       2     C     2.61834  2.61834  0.00000  0.76333
       3     C     3.28076  3.28076  0.00000 -0.56152
       4     O     4.31488  4.31488  0.00000 -0.62977
       5     H     0.40218  0.40218  0.00000  0.19565
       6     H     0.39789  0.39789  0.00000  0.20422
       7     H     0.40042  0.40042  0.00000  0.19916
       8     C     2.99217  2.99217  0.00000  0.01566
       9     C     3.26001  3.26001  0.00000 -0.52002
      10     H     0.41087  0.41087  0.00000  0.17826
      11     H     0.41276  0.41276  0.00000  0.17448
      12     H     0.42010  0.42010  0.00000  0.15979
      13     H     0.41531  0.41531  0.00000  0.16937
      14     H     0.39157  0.39157  0.00000  0.21686

   Total alpha = 24.00000, Total beta = 24.00000, Total charge =  0.00000
