  ==> Input File <==

--------------------------------------------------------------------------
set {
	reference rhf
	basis cc-pvtz
}

set_num_threads( 4 )
memory 2 gb

molecule MOL {
0 1

H	 1.468021	 0.829422	 -2.041123
O	 0.621754	 0.665875	 -1.668660
C	 0.700177	 0.619554	 -0.266242
C	 -0.713111	 0.588314	 0.266177
H	 1.213129	 1.496057	 0.117877
H	 1.233999	 -0.267899	 0.063664
O	 -1.421673	 -0.521378	 -0.196983
H	 -1.244794	 1.469161	 -0.069059
H	 -0.685100	 0.604721	 1.352683
H	 -0.933408	 -1.297830	 0.014544

	symmetry c1
}
set optking {
	frozen_dihedral = ("
		5 3 4 7
	")
}

ee = optimize('scf')
oeprop('DIPOLE', 'QUADRUPOLE', 'MULLIKEN_CHARGES')
f=open( 'psi4out.xyz', 'w' )
f.write( "10  " )
f.write( str(ee) + "\n" )
f.write( MOL.save_string_xyz() )
f.close()
--------------------------------------------------------------------------

    Molecular point group: c1
  Charge       = 0
  Multiplicity = 1
  Basis Set: CC-PVTZ
  Basis Set:
  @DF-RHF Final Energy:  -229.02258871768166
    Total Energy =                       -229.0225887176816855
    Molecular point group: c1
  Basis Set: CC-PVTZ
  Basis Set:
  Basis Set: CC-PVTZ
  Basis Set:
  @DF-RHF Final Energy:  -229.02316167537953
    Total Energy =                       -229.0231616753795265
  Basis Set: CC-PVTZ
  Basis Set:
  Basis Set: CC-PVTZ
  Basis Set:
  @DF-RHF Final Energy:  -229.02324797857446
    Total Energy =                       -229.0232479785744601
  Basis Set: CC-PVTZ
  Basis Set:
  Basis Set: CC-PVTZ
  Basis Set:
  @DF-RHF Final Energy:  -229.02325745368307
    Total Energy =                       -229.0232574536829020
  Basis Set: CC-PVTZ
  Basis Set:
  Basis Set: CC-PVTZ
  Basis Set:
  @DF-RHF Final Energy:  -229.02325853740518
    Total Energy =                       -229.0232585374052690
  Basis Set: CC-PVTZ
  Basis Set:
  Charge       = 0
  Multiplicity = 1
  Basis Set: CC-PVTZ
  Basis Set:

    Orbital Energies (a.u.)
    -----------------------

    Doubly Occupied:

       1A    -20.551811     2A    -20.545654     3A    -11.275087
       4A    -11.268529     5A     -1.379508     6A     -1.357407
       7A     -1.004031     8A     -0.847091     9A     -0.722363
      10A     -0.677201    11A     -0.660327    12A     -0.600814
      13A     -0.573214    14A     -0.546057    15A     -0.477846
      16A     -0.449655    17A     -0.440946

  @DF-RHF Final Energy:  -229.02325861568499

   => Energetics <=

    Nuclear Repulsion Energy =            133.6827710740095654
    One-Electron Energy =                -578.6569748684869410
    Two-Electron Energy =                 215.9509451787924945
    DFT Exchange-Correlation Energy =       0.0000000000000000
    Empirical Dispersion Energy =           0.0000000000000000
    PCM Polarization Energy =               0.0000000000000000
    EFP Energy =                            0.0000000000000000
    Total Energy =                       -229.0232586156848811
    Molecular point group: c1
  Basis Set: CC-PVTZ
  Basis Set:

  -Total Gradient:
     Atom            X                  Y                   Z
    ------   -----------------  -----------------  -----------------
       1       -0.000008987640     0.000000697654    -0.000001789168
       2        0.000011502222    -0.000005924081     0.000003988455
       3        0.000507718034    -0.000807008368     0.001124126527
       4        0.000483942285    -0.000812350911     0.001149297591
       5       -0.000547075234     0.000883906306    -0.001264605499
       6        0.000000433539    -0.000002295055     0.000011558664
       7       -0.000436393387     0.000748063456    -0.001027955660
       8       -0.000004248308    -0.000006406289    -0.000000603075
       9       -0.000012646760     0.000004360412     0.000012560447
      10        0.000005755248    -0.000003043126    -0.000006578282

  **** Optimization is complete! (in 6 steps) ****
    Final optimized geometry and variables:
    Molecular point group: c1

    Geometry (in Angstrom), charge = 0, multiplicity = 1:

    H            1.706004909204     0.428473046632    -1.542231512818
    O            0.837296361250     0.380233076582    -1.188549168620
    C            0.888251884176     0.312942834528     0.206275804741
    C           -0.517807988602     0.246311334339     0.761213347004
    H            1.370320006492     1.197797891772     0.617069139496
    H            1.455765078457    -0.558853518050     0.531869572580
    O           -1.254710478721    -0.850408862589     0.311690130352
    H           -1.064297819154     1.124771112904     0.446659078568
    H           -0.457360491360     0.261437419606     1.847943607821
    H           -0.796578730940    -1.650538610104     0.495351789416

  Mulliken Charges: (a.u.)
   Center  Symbol    Alpha    Beta     Spin     Total
       1     H     0.39607  0.39607  0.00000  0.20786
       2     O     4.19020  4.19020  0.00000 -0.38040
       3     C     2.97046  2.97046  0.00000  0.05909
       4     C     2.96389  2.96389  0.00000  0.07221
       5     H     0.47381  0.47381  0.00000  0.05238
       6     H     0.48101  0.48101  0.00000  0.03798
       7     O     4.19585  4.19585  0.00000 -0.39171
       8     H     0.45709  0.45709  0.00000  0.08582
       9     H     0.47495  0.47495  0.00000  0.05009
      10     H     0.39667  0.39667  0.00000  0.20666

   Total alpha = 17.00000, Total beta = 17.00000, Total charge =  0.00000
