  ==> Input File <==

--------------------------------------------------------------------------
set {
	reference rhf
	basis cc-pvtz
}

set_num_threads( 4 )
memory 2 gb

molecule MOL {
0 1

H	 -3.034039	 -0.667848	 0.004703
O	 -2.240597	 -1.171748	 0.000934
C	 -1.159675	 -0.364500	 0.000370
C	 -0.448205	 -0.080952	 -1.147596
C	 -0.775750	 0.183085	 1.214786
H	 -0.742883	 -0.505942	 -2.089725
C	 0.652046	 0.755190	 -1.066722
H	 -1.348891	 -0.059162	 2.088720
C	 0.320247	 1.018561	 1.293197
H	 1.209895	 0.975738	 -1.957191
C	 1.038818	 1.301929	 0.135896
C	 0.723680	 1.633062	 2.609736
H	 1.896189	 1.946360	 0.181556
H	 1.797403	 1.592315	 2.744944
H	 0.258248	 1.122733	 3.442012
H	 0.427976	 2.675892	 2.651075

	symmetry c1
}
set optking {
	frozen_dihedral = ("
		5 3 2 1
	")
}

ee = optimize('scf')
oeprop('DIPOLE', 'QUADRUPOLE', 'MULLIKEN_CHARGES')
f=open( 'psi4out.xyz', 'w' )
f.write( "16  " )
f.write( str(ee) + "\n" )
f.write( MOL.save_string_xyz() )
f.close()
--------------------------------------------------------------------------

    Molecular point group: c1
  Charge       = 0
  Multiplicity = 1
  Basis Set: CC-PVTZ
  Basis Set:
  @DF-RHF Final Energy:  -344.71525859204434
    Total Energy =                       -344.7152585920443926
    Molecular point group: c1
  Basis Set: CC-PVTZ
  Basis Set:
  Basis Set: CC-PVTZ
  Basis Set:
  @DF-RHF Final Energy:  -344.71626152610497
    Total Energy =                       -344.7162615261049723
  Basis Set: CC-PVTZ
  Basis Set:
  Basis Set: CC-PVTZ
  Basis Set:
  @DF-RHF Final Energy:  -344.71632872580773
    Total Energy =                       -344.7163287258075002
  Basis Set: CC-PVTZ
  Basis Set:
  Basis Set: CC-PVTZ
  Basis Set:
  @DF-RHF Final Energy:  -344.71633578875878
    Total Energy =                       -344.7163357887588973
  Basis Set: CC-PVTZ
  Basis Set:
  Basis Set: CC-PVTZ
  Basis Set:
  @DF-RHF Final Energy:  -344.71633710624337
    Total Energy =                       -344.7163371062433725
  Basis Set: CC-PVTZ
  Basis Set:
  Charge       = 0
  Multiplicity = 1
  Basis Set: CC-PVTZ
  Basis Set:

    Orbital Energies (a.u.)
    -----------------------

    Doubly Occupied:

       1A    -20.569304     2A    -11.286526     3A    -11.240647
       4A    -11.230806     5A    -11.221203     6A    -11.219336
       7A    -11.218967     8A    -11.218596     9A     -1.396041
      10A     -1.155044    11A     -1.047044    12A     -1.007218
      13A     -0.939542    14A     -0.833397    15A     -0.807993
      16A     -0.722921    17A     -0.679905    18A     -0.658196
      19A     -0.622017    20A     -0.593351    21A     -0.578531
      22A     -0.570134    23A     -0.553200    24A     -0.516042
      25A     -0.505377    26A     -0.485056    27A     -0.466854
      28A     -0.334103    29A     -0.322354

  @DF-RHF Final Energy:  -344.71633756457663

   => Energetics <=

    Nuclear Repulsion Energy =            345.8250552238718001
    One-Electron Energy =               -1153.0833703145694926
    Two-Electron Energy =                 462.5419775261211726
    DFT Exchange-Correlation Energy =       0.0000000000000000
    Empirical Dispersion Energy =           0.0000000000000000
    PCM Polarization Energy =               0.0000000000000000
    EFP Energy =                            0.0000000000000000
    Total Energy =                       -344.7163375645765200
    Molecular point group: c1
  Basis Set: CC-PVTZ
  Basis Set:

  -Total Gradient:
     Atom            X                  Y                   Z
    ------   -----------------  -----------------  -----------------
       1        0.000015333189     0.000041923650    -0.000939870603
       2        0.000107356791    -0.000370751190     0.001228206674
       3       -0.000514718086     0.000847629639    -0.000473451582
       4       -0.000007567165    -0.000004885953     0.000000135762
       5        0.000385058663    -0.000540617240     0.000173098108
       6       -0.000007728167    -0.000006339646     0.000003270152
       7       -0.000021490105     0.000002882532     0.000020924957
       8        0.000020691418     0.000005398113    -0.000027781272
       9        0.000019479463    -0.000002318738     0.000006471715
      10       -0.000001258546     0.000000145192     0.000001134262
      11        0.000000905009     0.000006690212    -0.000006169180
      12        0.000000762074     0.000014633587    -0.000003944999
      13       -0.000008005486     0.000003706031     0.000011958626
      14        0.000002439870    -0.000011140890     0.000003553944
      15       -0.000005165705     0.000007154257     0.000004363460
      16        0.000013906782     0.000005890442    -0.000001900023

  **** Optimization is complete! (in 6 steps) ****
    Final optimized geometry and variables:
    Molecular point group: c1

    Geometry (in Angstrom), charge = 0, multiplicity = 1:

    H           -2.757250434591    -1.102521790761    -0.438562068261
    O           -1.949087861420    -1.584416927991    -0.448120827900
    C           -0.881664310979    -0.731179222703    -0.393841300112
    C           -0.168210081779    -0.462166497470    -1.541580019244
    C           -0.490780475195    -0.191112192576     0.818536516834
    H           -0.474519652696    -0.903009520455    -2.469790575653
    C            0.938929649565     0.363416332047    -1.465111092533
    H           -1.053101458826    -0.439238675993     1.698882442001
    C            0.612139193277     0.640797573437     0.899099468538
    H            1.503240975531     0.576037857321    -2.353288906007
    C            1.325830714688     0.912524125526    -0.260509604218
    C            1.025955382974     1.250547234457     2.215078484817
    H            2.189682987871     1.549232964262    -0.217675964820
    H            2.100075636435     1.204371181184     2.345140283876
    H            0.563797319376     0.738609713059     3.048473269816
    H            0.735201825368     2.294544840213     2.264066882260

  Mulliken Charges: (a.u.)
   Center  Symbol    Alpha    Beta     Spin     Total
       1     H     0.38862  0.38862  0.00000  0.22275
       2     O     4.19184  4.19184  0.00000 -0.38369
       3     C     2.85657  2.85657  0.00000  0.28685
       4     C     3.12244  3.12244  0.00000 -0.24487
       5     C     3.14703  3.14703  0.00000 -0.29406
       6     H     0.41697  0.41697  0.00000  0.16606
       7     C     3.05984  3.05984  0.00000 -0.11968
       8     H     0.42103  0.42103  0.00000  0.15795
       9     C     2.94628  2.94628  0.00000  0.10743
      10     H     0.42222  0.42222  0.00000  0.15557
      11     C     3.10802  3.10802  0.00000 -0.21605
      12     C     3.14620  3.14620  0.00000 -0.29240
      13     H     0.42696  0.42696  0.00000  0.14608
      14     H     0.44784  0.44784  0.00000  0.10433
      15     H     0.45074  0.45074  0.00000  0.09851
      16     H     0.44739  0.44739  0.00000  0.10522

   Total alpha = 29.00000, Total beta = 29.00000, Total charge = -0.00000
