  ==> Input File <==

--------------------------------------------------------------------------
set {
	reference rhf
	basis cc-pvtz
}

set_num_threads( 4 )
memory 2 gb

molecule MOL {
0 1

H	 3.060305	 -0.033366	 -0.783663
N	 2.433987	 -0.362316	 -0.080024
C	 1.263552	 0.494993	 0.021953
H	 2.940113	 -0.378285	 0.780742
C	 -0.016533	 -0.325589	 -0.026925
H	 1.280915	 1.180773	 -0.818522
H	 1.263064	 1.106893	 0.925038
C	 -1.280353	 0.525521	 0.047747
H	 -0.016686	 -0.912532	 -0.939714
H	 -0.014099	 -1.037598	 0.796369
C	 -2.560681	 -0.301323	 -0.007747
H	 -1.279957	 1.241025	 -0.770189
H	 -1.270445	 1.110526	 0.963468
H	 -2.617064	 -0.872870	 -0.928010
H	 -3.439525	 0.331102	 0.043462
H	 -2.609427	 -1.002736	 0.818585

	symmetry c1
}
set optking {
	frozen_dihedral = ("
		1 2 3 6
	")
}

ee = optimize('scf')
oeprop('DIPOLE', 'QUADRUPOLE', 'MULLIKEN_CHARGES')
f=open( 'psi4out.xyz', 'w' )
f.write( "16  " )
f.write( str(ee) + "\n" )
f.write( MOL.save_string_xyz() )
f.close()
--------------------------------------------------------------------------

    Molecular point group: c1
  Charge       = 0
  Multiplicity = 1
  Basis Set: CC-PVTZ
  Basis Set:
  @DF-RHF Final Energy:  -212.39717888157378
    Total Energy =                       -212.3971788815737796
    Molecular point group: c1
  Basis Set: CC-PVTZ
  Basis Set:
  Basis Set: CC-PVTZ
  Basis Set:
  @DF-RHF Final Energy:  -212.39758323992572
    Total Energy =                       -212.3975832399257229
  Basis Set: CC-PVTZ
  Basis Set:
  Basis Set: CC-PVTZ
  Basis Set:
  @DF-RHF Final Energy:  -212.39770199954069
    Total Energy =                       -212.3977019995406295
  Basis Set: CC-PVTZ
  Basis Set:
  Basis Set: CC-PVTZ
  Basis Set:
  @DF-RHF Final Energy:  -212.39770622028078
    Total Energy =                       -212.3977062202807247
  Basis Set: CC-PVTZ
  Basis Set:
  Charge       = 0
  Multiplicity = 1
  Basis Set: CC-PVTZ
  Basis Set:

    Orbital Energies (a.u.)
    -----------------------

    Doubly Occupied:

       1A    -15.524572     2A    -11.238816     3A    -11.210270
       4A    -11.203892     5A    -11.202047     6A     -1.174770
       7A     -1.058436     8A     -0.958789     9A     -0.843070
      10A     -0.787721    11A     -0.677236    12A     -0.624413
      13A     -0.611166    14A     -0.578387    15A     -0.552484
      16A     -0.532996    17A     -0.488435    18A     -0.476070
      19A     -0.465968    20A     -0.458906    21A     -0.378585

  @DF-RHF Final Energy:  -212.39770691643474

   => Energetics <=

    Nuclear Repulsion Energy =            186.1241991267327762
    One-Electron Energy =                -654.9497526595839645
    Two-Electron Energy =                 256.4278466164165025
    DFT Exchange-Correlation Energy =       0.0000000000000000
    Empirical Dispersion Energy =           0.0000000000000000
    PCM Polarization Energy =               0.0000000000000000
    EFP Energy =                            0.0000000000000000
    Total Energy =                       -212.3977069164346858
    Molecular point group: c1
  Basis Set: CC-PVTZ
  Basis Set:

  -Total Gradient:
     Atom            X                  Y                   Z
    ------   -----------------  -----------------  -----------------
       1       -0.000759511075    -0.000916010594    -0.001137038727
       2        0.001178577643     0.001343713709     0.001614744830
       3       -0.001163720363    -0.001415300142    -0.001325513362
       4       -0.000010292188    -0.000007404073     0.000007896167
       5        0.000051960963     0.000037609328     0.000039615899
       6        0.000735878015     0.000967792966     0.000813154631
       7       -0.000017588267    -0.000005613637     0.000004576485
       8        0.000001305706    -0.000019049782    -0.000020646439
       9        0.000003768154     0.000008867101     0.000007786778
      10        0.000008885396     0.000002454164    -0.000003067350
      11       -0.000028571615     0.000016335956     0.000002871958
      12        0.000003566579     0.000001829150     0.000004886823
      13       -0.000000062102    -0.000012318473    -0.000004869879
      14        0.000001974348     0.000001602827    -0.000001798105
      15       -0.000009217900    -0.000007490714    -0.000002177037
      16        0.000003046702     0.000002982214    -0.000000422675

  **** Optimization is complete! (in 5 steps) ****
    Final optimized geometry and variables:
    Molecular point group: c1

    Geometry (in Angstrom), charge = 0, multiplicity = 1:

    H            3.097737157726    -0.027795027119    -0.739746293850
    N            2.446382352153    -0.354514159446    -0.062478533770
    C            1.257439102127     0.487692284012     0.012714512205
    H            2.915414222769    -0.429630609161     0.812119796209
    C           -0.024283048442    -0.333542568962    -0.026306651625
    H            1.264024851419     1.190828969700    -0.813972506944
    H            1.264530533519     1.095179874750     0.915181245477
    C           -1.287894505783     0.516924197078     0.054684374249
    H           -0.030000568647    -0.922415053906    -0.938423332023
    H           -0.007431012590    -1.045599728887     0.794620039858
    C           -2.568819319020    -0.309897907467     0.011933125980
    H           -1.295490195250     1.231495695747    -0.764634290896
    H           -1.271431086514     1.104716139803     0.968995753444
    H           -2.633170539679    -0.882652215165    -0.907115205005
    H           -3.447906710750     0.321786712803     0.070526058766
    H           -2.608917020606    -1.010631664300     0.839183480377

  Mulliken Charges: (a.u.)
   Center  Symbol    Alpha    Beta     Spin     Total
       1     H     0.42457  0.42457  0.00000  0.15086
       2     N     3.69865  3.69865  0.00000 -0.39731
       3     C     3.04411  3.04411  0.00000 -0.08821
       4     H     0.42670  0.42670  0.00000  0.14660
       5     C     3.06209  3.06209  0.00000 -0.12418
       6     H     0.45679  0.45679  0.00000  0.08643
       7     H     0.46034  0.46034  0.00000  0.07931
       8     C     3.09146  3.09146  0.00000 -0.18292
       9     H     0.45533  0.45533  0.00000  0.08935
      10     H     0.45858  0.45858  0.00000  0.08283
      11     C     3.14897  3.14897  0.00000 -0.29795
      12     H     0.45666  0.45666  0.00000  0.08668
      13     H     0.45686  0.45686  0.00000  0.08628
      14     H     0.45458  0.45458  0.00000  0.09084
      15     H     0.44935  0.44935  0.00000  0.10131
      16     H     0.45496  0.45496  0.00000  0.09008

   Total alpha = 21.00000, Total beta = 21.00000, Total charge = -0.00000
