  ==> Input File <==

--------------------------------------------------------------------------
set {
	reference rhf
	basis 6-31G*
}

set_num_threads( 1 )
memory 2 gb

molecule MOL {
0 1

H	 -1.267186	 -1.324766	 0.356909
O	 -1.422729	 -0.573567	 -0.196946
C	 -0.731407	 0.539437	 0.309156
C	 0.680193	 0.672443	 -0.251532
H	 -1.319765	 1.404033	 0.030086
H	 -0.700012	 0.506517	 1.397677
C	 1.599139	 -0.492137	 0.118598
H	 0.616402	 0.758534	 -1.332349
H	 1.107032	 1.602637	 0.117369
H	 1.239738	 -1.428634	 -0.297334
H	 2.601428	 -0.335055	 -0.265730
H	 1.674954	 -0.608418	 1.197020

	symmetry c1
}
set optking {
	frozen_dihedral = ("
		8 4 3 2
	")
}

ee = energy('scf')
oeprop('DIPOLE', 'QUADRUPOLE', 'MULLIKEN_CHARGES')
f=open( 'psi4out.xyz', 'w' )
f.write( "12  " )
f.write( str(ee) + "\n" )
f.write( MOL.save_string_xyz() )
f.close()
--------------------------------------------------------------------------

    Molecular point group: c1

    Geometry (in Angstrom), charge = 0, multiplicity = 1:

       Center              X                  Y                   Z               Mass
    ------------   -----------------  -----------------  -----------------  -----------------
           H         -1.263892345062    -1.325467111435     0.353951899129     1.007825032070
           O         -1.419435345062    -0.574268111435    -0.199903100871    15.994914619560
           C         -0.728113345062     0.538735888565     0.306198899129    12.000000000000
           C          0.683486654938     0.671741888565    -0.254489100871    12.000000000000
           H         -1.316471345062     1.403331888565     0.027128899129     1.007825032070
           H         -0.696718345062     0.505815888565     1.394719899129     1.007825032070
           C          1.602432654938    -0.492838111435     0.115640899129    12.000000000000
           H          0.619695654938     0.757832888565    -1.335306100871     1.007825032070
           H          1.110325654938     1.601935888565     0.114411899129     1.007825032070
           H          1.243031654938    -1.429335111435    -0.300291100871     1.007825032070
           H          2.604721654938    -0.335756111435    -0.268687100871     1.007825032070
           H          1.678247654938    -0.609119111435     1.194062899129     1.007825032070

  Charge       = 0
  Multiplicity = 1
  Basis Set: 6-31G*
  Basis Set:

    Orbital Energies (a.u.)
    -----------------------

    Doubly Occupied:

       1A    -20.553360     2A    -11.268135     3A    -11.216626
       4A    -11.213762     5A     -1.360257     6A     -1.049077
       7A     -0.925137     8A     -0.806171     9A     -0.700918
      10A     -0.634650    11A     -0.597602    12A     -0.587700
      13A     -0.531067    14A     -0.512239    15A     -0.491218
      16A     -0.468266    17A     -0.428474

  @DF-RHF Final Energy:  -193.10956860648915

   => Energetics <=

    Nuclear Repulsion Energy =            132.9329912805731908
    One-Electron Energy =                -525.3957804603642217
    Two-Electron Energy =                 199.3532205733016838
    DFT Exchange-Correlation Energy =       0.0000000000000000
    Empirical Dispersion Energy =           0.0000000000000000
    PCM Polarization Energy =               0.0000000000000000
    EFP Energy =                            0.0000000000000000
    Total Energy =                       -193.1095686064893187

  Mulliken Charges: (a.u.)
   Center  Symbol    Alpha    Beta     Spin     Total
       1     H     0.28009  0.28009  0.00000  0.43982
       2     O     4.36991  4.36991  0.00000 -0.73982
       3     C     2.99910  2.99910  0.00000  0.00180
       4     C     3.15759  3.15759  0.00000 -0.31518
       5     H     0.41571  0.41571  0.00000  0.16858
       6     H     0.43251  0.43251  0.00000  0.13499
       7     C     3.24853  3.24853  0.00000 -0.49706
       8     H     0.41427  0.41427  0.00000  0.17146
       9     H     0.42424  0.42424  0.00000  0.15151
      10     H     0.41774  0.41774  0.00000  0.16451
      11     H     0.41557  0.41557  0.00000  0.16886
      12     H     0.42473  0.42473  0.00000  0.15053

   Total alpha = 17.00000, Total beta = 17.00000, Total charge =  0.00000
