  ==> Input File <==

--------------------------------------------------------------------------
set {
	reference rhf
	basis 6-31G*
}

set_num_threads( 1 )
memory 2 gb

molecule MOL {
0 1

H	 1.991797	 3.029220	 -2.575491
N	 1.230767	 2.379061	 -2.616378
C	 0.929306	 1.853611	 -1.292539
H	 1.514341	 1.639912	 -3.231256
C	 -0.290631	 0.939832	 -1.342697
H	 0.718488	 2.697760	 -0.643057
H	 1.767503	 1.314886	 -0.843541
C	 -0.679275	 0.379305	 0.025956
H	 -1.119485	 1.497426	 -1.769222
H	 -0.089652	 0.115172	 -2.025982
C	 -1.903357	 -0.536963	 -0.023547
H	 -0.877381	 1.203019	 0.710134
H	 0.161394	 -0.170195	 0.446875
C	 -3.225172	 0.228290	 0.028445
H	 -1.867824	 -1.134999	 -0.931459
H	 -1.860449	 -1.239604	 0.805977
H	 -3.313397	 0.915643	 -0.808262
H	 -4.073500	 -0.448134	 -0.008893
H	 -3.306061	 0.809945	 0.942516

	symmetry c1
}
set optking {
	frozen_dihedral = ("
		6 3 5 9,
		12 8 5 9,
		1 2 3 6
	")
}

ee = energy('scf')
oeprop('DIPOLE', 'QUADRUPOLE', 'MULLIKEN_CHARGES')
f=open( 'psi4out.xyz', 'w' )
f.write( "19  " )
f.write( str(ee) + "\n" )
f.write( MOL.save_string_xyz() )
f.close()
--------------------------------------------------------------------------

    Molecular point group: c1

    Geometry (in Angstrom), charge = 0, multiplicity = 1:

       Center              X                  Y                   Z               Mass
    ------------   -----------------  -----------------  -----------------  -----------------
           H          2.625863953068     2.133825380647    -1.681174087023     1.007825032070
           N          1.864833953068     1.483666380647    -1.722061087023    14.003074004780
           C          1.563372953068     0.958216380647    -0.398222087023    12.000000000000
           H          2.148407953068     0.744517380647    -2.336939087023     1.007825032070
           C          0.343435953068     0.044437380647    -0.448380087023    12.000000000000
           H          1.352554953068     1.802365380647     0.251259912977     1.007825032070
           H          2.401569953068     0.419491380647     0.050775912977     1.007825032070
           C         -0.045208046932    -0.516089619353     0.920272912977    12.000000000000
           H         -0.485418046932     0.602031380647    -0.874905087023     1.007825032070
           H          0.544414953068    -0.780222619353    -1.131665087023     1.007825032070
           C         -1.269290046932    -1.432357619353     0.870769912977    12.000000000000
           H         -0.243314046932     0.307624380647     1.604450912977     1.007825032070
           H          0.795460953068    -1.065589619353     1.341191912977     1.007825032070
           C         -2.591105046932    -0.667104619353     0.922761912977    12.000000000000
           H         -1.233757046932    -2.030393619353    -0.037142087023     1.007825032070
           H         -1.226382046932    -2.134998619353     1.700293912977     1.007825032070
           H         -2.679330046932     0.020248380647     0.086054912977     1.007825032070
           H         -3.439433046932    -1.343528619353     0.885423912977     1.007825032070
           H         -2.671994046932    -0.085449619353     1.836832912977     1.007825032070

  Charge       = 0
  Multiplicity = 1
  Basis Set: 6-31G*
  Basis Set:

    Orbital Energies (a.u.)
    -----------------------

    Doubly Occupied:

       1A    -15.532468     2A    -11.239586     3A    -11.213188
       4A    -11.211984     5A    -11.209360     6A    -11.206237
       7A     -1.176579     8A     -1.073627     9A     -0.995344
      10A     -0.901813    11A     -0.819347    12A     -0.782071
      13A     -0.663857    14A     -0.638178    15A     -0.607592
      16A     -0.594941    17A     -0.585540    18A     -0.536148
      19A     -0.517283    20A     -0.510437    21A     -0.485808
      22A     -0.463874    23A     -0.453738    24A     -0.448445
      25A     -0.381063

  @DF-RHF Final Energy:  -251.34900296641388

   => Energetics <=

    Nuclear Repulsion Energy =            248.5171059815913850
    One-Electron Energy =                -831.2352128294418208
    Two-Electron Energy =                 331.3691038814366152
    DFT Exchange-Correlation Energy =       0.0000000000000000
    Empirical Dispersion Energy =           0.0000000000000000
    PCM Polarization Energy =               0.0000000000000000
    EFP Energy =                            0.0000000000000000
    Total Energy =                       -251.3490029664138206

  Mulliken Charges: (a.u.)
   Center  Symbol    Alpha    Beta     Spin     Total
       1     H     0.33251  0.33251  0.00000  0.33498
       2     N     3.92191  3.92191  0.00000 -0.84383
       3     C     3.06007  3.06007  0.00000 -0.12014
       4     H     0.33539  0.33539  0.00000  0.32922
       5     C     3.15305  3.15305  0.00000 -0.30611
       6     H     0.42086  0.42086  0.00000  0.15829
       7     H     0.43472  0.43472  0.00000  0.13056
       8     C     3.15770  3.15770  0.00000 -0.31541
       9     H     0.41225  0.41225  0.00000  0.17550
      10     H     0.42745  0.42745  0.00000  0.14510
      11     C     3.15317  3.15317  0.00000 -0.30634
      12     H     0.42294  0.42294  0.00000  0.15411
      13     H     0.42262  0.42262  0.00000  0.15475
      14     C     3.24049  3.24049  0.00000 -0.48097
      15     H     0.42231  0.42231  0.00000  0.15537
      16     H     0.42110  0.42110  0.00000  0.15779
      17     H     0.41969  0.41969  0.00000  0.16062
      18     H     0.41988  0.41988  0.00000  0.16025
      19     H     0.42188  0.42188  0.00000  0.15624

   Total alpha = 25.00000, Total beta = 25.00000, Total charge =  0.00000
