  ==> Input File <==

--------------------------------------------------------------------------
set {
	reference rhf
	basis 6-31G*
}

set_num_threads( 1 )
memory 2 gb

molecule MOL {
0 1

H	 4.119831	 -0.547539	 -1.883514
C	 3.459113	 -0.838145	 -1.073113
C	 2.175011	 -0.009973	 -1.086334
H	 3.244427	 -1.897033	 -1.186668
H	 4.003260	 -0.709553	 -0.141655
C	 1.217350	 -0.386724	 0.039429
H	 1.659797	 -0.132316	 -2.033950
H	 2.426980	 1.046070	 -1.004629
N	 0.000003	 0.397874	 -0.023260
H	 0.945135	 -1.434360	 -0.057113
H	 1.727909	 -0.287498	 1.003204
C	 -1.217365	 -0.386708	 0.039277
H	 -0.000031	 1.072115	 0.718656
C	 -2.452633	 0.504241	 -0.042481
H	 -1.215291	 -1.074557	 -0.802042
H	 -1.269739	 -1.003477	 0.942735
C	 -3.758029	 -0.289423	 -0.010781
H	 -2.394220	 1.093569	 -0.952170
H	 -2.440793	 1.210787	 0.785871
H	 -3.816659	 -0.981993	 -0.845726
H	 -4.617837	 0.370165	 -0.069296
H	 -3.847478	 -0.867502	 0.904682

	symmetry c1
}
set optking {
	frozen_dihedral = ("
		15 12 14 18
	")
}

ee = energy('scf')
oeprop('DIPOLE', 'QUADRUPOLE', 'MULLIKEN_CHARGES')
f=open( 'psi4out.xyz', 'w' )
f.write( "22  " )
f.write( str(ee) + "\n" )
f.write( MOL.save_string_xyz() )
f.close()
--------------------------------------------------------------------------

    Molecular point group: c1

    Geometry (in Angstrom), charge = 0, multiplicity = 1:

       Center              X                  Y                   Z               Mass
    ------------   -----------------  -----------------  -----------------  -----------------
           H          4.202948140783    -0.394406106756    -1.580988378897     1.007825032070
           C          3.542230140783    -0.685012106756    -0.770587378897    12.000000000000
           C          2.258128140783     0.143159893244    -0.783808378897    12.000000000000
           H          3.327544140783    -1.743900106756    -0.884142378897     1.007825032070
           H          4.086377140783    -0.556420106756     0.160870621103     1.007825032070
           C          1.300467140783    -0.233591106756     0.341954621103    12.000000000000
           H          1.742914140783     0.020816893244    -1.731424378897     1.007825032070
           H          2.510097140783     1.199202893244    -0.702103378897     1.007825032070
           N          0.083120140783     0.551006893244     0.279265621103    14.003074004780
           H          1.028252140783    -1.281227106756     0.245412621103     1.007825032070
           H          1.811026140783    -0.134365106756     1.305729621103     1.007825032070
           C         -1.134247859217    -0.233575106756     0.341802621103    12.000000000000
           H          0.083086140783     1.225247893244     1.021181621103     1.007825032070
           C         -2.369515859217     0.657373893244     0.260044621103    12.000000000000
           H         -1.132173859217    -0.921424106756    -0.499516378897     1.007825032070
           H         -1.186621859217    -0.850344106756     1.245260621103     1.007825032070
           C         -3.674911859217    -0.136290106756     0.291744621103    12.000000000000
           H         -2.311102859217     1.246701893244    -0.649644378897     1.007825032070
           H         -2.357675859217     1.363919893244     1.088396621103     1.007825032070
           H         -3.733541859217    -0.828860106756    -0.543200378897     1.007825032070
           H         -4.534719859217     0.523297893244     0.233229621103     1.007825032070
           H         -3.764360859217    -0.714369106756     1.207207621103     1.007825032070

  Charge       = 0
  Multiplicity = 1
  Basis Set: 6-31G*
  Basis Set:

    Orbital Energies (a.u.)
    -----------------------

    Doubly Occupied:

       1A    -15.532163     2A    -11.239267     3A    -11.237625
       4A    -11.213713     5A    -11.210083     6A    -11.205790
       7A    -11.205106     8A     -1.205435     9A     -1.056888
      10A     -1.024469    11A     -0.927176    12A     -0.869866
      13A     -0.806490    14A     -0.792441    15A     -0.670703
      16A     -0.631464    17A     -0.613667    18A     -0.599235
      19A     -0.580665    20A     -0.558653    21A     -0.538513
      22A     -0.519692    23A     -0.508221    24A     -0.488268
      25A     -0.482081    26A     -0.471279    27A     -0.464840
      28A     -0.450946    29A     -0.355801

  @DF-RHF Final Energy:  -290.37850229475731

   => Energetics <=

    Nuclear Repulsion Energy =            314.3006859897370191
    One-Electron Energy =               -1014.4371392009006740
    Two-Electron Energy =                 409.7579509164039564
    DFT Exchange-Correlation Energy =       0.0000000000000000
    Empirical Dispersion Energy =           0.0000000000000000
    PCM Polarization Energy =               0.0000000000000000
    EFP Energy =                            0.0000000000000000
    Total Energy =                       -290.3785022947596417

  Mulliken Charges: (a.u.)
   Center  Symbol    Alpha    Beta     Spin     Total
       1     H     0.41839  0.41839  0.00000  0.16322
       2     C     3.24605  3.24605  0.00000 -0.49211
       3     C     3.14013  3.14013  0.00000 -0.28026
       4     H     0.42304  0.42304  0.00000  0.15392
       5     H     0.42342  0.42342  0.00000  0.15316
       6     C     3.05888  3.05888  0.00000 -0.11776
       7     H     0.41922  0.41922  0.00000  0.16156
       8     H     0.42289  0.42289  0.00000  0.15421
       9     N     3.85533  3.85533  0.00000 -0.71066
      10     H     0.42376  0.42376  0.00000  0.15248
      11     H     0.42882  0.42882  0.00000  0.14236
      12     C     3.05080  3.05080  0.00000 -0.10160
      13     H     0.33339  0.33339  0.00000  0.33322
      14     C     3.15605  3.15605  0.00000 -0.31210
      15     H     0.42105  0.42105  0.00000  0.15790
      16     H     0.43594  0.43594  0.00000  0.12812
      17     C     3.24326  3.24326  0.00000 -0.48653
      18     H     0.41287  0.41287  0.00000  0.17426
      19     H     0.42663  0.42663  0.00000  0.14674
      20     H     0.42074  0.42074  0.00000  0.15852
      21     H     0.41762  0.41762  0.00000  0.16476
      22     H     0.42171  0.42171  0.00000  0.15658

   Total alpha = 29.00000, Total beta = 29.00000, Total charge =  0.00000
