                              Psi4 1.0.54 Driver

  ==> Input File <==

--------------------------------------------------------------------------
set {
	reference rhf
	basis cc-pvtz
}

set_num_threads( 4 )
memory 2 gb

molecule MOL {
0 1

O	 -1.278239	 1.034789	 -0.784693
C	 -1.204115	 0.062668	 -0.112312
C	 -2.386398	 -0.667698	 0.460323
O	 -0.068058	 -0.518372	 0.226882
H	 -2.382952	 -1.693172	 0.114333
H	 -3.296656	 -0.175702	 0.158400
H	 -2.312537	 -0.685191	 1.540100
C	 1.169086	 0.037484	 -0.230612
C	 2.249623	 -0.542248	 0.660153
C	 1.104678	 1.553237	 -0.176289
H	 1.318747	 -0.281794	 -1.250784
H	 2.258591	 -1.622839	 0.596969
H	 3.220909	 -0.173157	 0.353417
H	 2.086909	 -0.261382	 1.693872
H	 2.045011	 1.975567	 -0.510821
H	 0.319199	 1.927456	 -0.817874
H	 0.920801	 1.889547	 0.837796

	symmetry c1
}
set optking {
	frozen_dihedral = ("
		11 8 4 2
	")
}

ee,wfn = optimize('scf', return_wfn=True)
oeprop( wfn, 'DIPOLE', 'QUADRUPOLE', 'MULLIKEN_CHARGES')
f=open( 'psi4out.xyz', 'w' )
f.write( "17  " )
f.write( str(ee) + "\n" )
f.write( MOL.save_string_xyz() )
f.close()
--------------------------------------------------------------------------

    Molecular point group: c1
  Charge       = 0
  Multiplicity = 1
  Basis Set: CC-PVTZ
  Basis Set:
  @DF-RHF Final Energy:  -345.02329429586229
    Total Energy =                       -345.0232942958625699
    Molecular point group: c1
  Basis Set: CC-PVTZ
  Basis Set:
  Basis Set: CC-PVTZ
  Basis Set:
  @DF-RHF Final Energy:  -345.03493831638605
    Total Energy =                       -345.0349383163860466
  Basis Set: CC-PVTZ
  Basis Set:
  Basis Set: CC-PVTZ
  Basis Set:
  @DF-RHF Final Energy:  -345.03656257948342
    Total Energy =                       -345.0365625794836433
  Basis Set: CC-PVTZ
  Basis Set:
  Basis Set: CC-PVTZ
  Basis Set:
  @DF-RHF Final Energy:  -344.86870677504305
    Total Energy =                       -344.8687067750433357
  Basis Set: CC-PVTZ
  Basis Set:
  @DF-RHF Final Energy:  -344.97993313925798
    Total Energy =                       -344.9799331392579234
  @DF-RHF Final Energy:  -344.88580764414894
    Total Energy =                       -344.8858076441486560
  @DF-RHF Final Energy:  -345.01540067090741
    Total Energy =                       -345.0154006709075816
  @DF-RHF Final Energy:  -345.03232929108242
    Total Energy =                       -345.0323292910824193
  @DF-RHF Final Energy:  -345.03247980535480
    Total Energy =                       -345.0324798053550239
  @DF-RHF Final Energy:  -345.03644510918491
    Total Energy =                       -345.0364451091849105
  @DF-RHF Final Energy:  -345.03713399122131
    Total Energy =                       -345.0371339912214808
  @DF-RHF Final Energy:  -345.03723636526701
    Total Energy =                       -345.0372363652667786
  @DF-RHF Final Energy:  -345.03724502341373
    Total Energy =                       -345.0372450234139023
  Basis Set: CC-PVTZ
  Basis Set:
  @DF-RHF Final Energy:  -345.03724840812595
    Total Energy =                       -345.0372484081254356
  Basis Set: CC-PVTZ
  Basis Set:
  Basis Set: CC-PVTZ
  Basis Set:
  @DF-RHF Final Energy:  -345.03725187325210
    Total Energy =                       -345.0372518732515914
  Basis Set: CC-PVTZ
  Basis Set:
  Basis Set: CC-PVTZ
  Basis Set:
  @DF-RHF Final Energy:  -345.03725415810692
    Total Energy =                       -345.0372541581067480
  Basis Set: CC-PVTZ
  Basis Set:
  Charge       = 0
  Multiplicity = 1
  Basis Set: CC-PVTZ
  Basis Set:

    Orbital Energies (a.u.)
    -----------------------

    Doubly Occupied:

       1A    -20.590022     2A    -20.530311     3A    -11.366609
       4A    -11.293284     5A    -11.229445     6A    -11.217349
       7A    -11.211833     8A     -1.465350     9A     -1.364583
      10A     -1.080600    11A     -1.004702    12A     -0.947315
      13A     -0.856837    14A     -0.754403    15A     -0.693576
      16A     -0.680231    17A     -0.660526    18A     -0.616690
      19A     -0.586624    20A     -0.579420    21A     -0.551747
      22A     -0.550717    23A     -0.543336    24A     -0.519426
      25A     -0.502744    26A     -0.485874    27A     -0.450030
      28A     -0.433659

  @DF-RHF Final Energy:  -345.03725483940190

   => Energetics <=

    Nuclear Repulsion Energy =            324.3239523927815640
    One-Electron Energy =               -1113.1879364468734366
    Two-Electron Energy =                 443.8267292146898626
    DFT Exchange-Correlation Energy =       0.0000000000000000
    Empirical Dispersion Energy =           0.0000000000000000
    PCM Polarization Energy =               0.0000000000000000
    EFP Energy =                            0.0000000000000000
    Total Energy =                       -345.0372548394019532
    Molecular point group: c1
  Basis Set: CC-PVTZ
  Basis Set:

  -Total Gradient:
     Atom            X                  Y                   Z
    ------   -----------------  -----------------  -----------------
       1       -0.000009750685    -0.000005847949    -0.000023423886
       2        0.001558449703     0.005934336015    -0.000377386440
       3       -0.000027859407     0.000010266992    -0.000032311992
       4       -0.001200962301    -0.009471073920     0.001545466650
       5       -0.000000407892     0.000015140835    -0.000006526502
       6        0.000015195942    -0.000000077864     0.000011552516
       7        0.000000422532    -0.000018403678     0.000010120255
       8       -0.005305807295     0.005781111186    -0.004951504869
       9        0.000005014786    -0.000041674883     0.000038610992
      10        0.000007778352    -0.000022090758    -0.000000912151
      11        0.004948430052    -0.002170616013     0.003813103630
      12        0.000011694382     0.000003502030     0.000003494205
      13        0.000015146062    -0.000011925970    -0.000000582362
      14       -0.000015678328    -0.000010404052    -0.000007546414
      15        0.000004807695     0.000003657750    -0.000009495388
      16       -0.000002484253     0.000006751606    -0.000013853400
      17       -0.000003989347    -0.000002651329     0.000001195157

  **** Optimization is complete! (in 17 steps) ****
    Final optimized geometry and variables:
    Molecular point group: c1

    Geometry (in Angstrom), charge = 0, multiplicity = 1:

    O           -1.766547326653     0.014903930582    -0.431778010149
    C           -1.071560410456     0.106219518048     0.521879633088
    C           -1.543390266985     0.582722583559     1.868242727163
    O            0.206644465365    -0.220702489391     0.556755072326
    H           -1.316022967806    -0.161311218514     2.620169368089
    H           -2.604588948610     0.768537014643     1.834601091730
    H           -1.016175339519     1.490099990245     2.134625118856
    C            0.979029254508    -0.505430671278    -0.617887885852
    C            2.419467487118    -0.482794299137    -0.131547686535
    C            0.762808724279     0.466795185653    -1.764516456196
    H            0.752715851050    -1.523529772764    -0.910214079067
    H            2.547248709613    -1.153109046352     0.708309376115
    H            3.085438392333    -0.796417164901    -0.926160535352
    H            2.702566588584     0.515256725626     0.181483105347
    H            1.511061568055     0.271032874147    -2.523545884670
    H           -0.213635765518     0.373622435883    -2.206533938390
    H            0.896000763619     1.487450175537    -1.421791646221

  Mulliken Charges: (a.u.)
   Center  Symbol    Alpha    Beta     Spin     Total
       1     O     4.19934  4.19934  0.00000 -0.39868
       2     C     2.80687  2.80687  0.00000  0.38627
       3     C     3.13805  3.13805  0.00000 -0.27611
       4     O     4.16054  4.16054  0.00000 -0.32108
       5     H     0.44479  0.44479  0.00000  0.11043
       6     H     0.43849  0.43849  0.00000  0.12301
       7     H     0.44758  0.44758  0.00000  0.10484
       8     C     2.92915  2.92915  0.00000  0.14170
       9     C     3.13839  3.13839  0.00000 -0.27677
      10     C     3.16391  3.16391  0.00000 -0.32781
      11     H     0.44900  0.44900  0.00000  0.10200
      12     H     0.44604  0.44604  0.00000  0.10792
      13     H     0.45524  0.45524  0.00000  0.08953
      14     H     0.45348  0.45348  0.00000  0.09305
      15     H     0.44972  0.44972  0.00000  0.10056
      16     H     0.42614  0.42614  0.00000  0.14773
      17     H     0.45329  0.45329  0.00000  0.09342

   Total alpha = 28.00000, Total beta = 28.00000, Total charge = -0.00000

*** Psi4 exiting successfully. Buy a developer a beer!
