  ==> Input File <==

--------------------------------------------------------------------------
set {
	reference rhf
	basis 6-31G*
}

set_num_threads( 4 )
memory 2 gb

molecule MOL {
0 1

O	 1.603174	 3.334436	 -1.764532
C	 0.903313	 3.211091	 -2.722519
C	 -0.371728	 2.387478	 -2.693015
C	 1.246008	 3.874511	 -4.040696
C	 -0.664463	 1.742939	 -1.341309
H	 -1.193464	 3.034581	 -2.996981
H	 -0.297528	 1.630372	 -3.472557
C	 -1.955439	 0.922535	 -1.350263
H	 -0.724503	 2.517579	 -0.583378
H	 0.172296	 1.111600	 -1.059542
C	 -2.259874	 0.272531	 0.000494
H	 -2.789867	 1.560947	 -1.636982
H	 -1.889100	 0.148629	 -2.113634
C	 -3.549786	 -0.549746	 -0.000374
H	 -2.327112	 1.045311	 0.764240
H	 -1.426781	 -0.366575	 0.287715
C	 -4.809590	 0.315458	 -0.000369
H	 -3.560515	 -1.202009	 -0.871156
H	 -3.561123	 -1.202955	 0.869711
H	 -4.844746	 0.956611	 -0.876632
H	 -5.706986	 -0.295590	 -0.001609
H	 -4.845960	 0.954827	 0.877144
H	 0.448506	 4.545716	 -4.345807
H	 2.167512	 4.430928	 -3.940370
H	 1.356207	 3.128748	 -4.822571

	symmetry c1
}
set optking {
	frozen_dihedral = ("
		15 11 14 18
	")
}

ee = optimize('scf')
oeprop('DIPOLE', 'QUADRUPOLE', 'MULLIKEN_CHARGES')
f=open( 'psi4out.xyz', 'w' )
f.write( "25  " )
f.write( str(ee) + "\n" )
f.write( MOL.save_string_xyz() )
f.close()
--------------------------------------------------------------------------

    Molecular point group: c1
  Charge       = 0
  Multiplicity = 1
  Basis Set: 6-31G*
  Basis Set:
  @DF-RHF Final Energy:  -387.13444468651636
    Total Energy =                       -387.1344446865161899
    Molecular point group: c1
  Basis Set: 6-31G*
  Basis Set:
  Basis Set: 6-31G*
  Basis Set:
  @DF-RHF Final Energy:  -387.13459207824133
    Total Energy =                       -387.1345920782414396
  Basis Set: 6-31G*
  Basis Set:
  Basis Set: 6-31G*
  Basis Set:
  @DF-RHF Final Energy:  -387.13465876948601
    Total Energy =                       -387.1346587694855543
  Basis Set: 6-31G*
  Basis Set:
  Basis Set: 6-31G*
  Basis Set:
  @DF-RHF Final Energy:  -387.13466173306642
    Total Energy =                       -387.1346617330661957
  Basis Set: 6-31G*
  Basis Set:
  Basis Set: 6-31G*
  Basis Set:
  @DF-RHF Final Energy:  -387.13464925494947
    Total Energy =                       -387.1346492549490677
  Basis Set: 6-31G*
  Basis Set:
  Basis Set: 6-31G*
  Basis Set:
  @DF-RHF Final Energy:  -387.13466216046157
    Total Energy =                       -387.1346621604616303
  Basis Set: 6-31G*
  Basis Set:
  Charge       = 0
  Multiplicity = 1
  Basis Set: 6-31G*
  Basis Set:

    Orbital Energies (a.u.)
    -----------------------

    Doubly Occupied:

       1A    -20.550477     2A    -11.326316     3A    -11.231907
       4A    -11.228359     5A    -11.216959     6A    -11.216322
       7A    -11.215700     8A    -11.213769     9A    -11.208837
      10A     -1.395781    11A     -1.093538    12A     -1.055667
      13A     -1.013653    14A     -0.967424    15A     -0.894572
      16A     -0.821857    17A     -0.781436    18A     -0.729618
      19A     -0.658225    20A     -0.653004    21A     -0.625089
      22A     -0.619534    23A     -0.610881    24A     -0.589415
      25A     -0.567898    26A     -0.556667    27A     -0.539904
      28A     -0.521367    29A     -0.514888    30A     -0.492838
      31A     -0.487794    32A     -0.476863    33A     -0.462658
      34A     -0.455842    35A     -0.450894    36A     -0.399472

  @DF-RHF Final Energy:  -387.13466216528684

   => Energetics <=

    Nuclear Repulsion Energy =            442.1302776901264906
    One-Electron Energy =               -1400.8390340632363404
    Two-Electron Energy =                 571.5740942078230091
    DFT Exchange-Correlation Energy =       0.0000000000000000
    Empirical Dispersion Energy =           0.0000000000000000
    PCM Polarization Energy =               0.0000000000000000
    EFP Energy =                            0.0000000000000000
    Total Energy =                       -387.1346621652868407
    Molecular point group: c1
  Basis Set: 6-31G*
  Basis Set:

  -Total Gradient:
     Atom            X                  Y                   Z
    ------   -----------------  -----------------  -----------------
       1       -0.000001997965     0.000003842129     0.000001890119
       2        0.000007481118    -0.000013339520    -0.000004480808
       3       -0.000000021527     0.000002883855    -0.000000105924
       4       -0.000002671349     0.000003458417     0.000001276768
       5       -0.000005266707     0.000008898983    -0.000001543950
       6       -0.000000317344    -0.000000633986     0.000001161754
       7        0.000000175216    -0.000000034977    -0.000000914556
       8        0.000006204828    -0.000003867725    -0.000000407752
       9       -0.000000425651     0.000001684074    -0.000000376695
      10       -0.000003076200    -0.000000746715     0.000000742612
      11        0.000604193914    -0.000903176058     0.001053534356
      12       -0.000000513513     0.000000145663     0.000002651550
      13        0.000002864667     0.000003157647    -0.000003132592
      14        0.000726116154    -0.001101880065     0.000741455051
      15       -0.000616994534     0.000934623605    -0.001005563473
      16        0.000000534590    -0.000000194810     0.000002997202
      17       -0.000004433011    -0.000004055750     0.000003423982
      18       -0.000707384215     0.001068378868    -0.000791334078
      19       -0.000002254002    -0.000002530586    -0.000001034060
      20        0.000001923685    -0.000001116615    -0.000000544994
      21       -0.000002939210     0.000003310852     0.000001365250
      22       -0.000000922322     0.000001048143    -0.000001369015
      23        0.000000045740     0.000000486510    -0.000000820376
      24       -0.000000130966    -0.000000062779     0.000000286681
      25       -0.000000191406    -0.000000279162     0.000000842949

  **** Optimization is complete! (in 7 steps) ****
    Final optimized geometry and variables:
    Molecular point group: c1

    Geometry (in Angstrom), charge = 0, multiplicity = 1:

    O            2.716325099959     1.594914512642    -0.215845037335
    C            2.018687248034     1.479162376838    -1.176385429649
    C            0.736315624091     0.666786183353    -1.152488527250
    C            2.371641215382     2.141594559300    -2.492351310751
    C            0.433706380744     0.022268123447     0.197055208688
    H           -0.078609045652     1.321858048331    -1.457775240650
    H            0.806247200963    -0.089431926794    -1.933276789787
    C           -0.864280346033    -0.787408367432     0.182565425304
    H            0.377742229558     0.796101029605     0.956147365201
    H            1.264341893567    -0.616411866609     0.480443938971
    C           -1.166222236559    -1.443687747243     1.533182057816
    H           -1.687969625311    -0.138543175396    -0.106795616957
    H           -0.801674886418    -1.560174893371    -0.582433606489
    C           -2.452721835977    -2.279292326980     1.552601281217
    H           -1.230587152778    -0.668637678386     2.294841327739
    H           -0.325919287370    -2.077345864943     1.806819882370
    C           -3.736989737315    -1.447182610757     1.572217230956
    H           -2.469167907190    -2.935119681863     0.684517264959
    H           -2.442382188720    -2.924334197936     2.427161271009
    H           -3.829874488624    -0.823681047562     0.688726070678
    H           -4.612810254356    -2.087708443049     1.611604358366
    H           -3.765501428558    -0.795602296347     2.441200288319
    H            1.581165998451     2.820383177026    -2.798971936839
    H            3.297705163207     2.689638626992    -2.388080476031
    H            2.477784504968     1.396153237010    -3.275100065221

  Mulliken Charges: (a.u.)
   Center  Symbol    Alpha    Beta     Spin     Total
       1     O     4.26114  4.26114  0.00000 -0.52228
       2     C     2.73573  2.73573  0.00000  0.52853
       3     C     3.21075  3.21075  0.00000 -0.42150
       4     C     3.28665  3.28665  0.00000 -0.57330
       5     C     3.14781  3.14781  0.00000 -0.29563
       6     H     0.41009  0.41009  0.00000  0.17982
       7     H     0.41001  0.41001  0.00000  0.17997
       8     C     3.15533  3.15533  0.00000 -0.31066
       9     H     0.41211  0.41211  0.00000  0.17578
      10     H     0.41228  0.41228  0.00000  0.17544
      11     C     3.15295  3.15295  0.00000 -0.30589
      12     H     0.42343  0.42343  0.00000  0.15314
      13     H     0.42513  0.42513  0.00000  0.14974
      14     C     3.15330  3.15330  0.00000 -0.30661
      15     H     0.42251  0.42251  0.00000  0.15499
      16     H     0.42030  0.42030  0.00000  0.15941
      17     C     3.24065  3.24065  0.00000 -0.48129
      18     H     0.42367  0.42367  0.00000  0.15266
      19     H     0.41994  0.41994  0.00000  0.16012
      20     H     0.42149  0.42149  0.00000  0.15703
      21     H     0.41933  0.41933  0.00000  0.16135
      22     H     0.42152  0.42152  0.00000  0.15695
      23     H     0.40874  0.40874  0.00000  0.18252
      24     H     0.39645  0.39645  0.00000  0.20710
      25     H     0.40870  0.40870  0.00000  0.18260

   Total alpha = 36.00000, Total beta = 36.00000, Total charge =  0.00000
