  ==> Input File <==

--------------------------------------------------------------------------
set {
	reference rhf
	basis 6-31G*
}

set_num_threads( 1 )
memory 2 gb

molecule MOL {
0 1

H	 -3.261111	 -0.295142	 1.469456
C	 -3.306842	 -0.277400	 0.373456
C	 -2.660244	 0.921717	 -0.272021
O	 -3.838538	 -1.161155	 -0.216482
C	 -1.220012	 1.144545	 0.209990
H	 -2.705793	 0.797307	 -1.347733
H	 -3.263782	 1.790044	 -0.010477
C	 -0.252658	 0.041456	 -0.226725
H	 -0.873521	 2.100229	 -0.171974
H	 -1.211708	 1.231594	 1.295398
C	 1.180775	 0.282413	 0.250794
H	 -0.266029	 -0.034465	 -1.312038
H	 -0.597733	 -0.921000	 0.146291
C	 2.148627	 -0.814315	 -0.201312
H	 1.516199	 1.249228	 -0.115937
H	 1.192670	 0.346017	 1.338083
C	 3.580890	 -0.659131	 0.322722
H	 2.166869	 -0.852443	 -1.289387
H	 1.762857	 -1.776509	 0.128956
C	 3.680953	 -0.352025	 1.817811
H	 4.063352	 0.143020	 -0.230209
H	 4.145593	 -1.562261	 0.100488
H	 3.111592	 0.538118	 2.072257
H	 3.307644	 -1.168816	 2.426472
H	 4.712923	 -0.177051	 2.106629

	symmetry c1
}
set optking {
	frozen_dihedral = ("
		6 3 5 8,
		6 3 2 4,
		3 5 8 12,
		12 8 11 14,
		8 11 14 18
	")
}

ee = energy('scf')
oeprop('DIPOLE', 'QUADRUPOLE', 'MULLIKEN_CHARGES')
f=open( 'psi4out.xyz', 'w' )
f.write( "25  " )
f.write( str(ee) + "\n" )
f.write( MOL.save_string_xyz() )
f.close()
--------------------------------------------------------------------------

    Molecular point group: c1

    Geometry (in Angstrom), charge = 0, multiplicity = 1:

       Center              X                  Y                   Z               Mass
    ------------   -----------------  -----------------  -----------------  -----------------
           H         -3.185625492129    -0.188159825944     1.231461067077     1.007825032070
           C         -3.231356492129    -0.170417825944     0.135461067077    12.000000000000
           C         -2.584758492129     1.028699174056    -0.510015932923    12.000000000000
           O         -3.763052492129    -1.054172825944    -0.454476932923    15.994914619560
           C         -1.144526492129     1.251527174056    -0.028004932923    12.000000000000
           H         -2.630307492129     0.904289174056    -1.585727932923     1.007825032070
           H         -3.188296492129     1.897026174056    -0.248471932923     1.007825032070
           C         -0.177172492129     0.148438174056    -0.464719932923    12.000000000000
           H         -0.798035492129     2.207211174056    -0.409968932923     1.007825032070
           H         -1.136222492129     1.338576174056     1.057403067077     1.007825032070
           C          1.256260507871     0.389395174056     0.012799067077    12.000000000000
           H         -0.190543492129     0.072517174056    -1.550032932923     1.007825032070
           H         -0.522247492129    -0.814017825944    -0.091703932923     1.007825032070
           C          2.224112507871    -0.707332825944    -0.439306932923    12.000000000000
           H          1.591684507871     1.356210174056    -0.353931932923     1.007825032070
           H          1.268155507871     0.452999174056     1.100088067077     1.007825032070
           C          3.656375507871    -0.552148825944     0.084727067077    12.000000000000
           H          2.242354507871    -0.745460825944    -1.527381932923     1.007825032070
           H          1.838342507871    -1.669526825944    -0.109038932923     1.007825032070
           C          3.756438507871    -0.245042825944     1.579816067077    12.000000000000
           H          4.138837507871     0.250002174056    -0.468203932923     1.007825032070
           H          4.221078507871    -1.455278825944    -0.137506932923     1.007825032070
           H          3.187077507871     0.645100174056     1.834262067077     1.007825032070
           H          3.383129507871    -1.061833825944     2.188477067077     1.007825032070
           H          4.788408507871    -0.070068825944     1.868634067077     1.007825032070

  Charge       = 0
  Multiplicity = 1
  Basis Set: 6-31G*
  Basis Set:

    Orbital Energies (a.u.)
    -----------------------

    Doubly Occupied:

       1A    -20.561984     2A    -11.326146     3A    -11.235309
       4A    -11.234614     5A    -11.223791     6A    -11.219574
       7A    -11.217985     8A    -11.216935     9A    -11.210565
      10A     -1.401961    11A     -1.104305    12A     -1.070317
      13A     -1.012440    14A     -0.941795    15A     -0.877893
      16A     -0.822345    17A     -0.787937    18A     -0.777487
      19A     -0.664137    20A     -0.663003    21A     -0.633960
      22A     -0.625420    23A     -0.609204    24A     -0.588372
      25A     -0.567037    26A     -0.564615    27A     -0.526124
      28A     -0.523351    29A     -0.515713    30A     -0.496366
      31A     -0.489122    32A     -0.479814    33A     -0.461764
      34A     -0.457187    35A     -0.442753    36A     -0.409519

  @DF-RHF Final Energy:  -387.11936761090647

   => Energetics <=

    Nuclear Repulsion Energy =            441.1382842791812209
    One-Electron Energy =               -1398.5936020871045002
    Two-Electron Energy =                 570.3359501970168139
    DFT Exchange-Correlation Energy =       0.0000000000000000
    Empirical Dispersion Energy =           0.0000000000000000
    PCM Polarization Energy =               0.0000000000000000
    EFP Energy =                            0.0000000000000000
    Total Energy =                       -387.1193676109064654

  Mulliken Charges: (a.u.)
   Center  Symbol    Alpha    Beta     Spin     Total
       1     H     0.43261  0.43261  0.00000  0.13479
       2     C     2.83083  2.83083  0.00000  0.33833
       3     C     3.20814  3.20814  0.00000 -0.41628
       4     O     4.23775  4.23775  0.00000 -0.47550
       5     C     3.16657  3.16657  0.00000 -0.33313
       6     H     0.39967  0.39967  0.00000  0.20066
       7     H     0.40671  0.40671  0.00000  0.18658
       8     C     3.15412  3.15412  0.00000 -0.30824
       9     H     0.41289  0.41289  0.00000  0.17422
      10     H     0.41969  0.41969  0.00000  0.16062
      11     C     3.15685  3.15685  0.00000 -0.31371
      12     H     0.41829  0.41829  0.00000  0.16342
      13     H     0.41829  0.41829  0.00000  0.16342
      14     C     3.15262  3.15262  0.00000 -0.30525
      15     H     0.42320  0.42320  0.00000  0.15361
      16     H     0.42009  0.42009  0.00000  0.15982
      17     C     3.15195  3.15195  0.00000 -0.30390
      18     H     0.42044  0.42044  0.00000  0.15911
      19     H     0.42297  0.42297  0.00000  0.15406
      20     C     3.24391  3.24391  0.00000 -0.48781
      21     H     0.42339  0.42339  0.00000  0.15321
      22     H     0.41946  0.41946  0.00000  0.16107
      23     H     0.41972  0.41972  0.00000  0.16055
      24     H     0.42151  0.42151  0.00000  0.15697
      25     H     0.41832  0.41832  0.00000  0.16337

   Total alpha = 36.00000, Total beta = 36.00000, Total charge = -0.00000
