                              Psi4 1.0.54 Driver

  ==> Input File <==

--------------------------------------------------------------------------
set {
	reference rhf
	basis cc-pvtz
}

set_num_threads( 4 )
memory 2 gb

molecule MOL {
0 1

H	 -1.298805	 -1.996309	 -0.828589
C	 -1.129607	 -1.132951	 -1.463907
O	 -0.775228	 0.000056	 -0.739966
H	 -2.055896	 -0.901757	 -1.970553
H	 -0.390708	 -1.394794	 -2.214306
C	 0.406133	 -0.000384	 0.036994
C	 1.526415	 -0.003194	 -0.997339
C	 0.498772	 1.259027	 0.900673
C	 0.495883	 -1.257378	 0.904465
H	 1.452279	 0.872071	 -1.630204
H	 1.451276	 -0.881020	 -1.626529
H	 2.497919	 -0.002741	 -0.517601
H	 0.368981	 2.144239	 0.289753
H	 1.470064	 1.313479	 1.377660
H	 -0.248448	 1.271586	 1.684297
H	 0.363971	 -2.144195	 0.296316
H	 1.467114	 -1.312636	 1.381470
H	 -0.251246	 -1.265768	 1.688235

	symmetry c1
}
set optking {
	frozen_dihedral = ("
		2 3 6 7
	")
}

ee,wfn = optimize('scf', return_wfn=True)
oeprop( wfn, 'DIPOLE', 'QUADRUPOLE', 'MULLIKEN_CHARGES')
f=open( 'psi4out.xyz', 'w' )
f.write( "18  " )
f.write( str(ee) + "\n" )
f.write( MOL.save_string_xyz() )
f.close()
--------------------------------------------------------------------------

    Molecular point group: c1
  Charge       = 0
  Multiplicity = 1
  Basis Set: CC-PVTZ
  Basis Set:
  @DF-RHF Final Energy:  -271.26940752940050
    Total Energy =                       -271.2694075294005529
    Molecular point group: c1
  Basis Set: CC-PVTZ
  Basis Set:
  Basis Set: CC-PVTZ
  Basis Set:
  @DF-RHF Final Energy:  -271.24106102223601
    Total Energy =                       -271.2410610222361242
  Basis Set: CC-PVTZ
  Basis Set:
  Basis Set: CC-PVTZ
  Basis Set:
  @DF-RHF Final Energy:  -271.27469493634612
    Total Energy =                       -271.2746949363460089
  Basis Set: CC-PVTZ
  Basis Set:
  Basis Set: CC-PVTZ
  Basis Set:
  @DF-RHF Final Energy:  -271.27659639272372
    Total Energy =                       -271.2765963927236044
  Basis Set: CC-PVTZ
  Basis Set:
  Basis Set: CC-PVTZ
  Basis Set:
  @DF-RHF Final Energy:  -271.27668652099908
    Total Energy =                       -271.2766865209991920
  Basis Set: CC-PVTZ
  Basis Set:
  Basis Set: CC-PVTZ
  Basis Set:
  @DF-RHF Final Energy:  -271.27668689160754
    Total Energy =                       -271.2766868916073690
  Basis Set: CC-PVTZ
  Basis Set:
  Basis Set: CC-PVTZ
  Basis Set:
  @DF-RHF Final Energy:  -271.27670281950526
    Total Energy =                       -271.2767028195052035
  Basis Set: CC-PVTZ
  Basis Set:
  Charge       = 0
  Multiplicity = 1
  Basis Set: CC-PVTZ
  Basis Set:

    Orbital Energies (a.u.)
    -----------------------

    Doubly Occupied:

       1A    -20.540557     2A    -11.280119     3A    -11.258202
       4A    -11.208134     5A    -11.206126     6A    -11.201798
       7A     -1.373623     8A     -1.074634     9A     -0.947196
      10A     -0.940439    11A     -0.913124    12A     -0.753490
      13A     -0.656729    14A     -0.646837    15A     -0.639555
      16A     -0.593305    17A     -0.575569    18A     -0.553267
      19A     -0.534507    20A     -0.525068    21A     -0.515126
      22A     -0.489190    23A     -0.487638    24A     -0.440969
      25A     -0.407231

  @DF-RHF Final Energy:  -271.27670341904604

   => Energetics <=

    Nuclear Repulsion Energy =            272.6895009707337749
    One-Electron Energy =                -908.4075428783175994
    Two-Electron Energy =                 364.4413384885381220
    DFT Exchange-Correlation Energy =       0.0000000000000000
    Empirical Dispersion Energy =           0.0000000000000000
    PCM Polarization Energy =               0.0000000000000000
    EFP Energy =                            0.0000000000000000
    Total Energy =                       -271.2767034190457025
    Molecular point group: c1
  Basis Set: CC-PVTZ
  Basis Set:

  -Total Gradient:
     Atom            X                  Y                   Z
    ------   -----------------  -----------------  -----------------
       1        0.000005043587    -0.000015860113     0.000022642199
       2       -0.000242752916    -0.000157761732     0.000280236022
       3        0.000433910860     0.000370106436    -0.000338601189
       4       -0.000019127090    -0.000002087133    -0.000009042751
       5        0.000007808021    -0.000002904612    -0.000002247938
       6       -0.000180084047    -0.000549938482     0.000003519162
       7        0.000050843140     0.000344214689     0.000072662489
       8       -0.000012938928     0.000007936869     0.000000231664
       9       -0.000041207752     0.000004813089    -0.000016504443
      10        0.000000099587     0.000004022899    -0.000002964780
      11       -0.000000555004    -0.000008287363    -0.000003792828
      12        0.000016906407    -0.000002062628     0.000006263486
      13       -0.000001401832     0.000029065084     0.000004116160
      14        0.000009054406    -0.000001492737    -0.000001672290
      15       -0.000014508873    -0.000011040293    -0.000002207623
      16       -0.000011635301    -0.000017214571    -0.000016479754
      17        0.000009650009     0.000008122850    -0.000008862363
      18       -0.000009104278     0.000000367747     0.000012704777

  **** Optimization is complete! (in 8 steps) ****
    Final optimized geometry and variables:
    Molecular point group: c1

    Geometry (in Angstrom), charge = 0, multiplicity = 1:

    H           -1.687284424655    -1.397325707442    -1.054444651448
    C           -1.278659957171    -0.488769404659    -1.484561442590
    O           -0.847899904768     0.408215647161    -0.513227912156
    H           -2.064085496383     0.004771187785    -2.039320023083
    H           -0.492332518831    -0.759875301826    -2.182008451675
    C            0.265053170596     0.086341839080     0.297680365103
    C            1.554693724579     0.113307560320    -0.525244487529
    C            0.294943665923     1.196982563951     1.342142792219
    C            0.088743079595    -1.268860186869     0.984262828103
    H            1.650196188334     1.062409693231    -1.038173668424
    H            1.581471391094    -0.677835162016    -1.264254857702
    H            2.415983813280    -0.015417303962     0.119730907130
    H            0.378645306656     2.161531923371     0.857714689280
    H            1.134550503850     1.073971591282     2.015958859460
    H           -0.619100117480     1.189786779201     1.922429257066
    H            0.124703573915    -2.090561694807     0.279744072502
    H            0.881856948106    -1.423882896967     1.705648382089
    H           -0.858940194305    -1.307914749162     1.508147508693

  Mulliken Charges: (a.u.)
   Center  Symbol    Alpha    Beta     Spin     Total
       1     H     0.46827  0.46827  0.00000  0.06346
       2     C     3.04441  3.04441  0.00000 -0.08883
       3     O     4.19028  4.19028  0.00000 -0.38056
       4     H     0.44082  0.44082  0.00000  0.11836
       5     H     0.47036  0.47036  0.00000  0.05928
       6     C     2.87361  2.87361  0.00000  0.25278
       7     C     3.15980  3.15980  0.00000 -0.31960
       8     C     3.14147  3.14147  0.00000 -0.28294
       9     C     3.16803  3.16803  0.00000 -0.33606
      10     H     0.44611  0.44611  0.00000  0.10778
      11     H     0.44950  0.44950  0.00000  0.10101
      12     H     0.44992  0.44992  0.00000  0.10016
      13     H     0.44824  0.44824  0.00000  0.10352
      14     H     0.45937  0.45937  0.00000  0.08127
      15     H     0.44954  0.44954  0.00000  0.10092
      16     H     0.44855  0.44855  0.00000  0.10291
      17     H     0.44694  0.44694  0.00000  0.10613
      18     H     0.44479  0.44479  0.00000  0.11042

   Total alpha = 25.00000, Total beta = 25.00000, Total charge =  0.00000

*** Psi4 exiting successfully. Buy a developer a beer!
