  ==> Input File <==

--------------------------------------------------------------------------
set {
	reference rhf
	basis 6-31G*
}

set_num_threads( 4 )
memory 2 gb

molecule MOL {
0 1

H	 2.500554	 -1.224084	 -1.074103
N	 1.517268	 -1.039813	 -1.097646
C	 1.252328	 0.346015	 -0.757058
C	 0.809388	 -1.948198	 -0.214213
H	 1.784858	 0.987072	 -1.451484
H	 1.580571	 0.597857	 0.254116
C	 -0.242355	 0.608481	 -0.864128
H	 1.021149	 -2.968560	 -0.515522
H	 1.110803	 -1.835309	 0.829840
C	 -0.685021	 -1.684311	 -0.321619
H	 -0.548996	 0.504365	 -1.909226
H	 -0.455035	 1.627305	 -0.557029
N	 -0.975995	 -0.298722	 0.000000
H	 -1.217380	 -2.321262	 0.377261
H	 -1.021320	 -1.942035	 -1.330371
C	 -2.393863	 -0.024976	 0.000000
H	 -2.854032	 -0.467193	 -0.876721
H	 -2.854032	 -0.467193	 0.876721
H	 -2.623281	 1.044943	 0.000000

	symmetry c1
}
set optking {
	frozen_dihedral = ("
		7 13 16 19
	")
}

ee = optimize('scf')
oeprop('DIPOLE', 'QUADRUPOLE', 'MULLIKEN_CHARGES')
f=open( 'psi4out.xyz', 'w' )
f.write( "19  " )
f.write( str(ee) + "\n" )
f.write( MOL.save_string_xyz() )
f.close()
--------------------------------------------------------------------------

    Molecular point group: c1
  Charge       = 0
  Multiplicity = 1
  Basis Set: 6-31G*
  Basis Set:
  @DF-RHF Final Energy:  -305.19764418573999
    Total Energy =                       -305.1976441857401596
    Molecular point group: c1
  Basis Set: 6-31G*
  Basis Set:
  Basis Set: 6-31G*
  Basis Set:
  @DF-RHF Final Energy:  -305.19846369969105
    Total Energy =                       -305.1984636996911036
  Basis Set: 6-31G*
  Basis Set:
  Basis Set: 6-31G*
  Basis Set:
  @DF-RHF Final Energy:  -305.19857584026647
    Total Energy =                       -305.1985758402665283
  Basis Set: 6-31G*
  Basis Set:
  Basis Set: 6-31G*
  Basis Set:
  @DF-RHF Final Energy:  -305.19857869609729
    Total Energy =                       -305.1985786960972291
  Basis Set: 6-31G*
  Basis Set:
  Charge       = 0
  Multiplicity = 1
  Basis Set: 6-31G*
  Basis Set:

    Orbital Energies (a.u.)
    -----------------------

    Doubly Occupied:

       1A    -15.539495     2A    -15.536578     3A    -11.238473
       4A    -11.238444     5A    -11.237373     6A    -11.237092
       7A    -11.235036     8A     -1.246704     9A     -1.185058
      10A     -1.023174    11A     -0.964532    12A     -0.861159
      13A     -0.857167    14A     -0.756343    15A     -0.691040
      16A     -0.633388    17A     -0.626591    18A     -0.606414
      19A     -0.603881    20A     -0.580100    21A     -0.544163
      22A     -0.529253    23A     -0.512131    24A     -0.489921
      25A     -0.467340    26A     -0.457200    27A     -0.363358
      28A     -0.341614

  @DF-RHF Final Energy:  -305.19857917503168

   => Energetics <=

    Nuclear Repulsion Energy =            339.7174006624663889
    One-Electron Energy =               -1086.6259197303963902
    Two-Electron Energy =                 441.7099398928980918
    DFT Exchange-Correlation Energy =       0.0000000000000000
    Empirical Dispersion Energy =           0.0000000000000000
    PCM Polarization Energy =               0.0000000000000000
    EFP Energy =                            0.0000000000000000
    Total Energy =                       -305.1985791750319095
    Molecular point group: c1
  Basis Set: 6-31G*
  Basis Set:

  -Total Gradient:
     Atom            X                  Y                   Z
    ------   -----------------  -----------------  -----------------
       1        0.000000691740     0.000007745771    -0.000001874864
       2       -0.000003661597     0.000004475373    -0.000001609807
       3        0.000008259393     0.000005928624     0.000010107077
       4       -0.000012449160     0.000000961734    -0.000009673455
       5        0.000007750652     0.000000757853    -0.000002314962
       6       -0.000001068153     0.000000477884     0.000000932201
       7        0.000355769170     0.001657372229     0.002064703078
       8        0.000006652829    -0.000004693643    -0.000000656701
       9       -0.000006851995     0.000001182296    -0.000006771572
      10       -0.000011433028    -0.000016823409     0.000009643432
      11       -0.000009180712    -0.000007414041     0.000013384097
      12        0.000004826368    -0.000001854778    -0.000000447893
      13       -0.000499761852    -0.002301978611    -0.003794689663
      14       -0.000007256037     0.000001861522    -0.000000165543
      15        0.000008560813     0.000009968378     0.000011113048
      16        0.000198099168     0.000573282930     0.005238536489
      17       -0.000004700998    -0.000006783671     0.000003491707
      18        0.000024259726    -0.000004490963    -0.000021314768
      19       -0.000058506323     0.000080024524    -0.003512391900

  **** Optimization is complete! (in 5 steps) ****
    Final optimized geometry and variables:
    Molecular point group: c1

    Geometry (in Angstrom), charge = 0, multiplicity = 1:

    H            2.614831705195    -0.643392135083    -0.597350110418
    N            1.631223495136    -0.461292001985    -0.623297356824
    C            1.363336476411     0.925129003102    -0.287110282435
    C            0.923658929943    -1.368826623699     0.261360292345
    H            1.903337442925     1.565282755876    -0.976654583771
    H            1.681830724944     1.177149559957     0.727199277528
    C           -0.130130576799     1.189803934582    -0.408020361390
    H            1.141485244688    -2.389748632289    -0.033816028358
    H            1.220203746953    -1.249167565889     1.306045738672
    C           -0.571045478417    -1.111166418486     0.145097808842
    H           -0.423311359049     1.096888561586    -1.458307261772
    H           -0.343714274779     2.205501843089    -0.092967513249
    N           -0.868730842496     0.275798887038     0.442622998976
    H           -1.105256492402    -1.739138674475     0.851233002074
    H           -0.903785070887    -1.385228985652    -0.860607713495
    C           -2.288688388946     0.540303311567     0.473618186610
    H           -2.809222504332     0.153331484488    -0.407884630160
    H           -2.736852273869     0.090078098998     1.352801701130
    H           -2.464945661942     1.609159156306     0.498544835689

  Mulliken Charges: (a.u.)
   Center  Symbol    Alpha    Beta     Spin     Total
       1     H     0.32944  0.32944  0.00000  0.34113
       2     N     3.85431  3.85431  0.00000 -0.70862
       3     C     3.06389  3.06389  0.00000 -0.12779
       4     C     3.06356  3.06356  0.00000 -0.12713
       5     H     0.41771  0.41771  0.00000  0.16458
       6     H     0.42786  0.42786  0.00000  0.14427
       7     C     3.05280  3.05280  0.00000 -0.10560
       8     H     0.41767  0.41767  0.00000  0.16466
       9     H     0.42788  0.42788  0.00000  0.14424
      10     C     3.05303  3.05303  0.00000 -0.10606
      11     H     0.42867  0.42867  0.00000  0.14266
      12     H     0.41881  0.41881  0.00000  0.16239
      13     N     3.79084  3.79084  0.00000 -0.58167
      14     H     0.41893  0.41893  0.00000  0.16215
      15     H     0.42807  0.42807  0.00000  0.14385
      16     C     3.13843  3.13843  0.00000 -0.27686
      17     H     0.43323  0.43323  0.00000  0.13354
      18     H     0.41622  0.41622  0.00000  0.16755
      19     H     0.41864  0.41864  0.00000  0.16273

   Total alpha = 28.00000, Total beta = 28.00000, Total charge = -0.00000
