  ==> Input File <==

--------------------------------------------------------------------------
set {
	reference rhf
	basis 6-31G*
}

set_num_threads( 1 )
memory 2 gb

molecule MOL {
0 1

H	 2.591676	 2.013956	 0.335017
O	 3.341076	 1.666752	 -0.126416
C	 3.569581	 0.339145	 0.272707
C	 4.601933	 -0.378616	 -0.589729
H	 3.922564	 0.395597	 1.294417
H	 2.635584	 -0.221480	 0.284041
C	 4.178734	 -0.554564	 -2.050144
H	 5.535125	 0.176792	 -0.544553
H	 4.792387	 -1.355421	 -0.148200
C	 5.211893	 -1.325757	 -2.876379
H	 4.015189	 0.423142	 -2.494791
H	 3.224868	 -1.080780	 -2.089832
C	 4.798840	 -1.604335	 -4.326249
H	 6.154575	 -0.781567	 -2.869010
H	 5.407577	 -2.276746	 -2.385433
C	 4.673854	 -0.360921	 -5.210997
H	 5.534918	 -2.272188	 -4.768943
H	 3.855449	 -2.148214	 -4.333012
C	 4.363730	 -0.697055	 -6.671227
H	 5.601224	 0.208151	 -5.163536
H	 3.894656	 0.293888	 -4.828401
C	 4.232103	 0.542622	 -7.555275
H	 5.146908	 -1.340314	 -7.066622
H	 3.442518	 -1.274025	 -6.719792
H	 5.149562	 1.124421	 -7.553786
H	 4.014390	 0.271506	 -8.583737
H	 3.431436	 1.189445	 -7.207545

	symmetry c1
}
set optking {
	frozen_dihedral = ("
		14 10 7 4,
		14 10 13 16,
		10 7 4 8,
		8 4 3 2,
		10 13 16 20,
		20 16 19 22
	")
}

ee = energy('scf')
oeprop('DIPOLE', 'QUADRUPOLE', 'MULLIKEN_CHARGES')
f=open( 'psi4out.xyz', 'w' )
f.write( "27  " )
f.write( str(ee) + "\n" )
f.write( MOL.save_string_xyz() )
f.close()
--------------------------------------------------------------------------

    Molecular point group: c1

    Geometry (in Angstrom), charge = 0, multiplicity = 1:

       Center              X                  Y                   Z               Mass
    ------------   -----------------  -----------------  -----------------  -----------------
           H         -1.711306677477     2.233112659300     3.527534066089     1.007825032070
           O         -0.961906677477     1.885908659300     3.066101066089    15.994914619560
           C         -0.733401677477     0.558301659300     3.465224066089    12.000000000000
           C          0.298950322523    -0.159459340700     2.602788066089    12.000000000000
           H         -0.380418677477     0.614753659300     4.486934066089     1.007825032070
           H         -1.667398677477    -0.002323340700     3.476558066089     1.007825032070
           C         -0.124248677477    -0.335407340700     1.142373066089    12.000000000000
           H          1.232142322523     0.395948659300     2.647964066089     1.007825032070
           H          0.489404322523    -1.136264340700     3.044317066089     1.007825032070
           C          0.908910322523    -1.106600340700     0.316138066089    12.000000000000
           H         -0.287793677477     0.642298659300     0.697726066089     1.007825032070
           H         -1.078114677477    -0.861623340700     1.102685066089     1.007825032070
           C          0.495857322523    -1.385178340700    -1.133731933911    12.000000000000
           H          1.851592322523    -0.562410340700     0.323507066089     1.007825032070
           H          1.104594322523    -2.057589340700     0.807084066089     1.007825032070
           C          0.370871322523    -0.141764340700    -2.018479933911    12.000000000000
           H          1.231935322523    -2.053031340700    -1.576425933911     1.007825032070
           H         -0.447533677477    -1.929057340700    -1.140494933911     1.007825032070
           C          0.060747322523    -0.477898340700    -3.478709933911    12.000000000000
           H          1.298241322523     0.427307659300    -1.971018933911     1.007825032070
           H         -0.408326677477     0.513044659300    -1.635883933911     1.007825032070
           C         -0.070879677477     0.761778659300    -4.362757933911    12.000000000000
           H          0.843925322523    -1.121157340700    -3.874104933911     1.007825032070
           H         -0.860464677477    -1.054868340700    -3.527274933911     1.007825032070
           H          0.846579322523     1.343577659300    -4.361268933911     1.007825032070
           H         -0.288592677477     0.490662659300    -5.391219933911     1.007825032070
           H         -0.871546677477     1.408601659300    -4.015027933911     1.007825032070

  Charge       = 0
  Multiplicity = 1
  Basis Set: 6-31G*
  Basis Set:

    Orbital Energies (a.u.)
    -----------------------

    Doubly Occupied:

       1A    -20.550465     2A    -11.267369     3A    -11.215307
       4A    -11.211171     5A    -11.210138     6A    -11.209565
       7A    -11.208054     8A    -11.208007     9A    -11.205030
      10A     -1.358024    11A     -1.088692    12A     -1.056592
      13A     -1.007970    14A     -0.943167    15A     -0.880039
      16A     -0.812212    17A     -0.794894    18A     -0.771103
      19A     -0.701806    20A     -0.644027    21A     -0.636552
      22A     -0.619271    23A     -0.588098    24A     -0.578599
      25A     -0.573614    26A     -0.546778    27A     -0.538239
      28A     -0.516481    29A     -0.507203    30A     -0.490312
      31A     -0.476007    32A     -0.474098    33A     -0.459741
      34A     -0.453602    35A     -0.442442    36A     -0.439423
      37A     -0.421186

  @DF-RHF Final Energy:  -388.28038964273225

   => Energetics <=

    Nuclear Repulsion Energy =            458.4003541670824120
    One-Electron Energy =               -1435.1508628826618406
    Two-Electron Energy =                 588.4701190728472966
    DFT Exchange-Correlation Energy =       0.0000000000000000
    Empirical Dispersion Energy =           0.0000000000000000
    PCM Polarization Energy =               0.0000000000000000
    EFP Energy =                            0.0000000000000000
    Total Energy =                       -388.2803896427320751

  Mulliken Charges: (a.u.)
   Center  Symbol    Alpha    Beta     Spin     Total
       1     H     0.28009  0.28009  0.00000  0.43981
       2     O     4.37218  4.37218  0.00000 -0.74435
       3     C     2.99366  2.99366  0.00000  0.01268
       4     C     3.16168  3.16168  0.00000 -0.32335
       5     H     0.42919  0.42919  0.00000  0.14161
       6     H     0.43389  0.43389  0.00000  0.13222
       7     C     3.15662  3.15662  0.00000 -0.31323
       8     H     0.41483  0.41483  0.00000  0.17034
       9     H     0.42236  0.42236  0.00000  0.15527
      10     C     3.15350  3.15350  0.00000 -0.30699
      11     H     0.40724  0.40724  0.00000  0.18552
      12     H     0.42742  0.42742  0.00000  0.14516
      13     C     3.15272  3.15272  0.00000 -0.30544
      14     H     0.42332  0.42332  0.00000  0.15335
      15     H     0.42452  0.42452  0.00000  0.15096
      16     C     3.15290  3.15290  0.00000 -0.30580
      17     H     0.42277  0.42277  0.00000  0.15447
      18     H     0.42477  0.42477  0.00000  0.15046
      19     C     3.15103  3.15103  0.00000 -0.30206
      20     H     0.42432  0.42432  0.00000  0.15135
      21     H     0.42061  0.42061  0.00000  0.15878
      22     C     3.23904  3.23904  0.00000 -0.47807
      23     H     0.42383  0.42383  0.00000  0.15234
      24     H     0.42373  0.42373  0.00000  0.15253
      25     H     0.42185  0.42185  0.00000  0.15629
      26     H     0.42022  0.42022  0.00000  0.15956
      27     H     0.42171  0.42171  0.00000  0.15657

   Total alpha = 37.00000, Total beta = 37.00000, Total charge =  0.00000
