  ==> Input File <==

--------------------------------------------------------------------------
set {
	reference rhf
	basis 6-31G*
}

set_num_threads( 4 )
memory 2 gb

molecule MOL {
0 1

H	 -1.630278	 0.069849	 -1.367966
C	 -0.928144	 -0.484033	 -0.778805
C	 -0.922020	 -1.867295	 -0.773667
C	 0.000000	 0.183220	 0.000000
H	 -1.634659	 -2.404452	 -1.371642
C	 0.000000	 -2.555744	 0.000000
N	 0.000000	 1.642018	 0.000000
C	 0.928144	 -0.484034	 0.778805
H	 0.000000	 -3.630640	 0.000000
C	 0.922020	 -1.867295	 0.773667
O	 1.057097	 2.196749	 0.000000
O	 -1.057097	 2.196749	 0.000000
H	 1.630278	 0.069849	 1.367966
H	 1.634659	 -2.404452	 1.371642

	symmetry c1
}
set optking {
	frozen_dihedral = ("
		2 4 7 11
	")
}

ee = optimize('scf')
oeprop('DIPOLE', 'QUADRUPOLE', 'MULLIKEN_CHARGES')
f=open( 'psi4out.xyz', 'w' )
f.write( "14  " )
f.write( str(ee) + "\n" )
f.write( MOL.save_string_xyz() )
f.close()
--------------------------------------------------------------------------

    Molecular point group: c1
  Charge       = 0
  Multiplicity = 1
  Basis Set: 6-31G*
  Basis Set:
  @DF-RHF Final Energy:  -434.17065887553184
    Total Energy =                       -434.1706588755318990
    Molecular point group: c1
  Basis Set: 6-31G*
  Basis Set:
  Basis Set: 6-31G*
  Basis Set:
  @DF-RHF Final Energy:  -434.16448821394289
    Total Energy =                       -434.1644882139429455
  Basis Set: 6-31G*
  Basis Set:
  Basis Set: 6-31G*
  Basis Set:
  @DF-RHF Final Energy:  -434.17090007893773
    Total Energy =                       -434.1709000789373931
  Basis Set: 6-31G*
  Basis Set:
  Basis Set: 6-31G*
  Basis Set:
  @DF-RHF Final Energy:  -434.17108412378417
    Total Energy =                       -434.1710841237844534
  Basis Set: 6-31G*
  Basis Set:
  Charge       = 0
  Multiplicity = 1
  Basis Set: 6-31G*
  Basis Set:

    Orbital Energies (a.u.)
    -----------------------

    Doubly Occupied:

       1A    -20.603430     2A    -20.603068     3A    -15.855323
       4A    -11.305510     5A    -11.271473     6A    -11.271213
       7A    -11.266432     8A    -11.262119     9A    -11.261940
      10A     -1.635201    11A     -1.418983    12A     -1.202430
      13A     -1.095107    14A     -1.053522    15A     -0.957867
      16A     -0.867909    17A     -0.825828    18A     -0.782418
      19A     -0.733321    20A     -0.729192    21A     -0.712080
      22A     -0.651751    23A     -0.649684    24A     -0.624413
      25A     -0.555982    26A     -0.540327    27A     -0.530848
      28A     -0.490491    29A     -0.487398    30A     -0.450751
      31A     -0.371459    32A     -0.366213

  @DF-RHF Final Energy:  -434.17108464638210

   => Energetics <=

    Nuclear Repulsion Energy =            417.0287688967259214
    One-Electron Energy =               -1417.5323412168968389
    Two-Electron Energy =                 566.3324876737885916
    DFT Exchange-Correlation Energy =       0.0000000000000000
    Empirical Dispersion Energy =           0.0000000000000000
    PCM Polarization Energy =               0.0000000000000000
    EFP Energy =                            0.0000000000000000
    Total Energy =                       -434.1710846463822691
    Molecular point group: c1
  Basis Set: 6-31G*
  Basis Set:

  -Total Gradient:
     Atom            X                  Y                   Z
    ------   -----------------  -----------------  -----------------
       1        0.000011015523    -0.000011193826     0.000003526638
       2        0.002877957078    -0.000136789250    -0.003327273434
       3        0.000035142256     0.000035634925    -0.000073164270
       4       -0.004113928791     0.000163154703     0.002935880450
       5       -0.000000865289     0.000000979814     0.000001643909
       6       -0.000050907804     0.000001966161     0.000118465823
       7        0.001109866881     0.000210619126     0.005459036370
       8       -0.000025065629     0.000038086263    -0.000013985081
       9        0.000008798746     0.000001325180    -0.000019134575
      10        0.000017686579    -0.000021422722    -0.000053796109
      11        0.000210894823    -0.000222431688    -0.005069445880
      12       -0.000077443646    -0.000071787567     0.000024486383
      13       -0.000007404872     0.000000517197     0.000015011298
      14        0.000004254143     0.000011341675    -0.000001251522

  **** Optimization is complete! (in 5 steps) ****
    Final optimized geometry and variables:
    Molecular point group: c1

    Geometry (in Angstrom), charge = 0, multiplicity = 1:

    H           -1.652771441446     0.079248938317    -1.334218517489
    C           -0.941183501681    -0.477701915353    -0.757105348816
    C           -0.919027626615    -1.861460424572    -0.773413334068
    C           -0.021466415171     0.183226562603     0.032929930863
    H           -1.620351565510    -2.397477039116    -1.385589935232
    C            0.003928700942    -2.550892109456    -0.001995049918
    N            0.000263601407     1.639313064016     0.004679975979
    C            0.928271157997    -0.480446861111     0.784780238505
    H            0.011545701420    -3.625641776772    -0.012885056287
    C            0.922468438076    -1.863904099294     0.777762481100
    O            1.067882074878     2.172868995008     0.020521514456
    O           -1.049234240830     2.203199917102    -0.071547544419
    H            1.644953682910     0.074728096925     1.357414119541
    H            1.638600863967    -2.402258848893     1.370433241389

  Mulliken Charges: (a.u.)
   Center  Symbol    Alpha    Beta     Spin     Total
       1     H     0.36931  0.36931  0.00000  0.26137
       2     C     3.08616  3.08616  0.00000 -0.17231
       3     C     3.10713  3.10713  0.00000 -0.21426
       4     C     2.90991  2.90991  0.00000  0.18017
       5     H     0.38846  0.38846  0.00000  0.22308
       6     C     3.08846  3.08846  0.00000 -0.17693
       7     N     3.25349  3.25349  0.00000  0.49303
       8     C     3.08515  3.08515  0.00000 -0.17030
       9     H     0.38932  0.38932  0.00000  0.22136
      10     C     3.10749  3.10749  0.00000 -0.21499
      11     O     4.22837  4.22837  0.00000 -0.45673
      12     O     4.22811  4.22811  0.00000 -0.45622
      13     H     0.37020  0.37020  0.00000  0.25961
      14     H     0.38844  0.38844  0.00000  0.22312

   Total alpha = 32.00000, Total beta = 32.00000, Total charge = -0.00000
