  ==> Input File <==

--------------------------------------------------------------------------
set {
	reference rhf
	basis 6-31G*
}

set_num_threads( 1 )
memory 2 gb

molecule MOL {
0 1

H	 2.990423	 -1.531190	 -0.738763
O	 2.826016	 -1.159218	 0.122261
C	 2.077727	 -0.067559	 -0.035091
C	 0.624473	 -0.343591	 0.253101
O	 2.542965	 0.974826	 -0.363729
C	 -0.265902	 0.883932	 0.072916
H	 0.324016	 -1.163849	 -0.390541
H	 0.565024	 -0.726111	 1.268924
C	 -1.728698	 0.646073	 0.462102
H	 -0.209144	 1.219470	 -0.958188
H	 0.135059	 1.692851	 0.673903
C	 -2.482460	 -0.343073	 -0.431425
H	 -2.245265	 1.602650	 0.432430
H	 -1.779332	 0.308348	 1.496285
C	 -3.960546	 -0.461025	 -0.060175
H	 -2.395034	 -0.026811	 -1.468912
H	 -2.024850	 -1.327147	 -0.371646
H	 -4.472726	 -1.168004	 -0.705284
H	 -4.465146	 0.496508	 -0.151489
H	 -4.081218	 -0.800940	 0.964585

	symmetry c1
}
set optking {
	frozen_dihedral = ("
		16 12 9 6,
		7 4 6 10,
		12 9 6 10,
		5 3 4 7
	")
}

ee = energy('scf')
oeprop('DIPOLE', 'QUADRUPOLE', 'MULLIKEN_CHARGES')
f=open( 'psi4out.xyz', 'w' )
f.write( "20  " )
f.write( str(ee) + "\n" )
f.write( MOL.save_string_xyz() )
f.close()
--------------------------------------------------------------------------

    Molecular point group: c1

    Geometry (in Angstrom), charge = 0, multiplicity = 1:

       Center              X                  Y                   Z               Mass
    ------------   -----------------  -----------------  -----------------  -----------------
           H          2.996839474039    -1.525955675562    -0.732961854654     1.007825032070
           O          2.832432474039    -1.153983675562     0.128062145346    15.994914619560
           C          2.084143474039    -0.062324675562    -0.029289854654    12.000000000000
           C          0.630889474039    -0.338356675562     0.258902145346    12.000000000000
           O          2.549381474039     0.980060324438    -0.357927854654    15.994914619560
           C         -0.259485525961     0.889166324438     0.078717145346    12.000000000000
           H          0.330432474039    -1.158614675562    -0.384739854654     1.007825032070
           H          0.571440474039    -0.720876675562     1.274725145346     1.007825032070
           C         -1.722281525961     0.651307324438     0.467903145346    12.000000000000
           H         -0.202727525961     1.224704324438    -0.952386854654     1.007825032070
           H          0.141475474039     1.698085324438     0.679704145346     1.007825032070
           C         -2.476043525961    -0.337838675562    -0.425623854654    12.000000000000
           H         -2.238848525961     1.607884324438     0.438231145346     1.007825032070
           H         -1.772915525961     0.313582324438     1.502086145346     1.007825032070
           C         -3.954129525961    -0.455790675562    -0.054373854654    12.000000000000
           H         -2.388617525961    -0.021576675562    -1.463110854654     1.007825032070
           H         -2.018433525961    -1.321912675562    -0.365844854654     1.007825032070
           H         -4.466309525961    -1.162769675562    -0.699482854654     1.007825032070
           H         -4.458729525961     0.501742324438    -0.145687854654     1.007825032070
           H         -4.074801525961    -0.795705675562     0.970386145346     1.007825032070

  Charge       = 0
  Multiplicity = 1
  Basis Set: 6-31G*
  Basis Set:

    Orbital Energies (a.u.)
    -----------------------

    Doubly Occupied:

       1A    -20.598009     2A    -20.559542     3A    -11.379816
       4A    -11.240689     5A    -11.223046     6A    -11.222233
       7A    -11.221006     8A    -11.213823     9A     -1.469056
      10A     -1.368118    11A     -1.096719    12A     -1.040799
      13A     -0.959215    14A     -0.866051    15A     -0.818751
      16A     -0.781979    17A     -0.711448    18A     -0.680816
      19A     -0.666102    20A     -0.633941    21A     -0.619171
      22A     -0.587590    23A     -0.560781    24A     -0.554137
      25A     -0.531664    26A     -0.505536    27A     -0.504499
      28A     -0.489554    29A     -0.470657    30A     -0.464838
      31A     -0.458652    32A     -0.443073

  @DF-RHF Final Energy:  -383.92685433755821

   => Energetics <=

    Nuclear Repulsion Energy =            376.0982310947723590
    One-Electron Energy =               -1268.1676415457463918
    Two-Electron Energy =                 508.1425561134157078
    DFT Exchange-Correlation Energy =       0.0000000000000000
    Empirical Dispersion Energy =           0.0000000000000000
    PCM Polarization Energy =               0.0000000000000000
    EFP Energy =                            0.0000000000000000
    Total Energy =                       -383.9268543375583249

  Mulliken Charges: (a.u.)
   Center  Symbol    Alpha    Beta     Spin     Total
       1     H     0.26494  0.26494  0.00000  0.47013
       2     O     4.35780  4.35780  0.00000 -0.71561
       3     C     2.63560  2.63560  0.00000  0.72881
       4     C     3.21061  3.21061  0.00000 -0.42121
       5     O     4.25344  4.25344  0.00000 -0.50687
       6     C     3.15526  3.15526  0.00000 -0.31053
       7     H     0.40718  0.40718  0.00000  0.18564
       8     H     0.39780  0.39780  0.00000  0.20440
       9     C     3.15528  3.15528  0.00000 -0.31055
      10     H     0.41414  0.41414  0.00000  0.17173
      11     H     0.40701  0.40701  0.00000  0.18598
      12     C     3.15466  3.15466  0.00000 -0.30932
      13     H     0.41787  0.41787  0.00000  0.16425
      14     H     0.42338  0.42338  0.00000  0.15324
      15     C     3.23915  3.23915  0.00000 -0.47831
      16     H     0.42212  0.42212  0.00000  0.15576
      17     H     0.42390  0.42390  0.00000  0.15221
      18     H     0.41859  0.41859  0.00000  0.16282
      19     H     0.42028  0.42028  0.00000  0.15945
      20     H     0.42100  0.42100  0.00000  0.15800

   Total alpha = 32.00000, Total beta = 32.00000, Total charge =  0.00000
