  ==> Input File <==

--------------------------------------------------------------------------
set {
	reference rhf
	basis 6-31G*
}

set_num_threads( 4 )
memory 2 gb

molecule MOL {
0 1

H	 1.615980	 -1.714210	 -0.156864
O	 2.016064	 -0.864478	 0.000222
C	 1.050492	 0.053836	 0.000068
C	 -0.318135	 -0.576402	 0.000164
O	 1.285279	 1.218255	 -0.000078
C	 -1.454360	 0.441875	 -0.000474
H	 -0.374042	 -1.230163	 -0.866135
H	 -0.374274	 -1.229227	 0.867154
C	 -2.826123	 -0.230780	 0.000056
H	 -1.357605	 1.085198	 -0.868380
H	 -1.357504	 1.086451	 0.866496
H	 -2.959731	 -0.858053	 -0.876869
H	 -3.619374	 0.509403	 -0.000080
H	 -2.959371	 -0.857318	 0.877556

	symmetry c1
}
set optking {
	frozen_dihedral = ("
		1 2 3 5
	")
}

ee = optimize('scf')
oeprop('DIPOLE', 'QUADRUPOLE', 'MULLIKEN_CHARGES')
f=open( 'psi4out.xyz', 'w' )
f.write( "14  " )
f.write( str(ee) + "\n" )
f.write( MOL.save_string_xyz() )
f.close()
--------------------------------------------------------------------------

    Molecular point group: c1
  Charge       = 0
  Multiplicity = 1
  Basis Set: 6-31G*
  Basis Set:
  @DF-RHF Final Energy:  -305.86789917838962
    Total Energy =                       -305.8678991783897345
    Molecular point group: c1
  Basis Set: 6-31G*
  Basis Set:
  Basis Set: 6-31G*
  Basis Set:
  @DF-RHF Final Energy:  -305.86930451982340
    Total Energy =                       -305.8693045198234586
  Basis Set: 6-31G*
  Basis Set:
  Basis Set: 6-31G*
  Basis Set:
  @DF-RHF Final Energy:  -305.86950330222749
    Total Energy =                       -305.8695033022275993
  Basis Set: 6-31G*
  Basis Set:
  Basis Set: 6-31G*
  Basis Set:
  @DF-RHF Final Energy:  -305.86950655819840
    Total Energy =                       -305.8695065581986228
  Basis Set: 6-31G*
  Basis Set:
  Basis Set: 6-31G*
  Basis Set:
  @DF-RHF Final Energy:  -305.86950323530561
    Total Energy =                       -305.8695032353052738
  Basis Set: 6-31G*
  Basis Set:
  Charge       = 0
  Multiplicity = 1
  Basis Set: 6-31G*
  Basis Set:

    Orbital Energies (a.u.)
    -----------------------

    Doubly Occupied:

       1A    -20.612850     2A    -20.547972     3A    -11.380989
       4A    -11.253510     5A    -11.231714     6A    -11.222632
       7A     -1.468588     8A     -1.370396     9A     -1.088495
      10A     -0.978984    11A     -0.853287    12A     -0.819057
      13A     -0.720762    14A     -0.672712    15A     -0.658257
      16A     -0.618370    17A     -0.591908    18A     -0.583178
      19A     -0.553623    20A     -0.509142    21A     -0.496435
      22A     -0.489318    23A     -0.475441    24A     -0.440457

  @DF-RHF Final Energy:  -305.86950711508865

   => Energetics <=

    Nuclear Repulsion Energy =            239.9004831169418708
    One-Electron Energy =                -892.2638281410263517
    Two-Electron Energy =                 346.4938379089959426
    DFT Exchange-Correlation Energy =       0.0000000000000000
    Empirical Dispersion Energy =           0.0000000000000000
    PCM Polarization Energy =               0.0000000000000000
    EFP Energy =                            0.0000000000000000
    Total Energy =                       -305.8695071150885951
    Molecular point group: c1
  Basis Set: 6-31G*
  Basis Set:

  -Total Gradient:
     Atom            X                  Y                   Z
    ------   -----------------  -----------------  -----------------
       1        0.000281904812     0.000315947285    -0.002437544688
       2       -0.000350688925    -0.000402146541     0.002125929624
       3        0.000085785633     0.000080487659     0.002462922983
       4        0.000002346828     0.000013291587    -0.000011905240
       5        0.000003054391     0.000005444017    -0.002141008739
       6        0.000011613515    -0.000007574634     0.000001883556
       7       -0.000007470679    -0.000000907952     0.000006403509
       8       -0.000002203545     0.000000722000    -0.000003938007
       9       -0.000019877324     0.000003870304    -0.000001853382
      10        0.000000402266    -0.000002240777     0.000003538122
      11        0.000002399612    -0.000005137883    -0.000004720758
      12        0.000000370853    -0.000000325372     0.000001666911
      13       -0.000007795167    -0.000002592556    -0.000000537200
      14        0.000000157726     0.000001162865    -0.000000836690

  **** Optimization is complete! (in 6 steps) ****
    Final optimized geometry and variables:
    Molecular point group: c1

    Geometry (in Angstrom), charge = 0, multiplicity = 1:

    H            1.780965189140    -1.709984572419    -0.145494855082
    O            2.077130452714    -0.822086062236     0.004060446466
    C            1.062958017571     0.051653804548     0.000765293755
    C           -0.318897979120    -0.570828570583     0.001197151334
    O            1.277591392406     1.213346177149    -0.003294349277
    C           -1.446999077001     0.456695457604     0.003237033500
    H           -0.396900434978    -1.219279151705    -0.870756355626
    H           -0.390606488833    -1.222311328403     0.870346884940
    C           -2.825380056513    -0.201942516841     0.004238154543
    H           -1.341624486971     1.099629108304    -0.863271849895
    H           -1.339393758469     1.097261327868     0.871197339767
    H           -2.967899703060    -0.825761636092    -0.873877466946
    H           -3.609900003953     0.547222894788     0.006191587456
    H           -2.965419450262    -0.827933222752     0.881133916150

  Mulliken Charges: (a.u.)
   Center  Symbol    Alpha    Beta     Spin     Total
       1     H     0.26870  0.26870  0.00000  0.46261
       2     O     4.35229  4.35229  0.00000 -0.70458
       3     C     2.60642  2.60642  0.00000  0.78715
       4     C     3.23639  3.23639  0.00000 -0.47278
       5     O     4.26327  4.26327  0.00000 -0.52653
       6     C     3.15016  3.15016  0.00000 -0.30031
       7     H     0.40722  0.40722  0.00000  0.18555
       8     H     0.40300  0.40300  0.00000  0.19400
       9     C     3.24384  3.24384  0.00000 -0.48767
      10     H     0.40711  0.40711  0.00000  0.18578
      11     H     0.40674  0.40674  0.00000  0.18653
      12     H     0.42138  0.42138  0.00000  0.15724
      13     H     0.41249  0.41249  0.00000  0.17502
      14     H     0.42100  0.42100  0.00000  0.15800

   Total alpha = 24.00000, Total beta = 24.00000, Total charge =  0.00000
