  ==> Input File <==

--------------------------------------------------------------------------
set {
	reference rhf
	basis 6-31G*
}

set_num_threads( 4 )
memory 2 gb

molecule MOL {
0 1

H	 -2.300070	 -0.379612	 2.435207
C	 -2.138572	 -1.418169	 2.153323
O	 -0.952409	 -1.574278	 1.443404
H	 -2.062756	 -2.016680	 3.050641
H	 -2.998298	 -1.756794	 1.576580
C	 -0.904937	 -0.860834	 0.248418
C	 0.462231	 -1.019981	 -0.374261
H	 -1.660110	 -1.233587	 -0.444738
H	 -1.099804	 0.195786	 0.420423
O	 1.392611	 -0.295398	 0.366430
H	 0.724460	 -2.075752	 -0.398583
H	 0.432264	 -0.657138	 -1.402434
C	 2.706965	 -0.449871	 -0.062409
H	 2.756559	 -0.644779	 -1.131878
H	 3.305899	 0.433456	 0.155466
H	 3.125548	 -1.294566	 0.467107

	symmetry c1
}
set optking {
	frozen_dihedral = ("
		7 10 13 14
	")
}

ee = optimize('scf')
oeprop('DIPOLE', 'QUADRUPOLE', 'MULLIKEN_CHARGES')
f=open( 'psi4out.xyz', 'w' )
f.write( "16  " )
f.write( str(ee) + "\n" )
f.write( MOL.save_string_xyz() )
f.close()
--------------------------------------------------------------------------

    Molecular point group: c1
  Charge       = 0
  Multiplicity = 1
  Basis Set: 6-31G*
  Basis Set:
  @DF-RHF Final Energy:  -306.97482860336686
    Total Energy =                       -306.9748286033667455
    Molecular point group: c1
  Basis Set: 6-31G*
  Basis Set:
  Basis Set: 6-31G*
  Basis Set:
  @DF-RHF Final Energy:  -306.97554018474563
    Total Energy =                       -306.9755401847457961
  Basis Set: 6-31G*
  Basis Set:
  Basis Set: 6-31G*
  Basis Set:
  @DF-RHF Final Energy:  -306.97571524834291
    Total Energy =                       -306.9757152483429081
  Basis Set: 6-31G*
  Basis Set:
  Charge       = 0
  Multiplicity = 1
  Basis Set: 6-31G*
  Basis Set:

    Orbital Energies (a.u.)
    -----------------------

    Doubly Occupied:

       1A    -20.553358     2A    -20.551432     3A    -11.269150
       4A    -11.268262     5A    -11.263364     6A    -11.263257
       7A     -1.386941     8A     -1.369060     9A     -1.030584
      10A     -0.935992    11A     -0.892015    12A     -0.823890
      13A     -0.683200    14A     -0.679664    15A     -0.656723
      16A     -0.633798    17A     -0.629334    18A     -0.596616
      19A     -0.551469    20A     -0.537514    21A     -0.508357
      22A     -0.477632    23A     -0.462307    24A     -0.417989
      25A     -0.408564

  @DF-RHF Final Energy:  -306.97571644562549

   => Energetics <=

    Nuclear Repulsion Energy =            258.6803388965022350
    One-Electron Energy =                -931.6111672196367408
    Two-Electron Energy =                 365.9551118775087275
    DFT Exchange-Correlation Energy =       0.0000000000000000
    Empirical Dispersion Energy =           0.0000000000000000
    PCM Polarization Energy =               0.0000000000000000
    EFP Energy =                            0.0000000000000000
    Total Energy =                       -306.9757164456257783
    Molecular point group: c1
  Basis Set: 6-31G*
  Basis Set:

  -Total Gradient:
     Atom            X                  Y                   Z
    ------   -----------------  -----------------  -----------------
       1        0.000001454725     0.000000135392    -0.000001910668
       2        0.000001728068    -0.000007914566     0.000010690614
       3       -0.000018586792    -0.000006074284     0.000015472907
       4       -0.000004150715     0.000000302260     0.000002150942
       5        0.000000439757     0.000000266454    -0.000001136425
       6        0.000069900860     0.000034367087     0.000062039950
       7       -0.000249200943     0.001933015318    -0.001685175933
       8        0.000032217403    -0.000003260398    -0.000014156508
       9       -0.000008725252     0.000006217304    -0.000004109219
      10        0.000418760479    -0.003626033948     0.002360182356
      11        0.000024061011     0.000033977382     0.000035261935
      12        0.000003294711    -0.000008849919    -0.000013861207
      13        0.000093040959     0.004681644257    -0.001319304110
      14       -0.000248971951    -0.003048565343     0.000517402318
      15       -0.000092714039     0.000021277626     0.000014169622
      16       -0.000022548282    -0.000010504617     0.000022283425

  **** Optimization is complete! (in 4 steps) ****
    Final optimized geometry and variables:
    Molecular point group: c1

    Geometry (in Angstrom), charge = 0, multiplicity = 1:

    H           -2.387959025279     0.566488452601     1.805946497528
    C           -2.236285107465    -0.472459374205     1.520075691937
    O           -1.053672349538    -0.636527599260     0.805987245191
    H           -2.163246921637    -1.074696463380     2.415122024650
    H           -3.100369975497    -0.801488430236     0.944385150010
    C           -1.003515467399     0.080405818297    -0.386869998543
    C            0.360370284093    -0.087300074772    -1.014186830744
    H           -1.763636075702    -0.283852631536    -1.079200034423
    H           -1.189109766049     1.137990125262    -0.210826269245
    O            1.296215208588     0.631262662075    -0.273472161286
    H            0.611875641240    -1.145503791950    -1.041567441716
    H            0.330794793903     0.279077550733    -2.040466710907
    C            2.617605251188     0.484642287336    -0.693735262855
    H            2.682481643063     0.295203576011    -1.762685958913
    H            3.152289776394     1.394929204477    -0.457509687947
    H            3.095054618839    -0.347560346960    -0.181548668332

  Mulliken Charges: (a.u.)
   Center  Symbol    Alpha    Beta     Spin     Total
       1     H     0.42807  0.42807  0.00000  0.14386
       2     C     3.07946  3.07946  0.00000 -0.15892
       3     O     4.30090  4.30090  0.00000 -0.60179
       4     H     0.41133  0.41133  0.00000  0.17734
       5     H     0.43193  0.43193  0.00000  0.13614
       6     C     2.99338  2.99338  0.00000  0.01323
       7     C     2.99371  2.99371  0.00000  0.01258
       8     H     0.43242  0.43242  0.00000  0.13516
       9     H     0.42278  0.42278  0.00000  0.15445
      10     O     4.30336  4.30336  0.00000 -0.60671
      11     H     0.42287  0.42287  0.00000  0.15427
      12     H     0.43168  0.43168  0.00000  0.13663
      13     C     3.07739  3.07739  0.00000 -0.15479
      14     H     0.43214  0.43214  0.00000  0.13572
      15     H     0.41449  0.41449  0.00000  0.17101
      16     H     0.42409  0.42409  0.00000  0.15183

   Total alpha = 25.00000, Total beta = 25.00000, Total charge = -0.00000
