  ==> Input File <==

--------------------------------------------------------------------------
set {
	reference rhf
	basis 6-31G*
}

set_num_threads( 1 )
memory 2 gb

molecule MOL {
0 1

H	 3.950492	 4.044692	 -1.648489
C	 3.041285	 3.855725	 -2.210768
C	 2.192655	 2.775200	 -1.541836
H	 2.495187	 4.791782	 -2.280872
H	 3.329244	 3.563888	 -3.217103
C	 0.904840	 2.478989	 -2.313591
H	 1.945725	 3.087377	 -0.532295
H	 2.777978	 1.861164	 -1.454505
C	 0.043011	 1.388168	 -1.677489
H	 0.316928	 3.385759	 -2.401748
H	 1.159875	 2.167283	 -3.323956
C	 -0.639711	 1.804081	 -0.382827
H	 -0.749029	 1.097516	 -2.365940
H	 0.625004	 0.486219	 -1.501567
C	 -1.181045	 0.701995	 0.511084
O	 -0.765366	 2.953280	 -0.082894
C	 -2.285934	 -0.139295	 -0.145128
H	 -1.556299	 1.178084	 1.408992
H	 -0.355995	 0.052473	 0.797611
C	 -3.651768	 0.085446	 0.506485
H	 -2.346596	 0.110469	 -1.202272
H	 -2.034737	 -1.195320	 -0.088721
C	 -4.759797	 -0.746382	 -0.137905
H	 -3.908762	 1.140117	 0.445781
H	 -3.588286	 -0.154158	 1.565709
H	 -4.868882	 -0.505166	 -1.191300
H	 -4.548009	 -1.809175	 -0.062213
H	 -5.715422	 -0.564821	 0.343442

	symmetry c1
}
set optking {
	frozen_dihedral = ("
		10 6 3 2,
		16 12 15 17
	")
}

ee = energy('scf')
oeprop('DIPOLE', 'QUADRUPOLE', 'MULLIKEN_CHARGES')
f=open( 'psi4out.xyz', 'w' )
f.write( "28  " )
f.write( str(ee) + "\n" )
f.write( MOL.save_string_xyz() )
f.close()
--------------------------------------------------------------------------

    Molecular point group: c1

    Geometry (in Angstrom), charge = 0, multiplicity = 1:

       Center              X                  Y                   Z               Mass
    ------------   -----------------  -----------------  -----------------  -----------------
           H          4.664270134914     2.520791979770    -0.896603784795     1.007825032070
           C          3.755063134914     2.331824979770    -1.458882784795    12.000000000000
           C          2.906433134914     1.251299979770    -0.789950784795    12.000000000000
           H          3.208965134914     3.267881979770    -1.528986784795     1.007825032070
           H          4.043022134914     2.039987979770    -2.465217784795     1.007825032070
           C          1.618618134914     0.955088979770    -1.561705784795    12.000000000000
           H          2.659503134914     1.563476979770     0.219590215205     1.007825032070
           H          3.491756134914     0.337263979770    -0.702619784795     1.007825032070
           C          0.756789134914    -0.135732020230    -0.925603784795    12.000000000000
           H          1.030706134914     1.861858979770    -1.649862784795     1.007825032070
           H          1.873653134914     0.643382979770    -2.572070784795     1.007825032070
           C          0.074067134914     0.280180979770     0.369058215205    12.000000000000
           H         -0.035250865086    -0.426384020230    -1.614054784795     1.007825032070
           H          1.338782134914    -1.037681020230    -0.749681784795     1.007825032070
           C         -0.467266865086    -0.821905020230     1.262969215205    12.000000000000
           O         -0.051587865086     1.429379979770     0.668991215205    15.994914619560
           C         -1.572155865086    -1.663195020230     0.606757215205    12.000000000000
           H         -0.842520865086    -0.345816020230     2.160877215205     1.007825032070
           H          0.357783134914    -1.471427020230     1.549496215205     1.007825032070
           C         -2.937989865086    -1.438454020230     1.258370215205    12.000000000000
           H         -1.632817865086    -1.413431020230    -0.450386784795     1.007825032070
           H         -1.320958865086    -2.719220020230     0.663164215205     1.007825032070
           C         -4.046018865086    -2.270282020230     0.613980215205    12.000000000000
           H         -3.194983865086    -0.383783020230     1.197666215205     1.007825032070
           H         -2.874507865086    -1.678058020230     2.317594215205     1.007825032070
           H         -4.155103865086    -2.029066020230    -0.439414784795     1.007825032070
           H         -3.834230865086    -3.333075020230     0.689672215205     1.007825032070
           H         -5.001643865086    -2.088721020230     1.095327215205     1.007825032070

  Charge       = 0
  Multiplicity = 1
  Basis Set: 6-31G*
  Basis Set:

    Orbital Energies (a.u.)
    -----------------------

    Doubly Occupied:

       1A    -20.548257     2A    -11.322227     3A    -11.230846
       4A    -11.230147     5A    -11.227180     6A    -11.223454
       7A    -11.216738     8A    -11.214228     9A    -11.212482
      10A    -11.205840    11A     -1.393421    12A     -1.094763
      13A     -1.077232    14A     -1.021630    15A     -0.990256
      16A     -0.906382    17A     -0.873142    18A     -0.809353
      19A     -0.799778    20A     -0.723699    21A     -0.671180
      22A     -0.645304    23A     -0.629748    24A     -0.614992
      25A     -0.609555    26A     -0.586810    27A     -0.584508
      28A     -0.573451    29A     -0.538196    30A     -0.531691
      31A     -0.523005    32A     -0.511413    33A     -0.502029
      34A     -0.481281    35A     -0.479495    36A     -0.471879
      37A     -0.466889    38A     -0.462567    39A     -0.454582
      40A     -0.392980

  @DF-RHF Final Energy:  -426.16330757717083

   => Energetics <=

    Nuclear Repulsion Energy =            534.4451539795807093
    One-Electron Energy =               -1637.1116108021967648
    Two-Electron Energy =                 676.5031492454447744
    DFT Exchange-Correlation Energy =       0.0000000000000000
    Empirical Dispersion Energy =           0.0000000000000000
    PCM Polarization Energy =               0.0000000000000000
    EFP Energy =                            0.0000000000000000
    Total Energy =                       -426.1633075771712811

  Mulliken Charges: (a.u.)
   Center  Symbol    Alpha    Beta     Spin     Total
       1     H     0.41931  0.41931  0.00000  0.16138
       2     C     3.24013  3.24013  0.00000 -0.48026
       3     C     3.15646  3.15646  0.00000 -0.31291
       4     H     0.41831  0.41831  0.00000  0.16337
       5     H     0.42360  0.42360  0.00000  0.15281
       6     C     3.14878  3.14878  0.00000 -0.29757
       7     H     0.41048  0.41048  0.00000  0.17904
       8     H     0.42762  0.42762  0.00000  0.14475
       9     C     3.21127  3.21127  0.00000 -0.42254
      10     H     0.40667  0.40667  0.00000  0.18667
      11     H     0.42191  0.42191  0.00000  0.15617
      12     C     2.73667  2.73667  0.00000  0.52667
      13     H     0.40289  0.40289  0.00000  0.19422
      14     H     0.41284  0.41284  0.00000  0.17433
      15     C     3.20369  3.20369  0.00000 -0.40737
      16     O     4.26555  4.26555  0.00000 -0.53111
      17     C     3.16313  3.16313  0.00000 -0.32626
      18     H     0.39755  0.39755  0.00000  0.20489
      19     H     0.40995  0.40995  0.00000  0.18009
      20     C     3.15417  3.15417  0.00000 -0.30833
      21     H     0.41818  0.41818  0.00000  0.16365
      22     H     0.41597  0.41597  0.00000  0.16807
      23     C     3.24082  3.24082  0.00000 -0.48164
      24     H     0.41510  0.41510  0.00000  0.16980
      25     H     0.41980  0.41980  0.00000  0.16041
      26     H     0.42095  0.42095  0.00000  0.15811
      27     H     0.42150  0.42150  0.00000  0.15701
      28     H     0.41672  0.41672  0.00000  0.16656

   Total alpha = 40.00000, Total beta = 40.00000, Total charge =  0.00000
