                              Psi4 1.0.54 Driver

  ==> Input File <==

--------------------------------------------------------------------------
set {
	reference rhf
	basis cc-pvtz
}

set_num_threads( 4 )
memory 2 gb

molecule MOL {
0 1

H	 3.083659	 -1.378387	 0.000000
O	 2.179005	 -1.633391	 0.000000
C	 1.366950	 -0.558201	 0.000000
C	 1.730752	 0.644615	 -0.586141
C	 0.135807	 -0.682803	 0.610560
H	 2.690197	 0.739930	 -1.061336
C	 0.864091	 1.718486	 -0.560525
H	 -0.148091	 -1.610441	 1.064137
C	 -0.726642	 0.398447	 0.631669
H	 1.156333	 2.644130	 -1.017253
C	 -0.369316	 1.602081	 0.048226
C	 -2.055690	 0.277284	 1.286138
H	 -1.045345	 2.435394	 0.069721
O	 -2.460909	 -0.701150	 1.813285
H	 -2.666627	 1.184579	 1.251902

	symmetry c1
}
set optking {
	frozen_dihedral = ("
		4 3 2 1
	")
}

ee,wfn = optimize('scf', return_wfn=True)
oeprop( wfn, 'DIPOLE', 'QUADRUPOLE', 'MULLIKEN_CHARGES')
f=open( 'psi4out.xyz', 'w' )
f.write( "15  " )
f.write( str(ee) + "\n" )
f.write( MOL.save_string_xyz() )
f.close()
--------------------------------------------------------------------------

    Molecular point group: c1
  Charge       = 0
  Multiplicity = 1
  Basis Set: CC-PVTZ
  Basis Set:
  @DF-RHF Final Energy:  -418.43777790634022
    Total Energy =                       -418.4377779063405569
    Molecular point group: c1
  Basis Set: CC-PVTZ
  Basis Set:
  Basis Set: CC-PVTZ
  Basis Set:
  @DF-RHF Final Energy:  -418.43784549136768
    Total Energy =                       -418.4378454913673977
  Basis Set: CC-PVTZ
  Basis Set:
  Basis Set: CC-PVTZ
  Basis Set:
  @DF-RHF Final Energy:  -418.43791419031385
    Total Energy =                       -418.4379141903141317
  Basis Set: CC-PVTZ
  Basis Set:
  Basis Set: CC-PVTZ
  Basis Set:
  @DF-RHF Final Energy:  -418.43792485920960
    Total Energy =                       -418.4379248592096019
  Basis Set: CC-PVTZ
  Basis Set:
  Basis Set: CC-PVTZ
  Basis Set:
  @DF-RHF Final Energy:  -418.43793192111076
    Total Energy =                       -418.4379319211111579
  Basis Set: CC-PVTZ
  Basis Set:
  Charge       = 0
  Multiplicity = 1
  Basis Set: CC-PVTZ
  Basis Set:

    Orbital Energies (a.u.)
    -----------------------

    Doubly Occupied:

       1A    -20.592366     2A    -20.554408     3A    -11.327642
       4A    -11.309698     5A    -11.250810     6A    -11.250577
       7A    -11.247884     8A    -11.244858     9A    -11.238092
      10A     -1.423140    11A     -1.410193    12A     -1.174531
      13A     -1.052195    14A     -1.030889    15A     -0.901959
      16A     -0.849834    17A     -0.814916    18A     -0.740934
      19A     -0.705307    20A     -0.689838    21A     -0.645133
      22A     -0.641276    23A     -0.618596    24A     -0.610859
      25A     -0.568790    26A     -0.555780    27A     -0.545029
      28A     -0.514501    29A     -0.492707    30A     -0.426863
      31A     -0.358028    32A     -0.334263

  @DF-RHF Final Energy:  -418.43793309939895

   => Energetics <=

    Nuclear Repulsion Energy =            403.9574818362317501
    One-Electron Energy =               -1370.5470369892423150
    Two-Electron Energy =                 548.1516220536117316
    DFT Exchange-Correlation Energy =       0.0000000000000000
    Empirical Dispersion Energy =           0.0000000000000000
    PCM Polarization Energy =               0.0000000000000000
    EFP Energy =                            0.0000000000000000
    Total Energy =                       -418.4379330993988333
    Molecular point group: c1
  Basis Set: CC-PVTZ
  Basis Set:

  -Total Gradient:
     Atom            X                  Y                   Z
    ------   -----------------  -----------------  -----------------
       1        0.000057616409    -0.000017064862     0.002007630795
       2       -0.000388471884    -0.000248566010    -0.003195316256
       3        0.001008247355     0.000755267216     0.002424871291
       4       -0.000611227646    -0.000519719188    -0.001248690382
       5       -0.000049067473     0.000025290126     0.000021267495
       6        0.000006453305     0.000006842920     0.000009984785
       7       -0.000101781693     0.000006008724    -0.000045865054
       8        0.000004562250    -0.000002375089    -0.000006473924
       9       -0.000003472055    -0.000065279066     0.000001113782
      10        0.000005021893    -0.000002331003     0.000006061741
      11        0.000083164641     0.000058815985     0.000036800776
      12        0.000002395861     0.000007227892    -0.000025858504
      13       -0.000007470128    -0.000003471497    -0.000000883022
      14       -0.000001066418    -0.000002847512     0.000009841552
      15       -0.000004904414     0.000002201362     0.000005514922

  **** Optimization is complete! (in 6 steps) ****
    Final optimized geometry and variables:
    Molecular point group: c1

    Geometry (in Angstrom), charge = 0, multiplicity = 1:

    H            3.005788139756    -1.445268366695    -0.416972315114
    O            2.100388065641    -1.697298325468    -0.388834013307
    C            1.291527767550    -0.614717202564    -0.361227098441
    C            1.651695418278     0.584105013707    -0.959894713475
    C            0.058309087479    -0.741619472621     0.239979176320
    H            2.607047992369     0.671080249037    -1.444015172263
    C            0.785659085219     1.657235823988    -0.937869016141
    H           -0.224989532417    -1.668144780929     0.696361745496
    C           -0.811029760507     0.336700905238     0.248457813266
    H            1.075367429991     2.581464194387    -1.399017279628
    C           -0.451744910807     1.538465560910    -0.334460662830
    C           -2.143659757206     0.214059086539     0.894540449766
    H           -1.130144070801     2.370213768071    -0.320166573263
    O           -2.548318382898    -0.762708924964     1.425098385434
    H           -2.757698304691     1.119111498946     0.850449168265

  Mulliken Charges: (a.u.)
   Center  Symbol    Alpha    Beta     Spin     Total
       1     H     0.38600  0.38600  0.00000  0.22800
       2     O     4.17476  4.17476  0.00000 -0.34951
       3     C     2.84974  2.84974  0.00000  0.30052
       4     C     3.12067  3.12067  0.00000 -0.24134
       5     C     3.11854  3.11854  0.00000 -0.23708
       6     H     0.42672  0.42672  0.00000  0.14657
       7     C     3.06405  3.06405  0.00000 -0.12810
       8     H     0.40387  0.40387  0.00000  0.19226
       9     C     2.97194  2.97194  0.00000  0.05612
      10     H     0.41932  0.41932  0.00000  0.16136
      11     C     3.10671  3.10671  0.00000 -0.21341
      12     C     2.90904  2.90904  0.00000  0.18191
      13     H     0.42302  0.42302  0.00000  0.15396
      14     O     4.16909  4.16909  0.00000 -0.33818
      15     H     0.45654  0.45654  0.00000  0.08691

   Total alpha = 32.00000, Total beta = 32.00000, Total charge = -0.00000

*** Psi4 exiting successfully. Buy a developer a beer!
