                              Psi4 1.0.54 Driver

  ==> Input File <==

--------------------------------------------------------------------------
set {
	reference rhf
	basis cc-pvtz
}

set_num_threads( 4 )
memory 2 gb

molecule MOL {
0 1

O	 1.049237	 4.201884	 -1.031816
C	 0.052876	 4.532247	 -1.587005
C	 -1.205130	 3.687986	 -1.565152
C	 -0.025650	 5.829809	 -2.359269
C	 -1.080416	 2.390726	 -0.778774
H	 -2.006713	 4.305272	 -1.165788
H	 -1.482989	 3.487735	 -2.597479
C	 -2.370106	 1.574776	 -0.784776
H	 -0.793926	 2.619563	 0.241359
H	 -0.269613	 1.801368	 -1.191559
C	 -2.258482	 0.271340	 0.000669
H	 -3.179322	 2.172956	 -0.371710
H	 -2.652390	 1.350682	 -1.811109
C	 -3.544441	 -0.550271	 -0.000253
H	 -1.976582	 0.494325	 1.026789
H	 -1.450359	 -0.327646	 -0.411982
C	 -4.804551	 0.308747	 0.000556
H	 -3.553737	 -1.201524	 -0.870151
H	 -3.553831	 -1.203282	 0.868313
H	 -4.842050	 0.949078	 -0.874436
H	 -5.698404	 -0.304480	 -0.000254
H	 -4.842277	 0.947103	 0.876982
H	 -0.808629	 6.460376	 -1.952603
H	 0.920707	 6.345513	 -2.305894
H	 -0.276320	 5.633268	 -3.395888

	symmetry c1
}
set optking {
	frozen_dihedral = ("
		15 11 14 18
	")
}

ee,wfn = optimize('scf', return_wfn=True)
oeprop( wfn, 'DIPOLE', 'QUADRUPOLE', 'MULLIKEN_CHARGES')
f=open( 'psi4out.xyz', 'w' )
f.write( "25  " )
f.write( str(ee) + "\n" )
f.write( MOL.save_string_xyz() )
f.close()
--------------------------------------------------------------------------

    Molecular point group: c1
  Charge       = 0
  Multiplicity = 1
  Basis Set: CC-PVTZ
  Basis Set:
  @DF-RHF Final Energy:  -387.26731267078600
    Total Energy =                       -387.2673126707862821
    Molecular point group: c1
  Basis Set: CC-PVTZ
  Basis Set:
  Basis Set: CC-PVTZ
  Basis Set:
  @DF-RHF Final Energy:  -387.22964291743011
    Total Energy =                       -387.2296429174298282
  Basis Set: CC-PVTZ
  Basis Set:
  Basis Set: CC-PVTZ
  Basis Set:
  @DF-RHF Final Energy:  -387.26856472816820
    Total Energy =                       -387.2685647281674619
  Basis Set: CC-PVTZ
  Basis Set:
  Basis Set: CC-PVTZ
  Basis Set:
  @DF-RHF Final Energy:  -387.26995587829782
    Total Energy =                       -387.2699558782975373
  Basis Set: CC-PVTZ
  Basis Set:
  Basis Set: CC-PVTZ
  Basis Set:
  @DF-RHF Final Energy:  -387.27004005615299
    Total Energy =                       -387.2700400561539027
  Basis Set: CC-PVTZ
  Basis Set:
  Basis Set: CC-PVTZ
  Basis Set:
  @DF-RHF Final Energy:  -387.26989233176232
    Total Energy =                       -387.2698923317620938
  Basis Set: CC-PVTZ
  Basis Set:
  Basis Set: CC-PVTZ
  Basis Set:
  @DF-RHF Final Energy:  -387.27007252275280
    Total Energy =                       -387.2700725227525709
  Basis Set: CC-PVTZ
  Basis Set:
  Charge       = 0
  Multiplicity = 1
  Basis Set: CC-PVTZ
  Basis Set:

    Orbital Energies (a.u.)
    -----------------------

    Doubly Occupied:

       1A    -20.538830     2A    -11.320445     3A    -11.230048
       4A    -11.226531     5A    -11.215032     6A    -11.214415
       7A    -11.213918     8A    -11.211765     9A    -11.207443
      10A     -1.398903    11A     -1.094638    12A     -1.056127
      13A     -1.014450    14A     -0.968016    15A     -0.898544
      16A     -0.826905    17A     -0.775107    18A     -0.730405
      19A     -0.660370    20A     -0.654445    21A     -0.628783
      22A     -0.625181    23A     -0.603767    24A     -0.593546
      25A     -0.563176    26A     -0.557736    27A     -0.548395
      28A     -0.522152    29A     -0.512944    30A     -0.495909
      31A     -0.493249    32A     -0.477770    33A     -0.458536
      34A     -0.454270    35A     -0.452626    36A     -0.401465

  @DF-RHF Final Energy:  -387.27007310578927

   => Energetics <=

    Nuclear Repulsion Energy =            443.8127059787877897
    One-Electron Energy =               -1404.4738741040271179
    Two-Electron Energy =                 573.3910950194504039
    DFT Exchange-Correlation Energy =       0.0000000000000000
    Empirical Dispersion Energy =           0.0000000000000000
    PCM Polarization Energy =               0.0000000000000000
    EFP Energy =                            0.0000000000000000
    Total Energy =                       -387.2700731057889243
    Molecular point group: c1
  Basis Set: CC-PVTZ
  Basis Set:

  -Total Gradient:
     Atom            X                  Y                   Z
    ------   -----------------  -----------------  -----------------
       1       -0.000114059791     0.000031350536     0.000025452632
       2        0.000190531620    -0.000163484308    -0.000114016018
       3       -0.000065610990     0.000074077031     0.000063010927
       4       -0.000081978562     0.000046651569     0.000031985470
       5        0.000047734500    -0.000014280352    -0.000003932332
       6        0.000009349619    -0.000016150152    -0.000013574773
       7        0.000015759958     0.000015660537     0.000040674791
       8        0.000031978775     0.000035156996    -0.000096796202
       9        0.000003778041    -0.000012937613    -0.000017362508
      10       -0.000027987513     0.000025312744    -0.000005695859
      11       -0.003952450950     0.004018852414    -0.000837637199
      12        0.000046750805    -0.000025089505    -0.000011557298
      13        0.000022165842     0.000033391062     0.000004241923
      14       -0.002282536218     0.002688044654    -0.004509209923
      15        0.003697116111    -0.003822574351     0.001484428878
      16       -0.000067118180     0.000018278706    -0.000012199126
      17       -0.000000333447    -0.000008647806     0.000012358657
      18        0.002511346325    -0.002866583143     0.003941176789
      19       -0.000028810829     0.000024181976    -0.000034722827
      20        0.000009000850    -0.000049993442     0.000058413574
      21        0.000030783860     0.000013051196     0.000009714874
      22        0.000008337817    -0.000024017422    -0.000025232464
      23        0.000017509906     0.000004799965    -0.000024305586
      24       -0.000021863605    -0.000038803752     0.000013728856
      25        0.000000606055     0.000013752461     0.000021054743

  **** Optimization is complete! (in 8 steps) ****
    Final optimized geometry and variables:
    Molecular point group: c1

    Geometry (in Angstrom), charge = 0, multiplicity = 1:

    O            2.411066701590     2.056021305319     0.065627193840
    C            1.524667395074     2.170868771864    -0.716032498117
    C            0.377486591484     1.183901273905    -0.791398400333
    C            1.481491478243     3.322380048260    -1.695123319750
    C            0.460467569279     0.043131375658     0.212783690888
    H           -0.545514926645     1.744670863571    -0.662920119406
    H            0.342242892934     0.800260346635    -1.808541153921
    C           -0.714381939951    -0.924816394834     0.099015164636
    H            0.502317114578     0.454213147105     1.215067188960
    H            1.393415194066    -0.489607411299     0.069466879526
    C           -0.638616071699    -2.057736276439     1.117957778204
    H           -1.642472112326    -0.375371547752     0.223009969719
    H           -0.740606741400    -1.344833444185    -0.904566014852
    C           -1.712767275220    -3.149856957670     1.000723500759
    H           -0.636507828506    -1.658741460864     2.128862142095
    H            0.329868096129    -2.540990179510     1.017207138223
    C           -3.132288283629    -2.669778816396     0.717746149252
    H           -1.404093692144    -3.882454756365     0.260626024105
    H           -1.720107376709    -3.699755430372     1.937631863903
    H           -3.218794329042    -2.206087646192    -0.257296782745
    H           -3.826359403045    -3.501781214069     0.746281588092
    H           -3.456900314758    -1.945979698466     1.458535588943
    H            0.574705382859     3.899934265030    -1.553205684011
    H            2.342444522210     3.956941893107    -1.552071236227
    H            1.468951998309     2.947941834810    -2.712765174753

  Mulliken Charges: (a.u.)
   Center  Symbol    Alpha    Beta     Spin     Total
       1     O     4.17090  4.17090  0.00000 -0.34181
       2     C     2.86225  2.86225  0.00000  0.27550
       3     C     3.11320  3.11320  0.00000 -0.22640
       4     C     3.15127  3.15127  0.00000 -0.30255
       5     C     3.08328  3.08328  0.00000 -0.16655
       6     H     0.44577  0.44577  0.00000  0.10845
       7     H     0.44570  0.44570  0.00000  0.10859
       8     C     3.09348  3.09348  0.00000 -0.18696
       9     H     0.44608  0.44608  0.00000  0.10784
      10     H     0.44525  0.44525  0.00000  0.10951
      11     C     3.09682  3.09682  0.00000 -0.19365
      12     H     0.45250  0.45250  0.00000  0.09500
      13     H     0.45476  0.45476  0.00000  0.09049
      14     C     3.08944  3.08944  0.00000 -0.17888
      15     H     0.45074  0.45074  0.00000  0.09852
      16     H     0.45097  0.45097  0.00000  0.09806
      17     C     3.15668  3.15668  0.00000 -0.31335
      18     H     0.45261  0.45261  0.00000  0.09477
      19     H     0.45070  0.45070  0.00000  0.09860
      20     H     0.45305  0.45305  0.00000  0.09390
      21     H     0.44490  0.44490  0.00000  0.11020
      22     H     0.45351  0.45351  0.00000  0.09297
      23     H     0.45036  0.45036  0.00000  0.09928
      24     H     0.43537  0.43537  0.00000  0.12926
      25     H     0.45041  0.45041  0.00000  0.09919

   Total alpha = 36.00000, Total beta = 36.00000, Total charge = -0.00000

*** Psi4 exiting successfully. Buy a developer a beer!
