                              Psi4 1.0.54 Driver

  ==> Input File <==

--------------------------------------------------------------------------
set {
	reference rhf
	basis cc-pvtz
}

set_num_threads( 4 )
memory 2 gb

molecule MOL {
0 1

H	 -2.149496	 -2.244167	 0.000000
O	 -2.454378	 -1.354528	 0.000000
C	 -1.430628	 -0.482077	 0.000000
C	 -0.193548	 -0.947895	 -0.421091
C	 -1.573480	 0.830528	 0.397343
H	 -0.103127	 -1.971553	 -0.726012
C	 0.889563	 -0.099217	 -0.441691
H	 -2.524692	 1.204071	 0.725385
C	 -0.470790	 1.673730	 0.370604
H	 1.842451	 -0.467276	 -0.768609
C	 0.764887	 1.221371	 -0.046427
C	 -0.629278	 3.045565	 0.788047
H	 1.606095	 1.884030	 -0.061449
N	 -0.756746	 4.117687	 1.115140

	symmetry c1
}
set optking {
	frozen_dihedral = ("
		5 3 2 1
	")
}

ee,wfn = optimize('scf', return_wfn=True)
oeprop( wfn, 'DIPOLE', 'QUADRUPOLE', 'MULLIKEN_CHARGES')
f=open( 'psi4out.xyz', 'w' )
f.write( "14  " )
f.write( str(ee) + "\n" )
f.write( MOL.save_string_xyz() )
f.close()
--------------------------------------------------------------------------

    Molecular point group: c1
  Charge       = 0
  Multiplicity = 1
  Basis Set: CC-PVTZ
  Basis Set:
  @DF-RHF Final Energy:  -397.42994827761339
    Total Energy =                       -397.4299482776129935
    Molecular point group: c1
  Basis Set: CC-PVTZ
  Basis Set:
  Basis Set: CC-PVTZ
  Basis Set:
  @DF-RHF Final Energy:  -397.43192237798422
    Total Energy =                       -397.4319223779840513
  Basis Set: CC-PVTZ
  Basis Set:
  Basis Set: CC-PVTZ
  Basis Set:
  @DF-RHF Final Energy:  -397.43209457293460
    Total Energy =                       -397.4320945729342611
  Basis Set: CC-PVTZ
  Basis Set:
  Basis Set: CC-PVTZ
  Basis Set:
  @DF-RHF Final Energy:  -397.43212244795160
    Total Energy =                       -397.4321224479515422
  Basis Set: CC-PVTZ
  Basis Set:
  Basis Set: CC-PVTZ
  Basis Set:
  @DF-RHF Final Energy:  -397.43212739241346
    Total Energy =                       -397.4321273924135767
  Basis Set: CC-PVTZ
  Basis Set:
  Charge       = 0
  Multiplicity = 1
  Basis Set: CC-PVTZ
  Basis Set:

    Orbital Energies (a.u.)
    -----------------------

    Doubly Occupied:

       1A    -20.605372     2A    -15.563630     3A    -11.324084
       4A    -11.291528     5A    -11.266920     6A    -11.261977
       7A    -11.256918     8A    -11.256856     9A    -11.255749
      10A     -1.437474    11A     -1.236586    12A     -1.186759
      13A     -1.066343    14A     -1.043464    15A     -0.902191
      16A     -0.861767    17A     -0.798399    18A     -0.717796
      19A     -0.695554    20A     -0.676932    21A     -0.633381
      22A     -0.623208    23A     -0.592595    24A     -0.567523
      25A     -0.551033    26A     -0.544745    27A     -0.526655
      28A     -0.480077    29A     -0.477584    30A     -0.367368
      31A     -0.343334

  @DF-RHF Final Energy:  -397.43212770129594

   => Energetics <=

    Nuclear Repulsion Energy =            380.4480404858463771
    One-Electron Energy =               -1292.9327341295231690
    Two-Electron Energy =                 515.0525659423808520
    DFT Exchange-Correlation Energy =       0.0000000000000000
    Empirical Dispersion Energy =           0.0000000000000000
    PCM Polarization Energy =               0.0000000000000000
    EFP Energy =                            0.0000000000000000
    Total Energy =                       -397.4321277012959399
    Molecular point group: c1
  Basis Set: CC-PVTZ
  Basis Set:

  -Total Gradient:
     Atom            X                  Y                   Z
    ------   -----------------  -----------------  -----------------
       1        0.000033942432     0.000027939091     0.001774863136
       2        0.000099948006    -0.000174802126    -0.001689874793
       3       -0.000435751744     0.000432234004    -0.001239255281
       4        0.000010354171    -0.000008495275    -0.000026899750
       5        0.000325582291    -0.000278117986     0.001204443437
       6       -0.000000686736    -0.000003588705     0.000001633047
       7       -0.000002536520    -0.000008175262    -0.000020519593
       8       -0.000003377459    -0.000006222096     0.000001660191
       9       -0.000020652443     0.000014392145    -0.000062333727
      10        0.000000529492     0.000007485031     0.000000574683
      11       -0.000012508644    -0.000000860564     0.000052207385
      12        0.000016470168     0.000006023002    -0.000009519354
      13        0.000003709432    -0.000002869919    -0.000001148463
      14       -0.000015022446    -0.000004941345     0.000014169081

  **** Optimization is complete! (in 6 steps) ****
    Final optimized geometry and variables:
    Molecular point group: c1

    Geometry (in Angstrom), charge = 0, multiplicity = 1:

    H           -1.558185423438    -3.022886073266    -0.159809061902
    O           -1.798038260119    -2.113653983968    -0.167941545988
    C           -0.710110539045    -1.319782059446    -0.197317176703
    C            0.528584265347    -1.770337986856    -0.616507315806
    C           -0.867294740171    -0.007318993935     0.207287564827
    H            0.647436851144    -2.789655879322    -0.934443184464
    C            1.609051948095    -0.908753386897    -0.632602078602
    H           -1.827833868692     0.333608125864     0.536291988689
    C            0.220983004592     0.844425417070     0.176718531179
    H            2.565613376989    -1.267961728918    -0.958553073004
    C            1.468017281149     0.404525841044    -0.239960891069
    C            0.053996623637     2.215064234369     0.596345780211
    H            2.300898440286     1.077713853960    -0.253504184827
    N           -0.073115814534     3.286948382854     0.924261749643

  Mulliken Charges: (a.u.)
   Center  Symbol    Alpha    Beta     Spin     Total
       1     H     0.38478  0.38478  0.00000  0.23045
       2     O     4.17097  4.17097  0.00000 -0.34194
       3     C     2.84441  2.84441  0.00000  0.31117
       4     C     3.12854  3.12854  0.00000 -0.25709
       5     C     3.12200  3.12200  0.00000 -0.24400
       6     H     0.42725  0.42725  0.00000  0.14549
       7     C     3.05699  3.05699  0.00000 -0.11398
       8     H     0.40918  0.40918  0.00000  0.18164
       9     C     2.92136  2.92136  0.00000  0.15727
      10     H     0.41669  0.41669  0.00000  0.16663
      11     C     3.10497  3.10497  0.00000 -0.20994
      12     C     3.02416  3.02416  0.00000 -0.04832
      13     H     0.41444  0.41444  0.00000  0.17112
      14     N     3.57425  3.57425  0.00000 -0.14850

   Total alpha = 31.00000, Total beta = 31.00000, Total charge =  0.00000

*** Psi4 exiting successfully. Buy a developer a beer!
