  ==> Input File <==

--------------------------------------------------------------------------
set {
	reference rhf
	basis 6-31G*
}

set_num_threads( 1 )
memory 2 gb

molecule MOL {
0 1

O	 0.749854	 1.307668	 -0.000040
C	 0.576249	 0.131685	 -0.000108
C	 -0.766779	 -0.556801	 -0.000461
O	 1.568443	 -0.749345	 -0.000005
C	 -1.945214	 0.412366	 0.000161
H	 -0.796911	 -1.211249	 -0.867467
H	 -0.796854	 -1.212390	 0.865687
C	 -1.666755	 1.653461	 0.846749
H	 -2.828055	 -0.097736	 0.370282
H	 -2.169889	 0.703339	 -1.020344
H	 -1.469386	 1.390130	 1.882198
H	 -2.516005	 2.328759	 0.834537
H	 -0.804659	 2.200677	 0.475507
C	 2.886820	 -0.232538	 0.000322
H	 3.059106	 0.369571	 -0.880203
H	 3.540187	 -1.091012	 0.000050
H	 3.059019	 0.368956	 0.881266

	symmetry c1
}
set optking {
	frozen_dihedral = ("
		1 2 3 6,
		14 4 2 1
	")
}

ee = energy('scf')
oeprop('DIPOLE', 'QUADRUPOLE', 'MULLIKEN_CHARGES')
f=open( 'psi4out.xyz', 'w' )
f.write( "17  " )
f.write( str(ee) + "\n" )
f.write( MOL.save_string_xyz() )
f.close()
--------------------------------------------------------------------------

    Molecular point group: c1

    Geometry (in Angstrom), charge = 0, multiplicity = 1:

       Center              X                  Y                   Z               Mass
    ------------   -----------------  -----------------  -----------------  -----------------
           O          0.511230116267     1.017598996643    -0.124668940845    15.994914619560
           C          0.337625116267    -0.158384003357    -0.124736940845    12.000000000000
           C         -1.005402883733    -0.846870003357    -0.125089940845    12.000000000000
           O          1.329819116267    -1.039414003357    -0.124633940845    15.994914619560
           C         -2.183837883733     0.122296996643    -0.124467940845    12.000000000000
           H         -1.035534883733    -1.501318003357    -0.992095940845     1.007825032070
           H         -1.035477883733    -1.502459003357     0.741058059155     1.007825032070
           C         -1.905378883733     1.363391996643     0.722120059155    12.000000000000
           H         -3.066678883733    -0.387805003357     0.245653059155     1.007825032070
           H         -2.408512883733     0.413269996643    -1.144972940845     1.007825032070
           H         -1.708009883733     1.100060996643     1.757569059155     1.007825032070
           H         -2.754628883733     2.038689996643     0.709908059155     1.007825032070
           H         -1.043282883733     1.910607996643     0.350878059155     1.007825032070
           C          2.648196116267    -0.522607003357    -0.124306940845    12.000000000000
           H          2.820482116267     0.079501996643    -1.004831940845     1.007825032070
           H          3.301563116267    -1.381081003357    -0.124578940845     1.007825032070
           H          2.820395116267     0.078886996643     0.756637059155     1.007825032070

  Charge       = 0
  Multiplicity = 1
  Basis Set: 6-31G*
  Basis Set:

    Orbital Energies (a.u.)
    -----------------------

    Doubly Occupied:

       1A    -20.606649     2A    -20.546787     3A    -11.376794
       4A    -11.282941     5A    -11.236338     6A    -11.219602
       7A    -11.186188     8A     -1.473637     9A     -1.369320
      10A     -1.077924    11A     -0.998363    12A     -0.932534
      13A     -0.825679    14A     -0.772925    15A     -0.699507
      16A     -0.685041    17A     -0.674630    18A     -0.628194
      19A     -0.614429    20A     -0.562249    21A     -0.554707
      22A     -0.530926    23A     -0.518823    24A     -0.507695
      25A     -0.477825    26A     -0.471325    27A     -0.459580
      28A     -0.415059

  @DF-RHF Final Energy:  -344.88814670384733

   => Energetics <=

    Nuclear Repulsion Energy =            323.1066297129966074
    One-Electron Energy =               -1110.5782268137568281
    Two-Electron Energy =                 442.5834503969115303
    DFT Exchange-Correlation Energy =       0.0000000000000000
    Empirical Dispersion Energy =           0.0000000000000000
    PCM Polarization Energy =               0.0000000000000000
    EFP Energy =                            0.0000000000000000
    Total Energy =                       -344.8881467038486335

  Mulliken Charges: (a.u.)
   Center  Symbol    Alpha    Beta     Spin     Total
       1     O     4.28870  4.28870  0.00000 -0.57740
       2     C     2.60175  2.60175  0.00000  0.79649
       3     C     3.21004  3.21004  0.00000 -0.42009
       4     O     4.30689  4.30689  0.00000 -0.61378
       5     C     3.15327  3.15327  0.00000 -0.30653
       6     H     0.39778  0.39778  0.00000  0.20445
       7     H     0.39917  0.39917  0.00000  0.20166
       8     C     3.25846  3.25846  0.00000 -0.51693
       9     H     0.41711  0.41711  0.00000  0.16577
      10     H     0.41704  0.41704  0.00000  0.16592
      11     H     0.42969  0.42969  0.00000  0.14061
      12     H     0.42651  0.42651  0.00000  0.14699
      13     H     0.37522  0.37522  0.00000  0.24957
      14     C     3.09276  3.09276  0.00000 -0.18552
      15     H     0.40887  0.40887  0.00000  0.18226
      16     H     0.40785  0.40785  0.00000  0.18430
      17     H     0.40888  0.40888  0.00000  0.18223

   Total alpha = 28.00000, Total beta = 28.00000, Total charge =  0.00000
