                              Psi4 1.0.54 Driver

  ==> Input File <==

--------------------------------------------------------------------------
set {
	reference rhf
	basis cc-pvtz
}

set_num_threads( 4 )
memory 2 gb

molecule MOL {
0 1

H	 -2.757398	 -0.636861	 1.153709
C	 -2.707493	 -0.455675	 0.082464
O	 -1.395611	 -0.309427	 -0.347789
H	 -3.132134	 -1.304278	 -0.433715
H	 -3.303833	 0.426035	 -0.145245
C	 -0.718530	 0.758693	 0.228682
C	 0.718529	 0.758687	 -0.228709
H	 -1.181844	 1.701026	 -0.063411
H	 -0.748278	 0.692613	 1.314121
O	 1.401606	 -0.295166	 0.366636
H	 0.748705	 0.673477	 -1.312803
H	 1.176496	 1.708671	 0.046552
C	 2.714315	 -0.441627	 -0.061017
H	 2.765292	 -0.641548	 -1.128869
H	 3.305661	 0.447341	 0.150952
H	 3.143725	 -1.278506	 0.470147

	symmetry c1
}
set optking {
	frozen_dihedral = ("
		3 6 7 11
	")
}

ee,wfn = optimize('scf', return_wfn=True)
oeprop( wfn, 'DIPOLE', 'QUADRUPOLE', 'MULLIKEN_CHARGES')
f=open( 'psi4out.xyz', 'w' )
f.write( "16  " )
f.write( str(ee) + "\n" )
f.write( MOL.save_string_xyz() )
f.close()
--------------------------------------------------------------------------

    Molecular point group: c1
  Charge       = 0
  Multiplicity = 1
  Basis Set: CC-PVTZ
  Basis Set:
  @DF-RHF Final Energy:  -307.09794951372521
    Total Energy =                       -307.0979495137251547
    Molecular point group: c1
  Basis Set: CC-PVTZ
  Basis Set:
  Charge       = 0
  Multiplicity = 1
  Basis Set: CC-PVTZ
  Basis Set:

    Orbital Energies (a.u.)
    -----------------------

    Doubly Occupied:

       1A    -20.547859     2A    -20.547787     3A    -11.267636
       4A    -11.266957     5A    -11.261631     6A    -11.261604
       7A     -1.391881     8A     -1.374574     9A     -1.032149
      10A     -0.937173    11A     -0.892397    12A     -0.824298
      13A     -0.686623    14A     -0.682771    15A     -0.659576
      16A     -0.638413    17A     -0.632087    18A     -0.598583
      19A     -0.551193    20A     -0.535709    21A     -0.509934
      22A     -0.479771    23A     -0.464887    24A     -0.423143
      25A     -0.413864

  @DF-RHF Final Energy:  -307.09795038308158

   => Energetics <=

    Nuclear Repulsion Energy =            258.9689976654016732
    One-Electron Energy =                -932.3688936730252408
    Two-Electron Energy =                 366.3019456245419860
    DFT Exchange-Correlation Energy =       0.0000000000000000
    Empirical Dispersion Energy =           0.0000000000000000
    PCM Polarization Energy =               0.0000000000000000
    EFP Energy =                            0.0000000000000000
    Total Energy =                       -307.0979503830815247
    Molecular point group: c1
  Basis Set: CC-PVTZ
  Basis Set:

  -Total Gradient:
     Atom            X                  Y                   Z
    ------   -----------------  -----------------  -----------------
       1        0.000000598630    -0.000001708750    -0.000004922751
       2        0.000009754372     0.000016566404     0.000015545632
       3        0.000107755158    -0.000163465845     0.000169275843
       4        0.000005293208     0.000000811648    -0.000003271032
       5       -0.000006433842     0.000001332280     0.000000486518
       6       -0.000079680447     0.000315669685    -0.000180611052
       7       -0.000019937493    -0.000358819393    -0.000126015486
       8        0.000015187696     0.000017400901     0.000015650780
       9       -0.000030264818    -0.000029390799    -0.000007710678
      10        0.000071871927    -0.000070504240     0.000124829756
      11       -0.000020828249     0.000324431541    -0.000038180645
      12       -0.000036765949    -0.000068420979     0.000026801382
      13       -0.000022557833     0.000019057517     0.000012602366
      14       -0.000005323665    -0.000000352955    -0.000003227603
      15        0.000012358705    -0.000002714220    -0.000002495850
      16       -0.000001027404     0.000000107205     0.000001242821

  **** Optimization is complete! (in 2 steps) ****
    Final optimized geometry and variables:
    Molecular point group: c1

    Geometry (in Angstrom), charge = 0, multiplicity = 1:

    H           -2.761127223922    -0.630121589951     1.146523519331
    C           -2.710930787133    -0.449438036902     0.075213789955
    O           -1.398824661558    -0.304941555489    -0.354922837508
    H           -3.136467699877    -1.297766925410    -0.440661119191
    H           -3.306270585764     0.432852765758    -0.152924550668
    C           -0.720533929325     0.762207588188     0.221545397383
    C            0.716091876375     0.761356831607    -0.236800388850
    H           -1.182639454026     1.705687814056    -0.068872256747
    H           -0.749789842084     0.694591938302     1.306944343857
    O            1.400291163025    -0.290616070248     0.360214307497
    H            0.746420378270     0.676729557078    -1.320976151030
    H            1.172789056864     1.712265127954     0.037498265741
    C            2.713721782612    -0.435069877024    -0.065874362660
    H            2.766181669029    -0.635474575436    -1.133561630624
    H            3.303391713095     0.454984924796     0.146270698863
    H            3.143896404369    -1.270953665763     0.466215020988

  Mulliken Charges: (a.u.)
   Center  Symbol    Alpha    Beta     Spin     Total
       1     H     0.47023  0.47023  0.00000  0.05955
       2     C     3.03202  3.03202  0.00000 -0.06403
       3     O     4.17030  4.17030  0.00000 -0.34059
       4     H     0.44633  0.44633  0.00000  0.10735
       5     H     0.47369  0.47369  0.00000  0.05262
       6     C     2.96065  2.96065  0.00000  0.07869
       7     C     2.96061  2.96061  0.00000  0.07879
       8     H     0.47602  0.47602  0.00000  0.04797
       9     H     0.47079  0.47079  0.00000  0.05842
      10     O     4.17025  4.17025  0.00000 -0.34051
      11     H     0.47076  0.47076  0.00000  0.05848
      12     H     0.47614  0.47614  0.00000  0.04771
      13     C     3.03201  3.03201  0.00000 -0.06403
      14     H     0.47020  0.47020  0.00000  0.05961
      15     H     0.47368  0.47368  0.00000  0.05263
      16     H     0.44632  0.44632  0.00000  0.10736

   Total alpha = 25.00000, Total beta = 25.00000, Total charge =  0.00000

*** Psi4 exiting successfully. Buy a developer a beer!
