  ==> Input File <==

--------------------------------------------------------------------------
set {
	reference rhf
	basis 6-31G*
}

set_num_threads( 4 )
memory 2 gb

molecule MOL {
0 1

H	 -2.273092	 1.173159	 0.000295
O	 -1.438904	 1.618192	 0.000114
C	 -0.409536	 0.736003	 0.000030
C	 -0.077658	 0.167974	 -1.219970
C	 0.289734	 0.406178	 1.158986
H	 -0.642672	 0.450151	 -2.088949
C	 0.960986	 -0.740145	 -1.297738
C	 1.329278	 -0.509650	 1.051298
C	 -0.074006	 1.026929	 2.489162
H	 1.213494	 -1.177273	 -2.247292
C	 1.672013	 -1.084820	 -0.159486
H	 1.879310	 -0.775005	 1.937524
H	 -1.096585	 0.795298	 2.780061
H	 0.572466	 0.655569	 3.274109
H	 0.029557	 2.110006	 2.474484
H	 2.481024	 -1.790428	 -0.212560

	symmetry c1
}
set optking {
	frozen_dihedral = ("
		4 3 2 1
	")
}

ee = optimize('scf')
oeprop('DIPOLE', 'QUADRUPOLE', 'MULLIKEN_CHARGES')
f=open( 'psi4out.xyz', 'w' )
f.write( "16  " )
f.write( str(ee) + "\n" )
f.write( MOL.save_string_xyz() )
f.close()
--------------------------------------------------------------------------

    Molecular point group: c1
  Charge       = 0
  Multiplicity = 1
  Basis Set: 6-31G*
  Basis Set:
  @DF-RHF Final Energy:  -344.58956931235446
    Total Energy =                       -344.5895693123544561
    Molecular point group: c1
  Basis Set: 6-31G*
  Basis Set:
  Basis Set: 6-31G*
  Basis Set:
  @DF-RHF Final Energy:  -344.59088058338864
    Total Energy =                       -344.5908805833886390
  Basis Set: 6-31G*
  Basis Set:
  Basis Set: 6-31G*
  Basis Set:
  @DF-RHF Final Energy:  -344.59096112036053
    Total Energy =                       -344.5909611203604754
  Basis Set: 6-31G*
  Basis Set:
  Basis Set: 6-31G*
  Basis Set:
  @DF-RHF Final Energy:  -344.59096895756505
    Total Energy =                       -344.5909689575652237
  Basis Set: 6-31G*
  Basis Set:
  Basis Set: 6-31G*
  Basis Set:
  @DF-RHF Final Energy:  -344.59097056454766
    Total Energy =                       -344.5909705645476038
  Basis Set: 6-31G*
  Basis Set:
  Charge       = 0
  Multiplicity = 1
  Basis Set: 6-31G*
  Basis Set:

    Orbital Energies (a.u.)
    -----------------------

    Doubly Occupied:

       1A    -20.575778     2A    -11.283087     3A    -11.233867
       4A    -11.229429     5A    -11.227979     6A    -11.225288
       7A    -11.225103     8A    -11.217088     9A     -1.390075
      10A     -1.148276    11A     -1.043784    12A     -1.002706
      13A     -0.931094    14A     -0.830079    15A     -0.802971
      16A     -0.724915    17A     -0.665102    18A     -0.654653
      19A     -0.620879    20A     -0.589759    21A     -0.570726
      22A     -0.563145    23A     -0.542586    24A     -0.516842
      25A     -0.499291    26A     -0.482139    27A     -0.461439
      28A     -0.328887    29A     -0.317100

  @DF-RHF Final Energy:  -344.59097091798498

   => Energetics <=

    Nuclear Repulsion Energy =            349.6218164937419601
    One-Electron Energy =               -1160.6174408645415497
    Two-Electron Energy =                 466.4046534528147276
    DFT Exchange-Correlation Energy =       0.0000000000000000
    Empirical Dispersion Energy =           0.0000000000000000
    PCM Polarization Energy =               0.0000000000000000
    EFP Energy =                            0.0000000000000000
    Total Energy =                       -344.5909709179848051
    Molecular point group: c1
  Basis Set: 6-31G*
  Basis Set:

  -Total Gradient:
     Atom            X                  Y                   Z
    ------   -----------------  -----------------  -----------------
       1        0.000025663374    -0.000034395188     0.000675835198
       2        0.000071710634     0.000287718351    -0.000885019635
       3       -0.000417182621    -0.000649358363     0.000308473435
       4        0.000283113764     0.000411967513    -0.000111017353
       5        0.000002864768     0.000004727961     0.000001965985
       6        0.000007926628    -0.000004038524     0.000014978210
       7        0.000030892465    -0.000021399349     0.000005810916
       8       -0.000032025756     0.000029070515     0.000015253478
       9       -0.000006504523    -0.000027284446    -0.000010414632
      10        0.000003977008    -0.000010025189    -0.000002234974
      11        0.000006939074     0.000000056461    -0.000020230406
      12        0.000001726467    -0.000002298521     0.000007853652
      13        0.000008957805     0.000003472015    -0.000011415127
      14        0.000004847257     0.000001982382     0.000011530900
      15        0.000011929642     0.000007130894    -0.000000548100
      16       -0.000004835987     0.000002673488    -0.000000821548

  **** Optimization is complete! (in 6 steps) ****
    Final optimized geometry and variables:
    Molecular point group: c1

    Geometry (in Angstrom), charge = 0, multiplicity = 1:

    H           -2.483642456264     0.964037424999    -0.226340880270
    O           -1.639349809895     1.395205703622    -0.220993418375
    C           -0.630864696775     0.465530352720    -0.287816468301
    C           -0.293202481821    -0.090903606826    -1.507896635239
    C            0.068646505533     0.143533444336     0.871844471919
    H           -0.844970460176     0.201308349097    -2.383288194827
    C            0.747844676066    -1.001651118942    -1.590306371941
    C            1.112099096526    -0.766525560848     0.765953528453
    C           -0.305181481119     0.775266060868     2.190613781750
    H            1.007423515321    -1.434822741045    -2.539617793644
    C            1.452449930133    -1.340768974205    -0.449289035880
    H            1.666991454441    -1.030246701263     1.649413929900
    H           -1.320132577273     0.518837038864     2.478590389877
    H            0.359814303692     0.441678976051     2.978543885440
    H           -0.253668386029     1.856572991282     2.133939555990
    H            2.264842404653    -2.043213828071    -0.501796798347

  Mulliken Charges: (a.u.)
   Center  Symbol    Alpha    Beta     Spin     Total
       1     H     0.27187  0.27187  0.00000  0.45627
       2     O     4.38806  4.38806  0.00000 -0.77611
       3     C     2.83452  2.83452  0.00000  0.33096
       4     C     3.11502  3.11502  0.00000 -0.23003
       5     C     2.99999  2.99999  0.00000  0.00003
       6     H     0.39608  0.39608  0.00000  0.20784
       7     C     3.10188  3.10188  0.00000 -0.20377
       8     C     3.11326  3.11326  0.00000 -0.22652
       9     C     3.24181  3.24181  0.00000 -0.48363
      10     H     0.39906  0.39906  0.00000  0.20188
      11     C     3.10048  3.10048  0.00000 -0.20096
      12     H     0.40093  0.40093  0.00000  0.19814
      13     H     0.41623  0.41623  0.00000  0.16754
      14     H     0.41666  0.41666  0.00000  0.16668
      15     H     0.40401  0.40401  0.00000  0.19197
      16     H     0.40015  0.40015  0.00000  0.19971

   Total alpha = 29.00000, Total beta = 29.00000, Total charge =  0.00000
