  ==> Input File <==

--------------------------------------------------------------------------
set {
	reference rhf
	basis 6-31G*
}

set_num_threads( 4 )
memory 2 gb

molecule MOL {
0 1

H	 -0.583690	 2.081620	 -0.899212
C	 0.169237	 1.320200	 -1.108084
N	 0.538815	 0.649616	 0.000000
O	 0.591829	 1.134494	 -2.210871
C	 1.521968	 -0.411503	 0.000000
H	 0.108532	 0.903266	 0.859536
H	 2.150599	 -0.357004	 -0.881901
H	 0.999455	 -1.354525	 0.000000
H	 2.150599	 -0.357004	 0.881901

	symmetry c1
}
set optking {
	frozen_dihedral = ("
		6 3 5 7
	")
}

ee = optimize('scf')
oeprop('DIPOLE', 'QUADRUPOLE', 'MULLIKEN_CHARGES')
f=open( 'psi4out.xyz', 'w' )
f.write( "9  " )
f.write( str(ee) + "\n" )
f.write( MOL.save_string_xyz() )
f.close()
--------------------------------------------------------------------------

    Molecular point group: c1
  Charge       = 0
  Multiplicity = 1
  Basis Set: 6-31G*
  Basis Set:
  @DF-RHF Final Energy:  -207.96024436828745
    Total Energy =                       -207.9602443682874480
    Molecular point group: c1
  Basis Set: 6-31G*
  Basis Set:
  Basis Set: 6-31G*
  Basis Set:
  @DF-RHF Final Energy:  -207.96085223344772
    Total Energy =                       -207.9608522334478096
  Basis Set: 6-31G*
  Basis Set:
  Basis Set: 6-31G*
  Basis Set:
  @DF-RHF Final Energy:  -207.96096723567928
    Total Energy =                       -207.9609672356792771
  Basis Set: 6-31G*
  Basis Set:
  Basis Set: 6-31G*
  Basis Set:
  @DF-RHF Final Energy:  -207.96087047794975
    Total Energy =                       -207.9608704779497543
  Basis Set: 6-31G*
  Basis Set:
  @DF-RHF Final Energy:  -207.96100237238772
    Total Energy =                       -207.9610023723877248
  @DF-RHF Final Energy:  -207.96102033057321
    Total Energy =                       -207.9610203305731773
  Basis Set: 6-31G*
  Basis Set:
  @DF-RHF Final Energy:  -207.96102822347865
    Total Energy =                       -207.9610282234786212
  Basis Set: 6-31G*
  Basis Set:
  Basis Set: 6-31G*
  Basis Set:
  @DF-RHF Final Energy:  -207.96103335547548
    Total Energy =                       -207.9610333554754789
  Basis Set: 6-31G*
  Basis Set:
  Basis Set: 6-31G*
  Basis Set:
  @DF-RHF Final Energy:  -207.96103712508318
    Total Energy =                       -207.9610371250831804
  Basis Set: 6-31G*
  Basis Set:
  Charge       = 0
  Multiplicity = 1
  Basis Set: 6-31G*
  Basis Set:

    Orbital Energies (a.u.)
    -----------------------

    Doubly Occupied:

       1A    -20.525833     2A    -15.590856     3A    -11.343824
       4A    -11.260569     5A     -1.389224     6A     -1.236427
       7A     -0.968338     8A     -0.807440     9A     -0.746441
      10A     -0.641544    11A     -0.626478    12A     -0.593070
      13A     -0.555550    14A     -0.535676    15A     -0.423965
      16A     -0.390842

  @DF-RHF Final Energy:  -207.96103785141173

   => Energetics <=

    Nuclear Repulsion Energy =            122.5418709085492566
    One-Electron Energy =                -525.7336651194391379
    Two-Electron Energy =                 195.2307563594782209
    DFT Exchange-Correlation Energy =       0.0000000000000000
    Empirical Dispersion Energy =           0.0000000000000000
    PCM Polarization Energy =               0.0000000000000000
    EFP Energy =                            0.0000000000000000
    Total Energy =                       -207.9610378514116746
    Molecular point group: c1
  Basis Set: 6-31G*
  Basis Set:

  -Total Gradient:
     Atom            X                  Y                   Z
    ------   -----------------  -----------------  -----------------
       1       -0.000005114288    -0.000003389142    -0.000001538382
       2        0.000062177766     0.000051683239     0.000021399686
       3       -0.000077313101    -0.000065773412    -0.000016675027
       4        0.000004418848     0.000001576322    -0.000004755301
       5        0.000053772567     0.000046028290     0.000027790875
       6       -0.000013027877    -0.000008208569    -0.000005797048
       7       -0.000040214298    -0.000032872943    -0.000033623467
       8       -0.000000821062    -0.000000978000     0.000023713130
       9        0.000016121446     0.000011934214    -0.000010514464

  **** Optimization is complete! (in 10 steps) ****
    Final optimized geometry and variables:
    Molecular point group: c1

    Geometry (in Angstrom), charge = 0, multiplicity = 1:

    H           -1.286155002863     1.433408093033    -0.085531080129
    C           -0.545334262084     0.657632414069    -0.285114248414
    N           -0.136104115337     0.034244858692     0.836413652229
    O           -0.154112569448     0.423757497708    -1.390267805958
    C            0.802673825119    -1.066596168736     0.821970426919
    H           -0.592266982090     0.264191695413     1.689082500329
    H            1.447065088488    -0.961668423686    -0.036847370645
    H            0.299439268132    -2.026360225208     0.762759360697
    H            1.404776103078    -1.041258838314     1.721416764264

  Mulliken Charges: (a.u.)
   Center  Symbol    Alpha    Beta     Spin     Total
       1     H     0.42728  0.42728  0.00000  0.14544
       2     C     2.74582  2.74582  0.00000  0.50837
       3     N     3.87451  3.87451  0.00000 -0.74902
       4     O     4.28374  4.28374  0.00000 -0.56748
       5     C     3.14164  3.14164  0.00000 -0.28329
       6     H     0.30929  0.30929  0.00000  0.38141
       7     H     0.39037  0.39037  0.00000  0.21927
       8     H     0.41286  0.41286  0.00000  0.17429
       9     H     0.41449  0.41449  0.00000  0.17101

   Total alpha = 16.00000, Total beta = 16.00000, Total charge = -0.00000
