                              Psi4 1.0.54 Driver

  ==> Input File <==

--------------------------------------------------------------------------
set {
	reference rhf
	basis cc-pvtz
}

set_num_threads( 4 )
memory 2 gb

molecule MOL {
0 1

O	 -1.278239	 1.034789	 -0.784693
C	 -1.204115	 0.062668	 -0.112312
C	 -2.386398	 -0.667698	 0.460323
O	 -0.068058	 -0.518372	 0.226882
H	 -2.382952	 -1.693172	 0.114333
H	 -3.296656	 -0.175702	 0.158400
H	 -2.312537	 -0.685191	 1.540100
C	 1.169086	 0.037484	 -0.230612
C	 2.031729	 -1.135883	 -0.650339
C	 1.797530	 0.872641	 0.870378
H	 0.955675	 0.664389	 -1.082982
H	 1.546584	 -1.707421	 -1.431190
H	 2.983479	 -0.780720	 -1.026826
H	 2.219343	 -1.794447	 0.189322
H	 2.740405	 1.284340	 0.529805
H	 1.150633	 1.693620	 1.146360
H	 1.987420	 0.264199	 1.747319

	symmetry c1
}
set optking {
	frozen_dihedral = ("
		11 8 4 2
	")
}

ee,wfn = optimize('scf', return_wfn=True)
oeprop( wfn, 'DIPOLE', 'QUADRUPOLE', 'MULLIKEN_CHARGES')
f=open( 'psi4out.xyz', 'w' )
f.write( "17  " )
f.write( str(ee) + "\n" )
f.write( MOL.save_string_xyz() )
f.close()
--------------------------------------------------------------------------

    Molecular point group: c1
  Charge       = 0
  Multiplicity = 1
  Basis Set: CC-PVTZ
  Basis Set:
  @DF-RHF Final Energy:  -345.04281052600027
    Total Energy =                       -345.0428105260001530
    Molecular point group: c1
  Basis Set: CC-PVTZ
  Basis Set:
  Basis Set: CC-PVTZ
  Basis Set:
  @DF-RHF Final Energy:  -345.04287255826409
    Total Energy =                       -345.0428725582638094
  Basis Set: CC-PVTZ
  Basis Set:
  Basis Set: CC-PVTZ
  Basis Set:
  @DF-RHF Final Energy:  -345.04260709957754
    Total Energy =                       -345.0426070995773671
  Basis Set: CC-PVTZ
  Basis Set:
  Basis Set: CC-PVTZ
  Basis Set:
  @DF-RHF Final Energy:  -345.04294596268983
    Total Energy =                       -345.0429459626896005
  Basis Set: CC-PVTZ
  Basis Set:
  Basis Set: CC-PVTZ
  Basis Set:
  @DF-RHF Final Energy:  -345.04295679417436
    Total Energy =                       -345.0429567941742448
  Basis Set: CC-PVTZ
  Basis Set:
  Charge       = 0
  Multiplicity = 1
  Basis Set: CC-PVTZ
  Basis Set:

    Orbital Energies (a.u.)
    -----------------------

    Doubly Occupied:

       1A    -20.590781     2A    -20.531214     3A    -11.367049
       4A    -11.287146     5A    -11.230402     6A    -11.217931
       7A    -11.215877     8A     -1.467772     9A     -1.364532
      10A     -1.079884    11A     -1.005587    12A     -0.949354
      13A     -0.849653    14A     -0.769410    15A     -0.694888
      16A     -0.669594    17A     -0.663015    18A     -0.613833
      19A     -0.587360    20A     -0.579176    21A     -0.566922
      22A     -0.551631    23A     -0.536629    24A     -0.523355
      25A     -0.504341    26A     -0.482957    27A     -0.448497
      28A     -0.439834

  @DF-RHF Final Energy:  -345.04295708471466

   => Energetics <=

    Nuclear Repulsion Energy =            322.8002035314221985
    One-Electron Energy =               -1110.1090756050396067
    Two-Electron Energy =                 442.2659149889028640
    DFT Exchange-Correlation Energy =       0.0000000000000000
    Empirical Dispersion Energy =           0.0000000000000000
    PCM Polarization Energy =               0.0000000000000000
    EFP Energy =                            0.0000000000000000
    Total Energy =                       -345.0429570847145442
    Molecular point group: c1
  Basis Set: CC-PVTZ
  Basis Set:

  -Total Gradient:
     Atom            X                  Y                   Z
    ------   -----------------  -----------------  -----------------
       1        0.000023770997    -0.000011802238     0.000005170125
       2       -0.000045262429    -0.000659114553    -0.000885346408
       3       -0.000023526309    -0.000030242246    -0.000016063399
       4       -0.000012734641     0.001203757476     0.001468024053
       5       -0.000002778108     0.000007231499     0.000018045623
       6        0.000007692309    -0.000004416237     0.000005125930
       7       -0.000004273316     0.000009296486    -0.000003796883
       8        0.000143686853    -0.001516034245    -0.001314983552
       9        0.000025064321    -0.000001121066    -0.000011011444
      10        0.000039508425    -0.000009552295    -0.000018462291
      11       -0.000138009324     0.000986642728     0.000751197906
      12       -0.000000436113     0.000005919655     0.000001534530
      13       -0.000001040022    -0.000001416120    -0.000000216809
      14       -0.000006334501     0.000007114912     0.000000158386
      15        0.000005969688     0.000011738618     0.000009478782
      16       -0.000001957392     0.000002815539     0.000001094640
      17       -0.000009340439    -0.000000817909    -0.000009949192

  **** Optimization is complete! (in 6 steps) ****
    Final optimized geometry and variables:
    Molecular point group: c1

    Geometry (in Angstrom), charge = 0, multiplicity = 1:

    O           -1.298756531140     1.088884372735    -0.740616325564
    C           -1.214611397699     0.107509691445    -0.083331234390
    C           -2.390443523945    -0.641616199941     0.478579387578
    O           -0.074419388738    -0.467730688622     0.253488789085
    H           -2.378841346235    -1.661401867819     0.116380770186
    H           -3.304985167755    -0.152391092057     0.185369680546
    H           -2.315236299271    -0.675729242770     1.557827425847
    C            1.164781194783     0.077482939030    -0.211595426622
    C            2.042246258323    -1.094098741276    -0.604635860376
    C            1.766023833682     0.933087787284     0.888798463507
    H            0.955828884904     0.696712592794    -1.068734704194
    H            1.574990165814    -1.676271435569    -1.388713759583
    H            2.998305496331    -0.736863038109    -0.968280871810
    H            2.219231742153    -1.743332774436     0.244605785099
    H            2.710563740351     1.352261668495     0.562362974729
    H            1.102651348917     1.750671364695     1.139893039944
    H            1.942291412775     0.342252557732     1.780160176599

  Mulliken Charges: (a.u.)
   Center  Symbol    Alpha    Beta     Spin     Total
       1     O     4.19974  4.19974  0.00000 -0.39948
       2     C     2.80388  2.80388  0.00000  0.39225
       3     C     3.14017  3.14017  0.00000 -0.28033
       4     O     4.16605  4.16605  0.00000 -0.33211
       5     H     0.44618  0.44618  0.00000  0.10764
       6     H     0.43845  0.43845  0.00000  0.12310
       7     H     0.44603  0.44603  0.00000  0.10793
       8     C     2.93429  2.93429  0.00000  0.13142
       9     C     3.13788  3.13788  0.00000 -0.27575
      10     C     3.14822  3.14822  0.00000 -0.29645
      11     H     0.43776  0.43776  0.00000  0.12448
      12     H     0.44731  0.44731  0.00000  0.10539
      13     H     0.45383  0.45383  0.00000  0.09234
      14     H     0.45261  0.45261  0.00000  0.09477
      15     H     0.45120  0.45120  0.00000  0.09759
      16     H     0.44310  0.44310  0.00000  0.11381
      17     H     0.45330  0.45330  0.00000  0.09341

   Total alpha = 28.00000, Total beta = 28.00000, Total charge =  0.00000

*** Psi4 exiting successfully. Buy a developer a beer!
