  ==> Input File <==

--------------------------------------------------------------------------
set {
	reference rhf
	basis 6-31G*
}

set_num_threads( 1 )
memory 2 gb

molecule MOL {
0 1

H	 -2.798360	 -0.862255	 -0.071053
N	 -1.863561	 -0.715187	 0.256814
C	 -1.344686	 0.554728	 -0.219830
H	 -1.300452	 -1.461917	 -0.101532
C	 -2.477791	 1.544568	 -0.391373
H	 -0.597195	 0.998618	 0.439123
H	 -0.874712	 0.396924	 -1.185751
O	 -3.028458	 1.803451	 0.868322
H	 -2.106940	 2.468386	 -0.834845
H	 -3.231986	 1.125844	 -1.054016
C	 -4.142158	 2.638207	 0.847665
H	 -4.475775	 2.765407	 1.868556
H	 -3.899707	 3.615083	 0.433043
H	 -4.951822	 2.206464	 0.262985

	symmetry c1
}
set optking {
	frozen_dihedral = ("
		8 5 3 6,
		5 8 11 13,
		11 8 5 3
	")
}

ee = energy('scf')
oeprop('DIPOLE', 'QUADRUPOLE', 'MULLIKEN_CHARGES')
f=open( 'psi4out.xyz', 'w' )
f.write( "14  " )
f.write( str(ee) + "\n" )
f.write( MOL.save_string_xyz() )
f.close()
--------------------------------------------------------------------------

    Molecular point group: c1

    Geometry (in Angstrom), charge = 0, multiplicity = 1:

       Center              X                  Y                   Z               Mass
    ------------   -----------------  -----------------  -----------------  -----------------
           H         -0.206887455195    -2.021489161709    -0.338503307475     1.007825032070
           N          0.727911544805    -1.874421161709    -0.010636307475    14.003074004780
           C          1.246786544805    -0.604506161709    -0.487280307475    12.000000000000
           H          1.291020544805    -2.621151161709    -0.368982307475     1.007825032070
           C          0.113681544805     0.385333838291    -0.658823307475    12.000000000000
           H          1.994277544805    -0.160616161709     0.171672692525     1.007825032070
           H          1.716760544805    -0.762310161709    -1.453201307475     1.007825032070
           O         -0.436985455195     0.644216838291     0.600871692525    15.994914619560
           H          0.484532544805     1.309151838291    -1.102295307475     1.007825032070
           H         -0.640513455195    -0.033390161709    -1.321466307475     1.007825032070
           C         -1.550685455195     1.478972838291     0.580214692525    12.000000000000
           H         -1.884302455195     1.606172838291     1.601105692525     1.007825032070
           H         -1.308234455195     2.455848838291     0.165592692525     1.007825032070
           H         -2.360349455195     1.047229838291    -0.004465307475     1.007825032070

  Charge       = 0
  Multiplicity = 1
  Basis Set: 6-31G*
  Basis Set:

    Orbital Energies (a.u.)
    -----------------------

    Doubly Occupied:

       1A    -20.554355     2A    -15.528470     3A    -11.271835
       4A    -11.264749     5A    -11.242435     6A     -1.379098
       7A     -1.176626     8A     -0.999826     9A     -0.905531
      10A     -0.821887    11A     -0.685982    12A     -0.667581
      13A     -0.650651    14A     -0.609365    15A     -0.582809
      16A     -0.576737    17A     -0.523523    18A     -0.498633
      19A     -0.468879    20A     -0.418553    21A     -0.375074

  @DF-RHF Final Energy:  -248.11566464413968

   => Energetics <=

    Nuclear Repulsion Energy =            194.5767544222876211
    One-Electron Energy =                -722.9795345624736456
    Two-Electron Energy =                 280.2871154960466811
    DFT Exchange-Correlation Energy =       0.0000000000000000
    Empirical Dispersion Energy =           0.0000000000000000
    PCM Polarization Energy =               0.0000000000000000
    EFP Energy =                            0.0000000000000000
    Total Energy =                       -248.1156646441393150

  Mulliken Charges: (a.u.)
   Center  Symbol    Alpha    Beta     Spin     Total
       1     H     0.33281  0.33281  0.00000  0.33437
       2     N     3.91585  3.91585  0.00000 -0.83170
       3     C     3.05864  3.05864  0.00000 -0.11729
       4     H     0.33467  0.33467  0.00000  0.33065
       5     C     3.00120  3.00120  0.00000 -0.00241
       6     H     0.41175  0.41175  0.00000  0.17651
       7     H     0.43286  0.43286  0.00000  0.13428
       8     O     4.29771  4.29771  0.00000 -0.59541
       9     H     0.42747  0.42747  0.00000  0.14506
      10     H     0.43524  0.43524  0.00000  0.12951
      11     C     3.07900  3.07900  0.00000 -0.15800
      12     H     0.41020  0.41020  0.00000  0.17961
      13     H     0.43117  0.43117  0.00000  0.13766
      14     H     0.43142  0.43142  0.00000  0.13716

   Total alpha = 21.00000, Total beta = 21.00000, Total charge =  0.00000
