  ==> Input File <==

--------------------------------------------------------------------------
set {
	reference rhf
	basis 6-31G*
}

set_num_threads( 4 )
memory 2 gb

molecule MOL {
0 1

H	 3.815641	 4.741262	 -1.659539
C	 3.304956	 3.855221	 -1.326498
C	 1.975801	 3.928330	 -0.937718
C	 3.977726	 2.644113	 -1.287387
H	 1.455207	 4.868223	 -0.968532
C	 1.319835	 2.788630	 -0.509612
H	 5.008043	 2.589374	 -1.589143
C	 3.323118	 1.501959	 -0.859199
H	 0.291493	 2.826447	 -0.205056
C	 1.991004	 1.571915	 -0.468888
H	 3.839848	 0.562653	 -0.827329
C	 1.239129	 0.373821	 0.000060
O	 1.970282	 -0.730723	 0.000018
O	 0.098305	 0.395768	 0.341961
C	 3.377318	 -0.566646	 -0.000065
H	 3.695437	 -0.028981	 -0.881264
H	 3.789299	 -1.563704	 0.000236
H	 3.695516	 -0.028316	 0.880770

	symmetry c1
}
set optking {
	frozen_dihedral = ("
		10 12 13 15
	")
}

ee = optimize('scf')
oeprop('DIPOLE', 'QUADRUPOLE', 'MULLIKEN_CHARGES')
f=open( 'psi4out.xyz', 'w' )
f.write( "18  " )
f.write( str(ee) + "\n" )
f.write( MOL.save_string_xyz() )
f.close()
--------------------------------------------------------------------------

    Molecular point group: c1
  Charge       = 0
  Multiplicity = 1
  Basis Set: 6-31G*
  Basis Set:
  @DF-RHF Final Energy:  -457.05058606103393
    Total Energy =                       -457.0505860610344371
    Molecular point group: c1
  Basis Set: 6-31G*
  Basis Set:
  Basis Set: 6-31G*
  Basis Set:
  @DF-RHF Final Energy:  -457.18568113639617
    Total Energy =                       -457.1856811363961697
  Basis Set: 6-31G*
  Basis Set:
  Basis Set: 6-31G*
  Basis Set:
  @DF-RHF Final Energy:  -457.24351345759408
    Total Energy =                       -457.2435134575948723
  Basis Set: 6-31G*
  Basis Set:
  Basis Set: 6-31G*
  Basis Set:
  @DF-RHF Final Energy:  -457.28180171750705
    Total Energy =                       -457.2818017175072782
  Basis Set: 6-31G*
  Basis Set:
  @DF-RHF Final Energy:  -457.30292282129949
    Total Energy =                       -457.3029228212985799
  @DF-RHF Final Energy:  -457.31391540507548
    Total Energy =                       -457.3139154050758179
  @DF-RHF Final Energy:  -457.31710174943470
    Total Energy =                       -457.3171017494346415
  @DF-RHF Final Energy:  -457.32110289295792
    Total Energy =                       -457.3211028929581516
  @DF-RHF Final Energy:  -457.32209401394914
    Total Energy =                       -457.3220940139485720
  @DF-RHF Final Energy:  -457.32372119737551
    Total Energy =                       -457.3237211973756757
  @DF-RHF Final Energy:  -457.32540504025428
    Total Energy =                       -457.3254050402540543
  @DF-RHF Final Energy:  -457.32604624349176
    Total Energy =                       -457.3260462434915326
  @DF-RHF Final Energy:  -457.32648965805055
    Total Energy =                       -457.3264896580510595
  @DF-RHF Final Energy:  -457.32708317276860
    Total Energy =                       -457.3270831727681980
  @DF-RHF Final Energy:  -457.32762482814502
    Total Energy =                       -457.3276248281454173
  @DF-RHF Final Energy:  -457.32791890642397
    Total Energy =                       -457.3279189064242019
  @DF-RHF Final Energy:  -457.32804010620345
    Total Energy =                       -457.3280401062038436
  @DF-RHF Final Energy:  -457.32811113933019
    Total Energy =                       -457.3281111393299625
  @DF-RHF Final Energy:  -457.32815995950170
    Total Energy =                       -457.3281599595017042
  @DF-RHF Final Energy:  -457.32818654055581
    Total Energy =                       -457.3281865405562030
  @DF-RHF Final Energy:  -457.32819674300464
    Total Energy =                       -457.3281967430042414
  Basis Set: 6-31G*
  Basis Set:
  @DF-RHF Final Energy:  -457.32820543253922
    Total Energy =                       -457.3282054325393347
  Basis Set: 6-31G*
  Basis Set:
  Basis Set: 6-31G*
  Basis Set:
  @DF-RHF Final Energy:  -457.32821094357729
    Total Energy =                       -457.3282109435773464
  Basis Set: 6-31G*
  Basis Set:
  Basis Set: 6-31G*
  Basis Set:
  @DF-RHF Final Energy:  -457.32821261790332
    Total Energy =                       -457.3282126179034321
  Basis Set: 6-31G*
  Basis Set:
  Charge       = 0
  Multiplicity = 1
  Basis Set: 6-31G*
  Basis Set:

    Orbital Energies (a.u.)
    -----------------------

    Doubly Occupied:

       1A    -20.602902     2A    -20.541430     3A    -11.379661
       4A    -11.293809     5A    -11.256848     6A    -11.254683
       7A    -11.250332     8A    -11.249520     9A    -11.247356
      10A    -11.245245    11A     -1.463996    12A     -1.365581
      13A     -1.173277    14A     -1.047561    15A     -1.033504
      16A     -0.986610    17A     -0.876071    18A     -0.845798
      19A     -0.785042    20A     -0.737390    21A     -0.690368
      22A     -0.676994    23A     -0.673208    24A     -0.639987
      25A     -0.629518    26A     -0.604773    27A     -0.597428
      28A     -0.565279    29A     -0.539597    30A     -0.516629
      31A     -0.513251    32A     -0.501972    33A     -0.449660
      34A     -0.439307    35A     -0.351495    36A     -0.348818

  @DF-RHF Final Energy:  -457.32821282652770

   => Energetics <=

    Nuclear Repulsion Energy =            497.9429452867798886
    One-Electron Energy =               -1609.7925190007797482
    Two-Electron Energy =                 654.5213608874722695
    DFT Exchange-Correlation Energy =       0.0000000000000000
    Empirical Dispersion Energy =           0.0000000000000000
    PCM Polarization Energy =               0.0000000000000000
    EFP Energy =                            0.0000000000000000
    Total Energy =                       -457.3282128265276469
    Molecular point group: c1
  Basis Set: 6-31G*
  Basis Set:

  -Total Gradient:
     Atom            X                  Y                   Z
    ------   -----------------  -----------------  -----------------
       1        0.000002207160    -0.000002033099     0.000001571943
       2       -0.000028798738     0.000024297498    -0.000003844295
       3        0.000023522702     0.000024721262    -0.000004315120
       4        0.000041090777     0.000024429204    -0.000025242215
       5       -0.000001050843    -0.000002093692     0.000002793738
       6       -0.000000356162    -0.000039983956     0.000001755634
       7        0.000000572150     0.000003034315    -0.000000273985
       8        0.000013944560     0.000013059857    -0.000031422904
       9       -0.000001503886     0.000003323965    -0.000000406706
      10       -0.000257828087     0.000336798645     0.001184041174
      11       -0.000014393562    -0.000013330784     0.000027474250
      12        0.000730275562    -0.000529015618    -0.002536930998
      13       -0.001145438475     0.000267226335     0.002575590447
      14        0.000004543356    -0.000001908505    -0.000002360386
      15        0.000647011088    -0.000126934106    -0.001173867840
      16       -0.000014133361     0.000009148792    -0.000012922630
      17       -0.000000068762     0.000004629079     0.000002849632
      18        0.000000404524     0.000004630811    -0.000004489740

  **** Optimization is complete! (in 25 steps) ****
    Final optimized geometry and variables:
    Molecular point group: c1

    Geometry (in Angstrom), charge = 0, multiplicity = 1:

    H            1.486357009689     3.510524028583    -0.713480295739
    C            1.017542649407     2.557859995917    -0.544032239307
    C           -0.189326515043     2.489899992915     0.134515953003
    C            1.614688771944     1.399425549526    -1.014189347938
    H           -0.659270200460     3.388407047138     0.491173569040
    C           -0.799365925549     1.265185219876     0.340643737564
    H            2.540281820726     1.451134586120    -1.558356578265
    C            1.017204186667     0.171133556029    -0.786633271269
    H           -1.748877730702     1.205171451612     0.838440666983
    C           -0.189164069211     0.097800292122    -0.101474222697
    H            1.478626971111    -0.721007879800    -1.168054848755
    C           -0.925073659957    -1.195678572292     0.097056371064
    O           -0.257937150981    -2.271776779428     0.513933642651
    O           -2.089491754588    -1.279872351328    -0.106162473680
    C            0.992624120389    -2.228910449364     1.168795205455
    H            1.802951216035    -2.327564082908     0.460164559865
    H            1.003977481919    -3.076003823538     1.837910778351
    H            1.118372989726    -1.319444081542     1.738676165063

  Mulliken Charges: (a.u.)
   Center  Symbol    Alpha    Beta     Spin     Total
       1     H     0.39420  0.39420  0.00000  0.21159
       2     C     3.09386  3.09386  0.00000 -0.18771
       3     C     3.10308  3.10308  0.00000 -0.20616
       4     C     3.10270  3.10270  0.00000 -0.20539
       5     H     0.39351  0.39351  0.00000  0.21297
       6     C     3.09053  3.09053  0.00000 -0.18107
       7     H     0.39471  0.39471  0.00000  0.21059
       8     C     3.09810  3.09810  0.00000 -0.19620
       9     H     0.37998  0.37998  0.00000  0.24003
      10     C     3.06792  3.06792  0.00000 -0.13584
      11     H     0.38994  0.38994  0.00000  0.22011
      12     C     2.60345  2.60345  0.00000  0.79310
      13     O     4.30474  4.30474  0.00000 -0.60949
      14     O     4.26341  4.26341  0.00000 -0.52682
      15     C     3.09207  3.09207  0.00000 -0.18414
      16     H     0.41633  0.41633  0.00000  0.16735
      17     H     0.40105  0.40105  0.00000  0.19790
      18     H     0.41042  0.41042  0.00000  0.17917

   Total alpha = 36.00000, Total beta = 36.00000, Total charge = -0.00000
