  ==> Input File <==

--------------------------------------------------------------------------
set {
	reference rhf
	basis 6-31G*
}

set_num_threads( 4 )
memory 2 gb

molecule MOL {
0 1

O	 2.034175	 0.955199	 -0.773116
C	 1.705091	 0.115954	 0.001797
C	 0.381791	 -0.609817	 0.001258
O	 2.483254	 -0.304108	 0.991315
C	 -0.823008	 0.326187	 0.001381
H	 0.371250	 -1.265087	 -0.865474
H	 0.370908	 -1.265746	 0.867490
C	 -2.149452	 -0.435131	 -0.000098
H	 -0.770201	 0.977095	 -0.865636
H	 -0.771220	 0.975655	 0.869608
C	 -3.368779	 0.488503	 -0.000883
H	 -2.193746	 -1.087250	 -0.871175
H	 -2.195311	 -1.087803	 0.870418
C	 -4.693822	 -0.272754	 -0.001129
H	 -3.325798	 1.139422	 -0.871284
H	 -3.326423	 1.139959	 0.869145
H	 -4.781274	 -0.907928	 -0.878124
H	 -5.538651	 0.408946	 -0.001420
H	 -4.781694	 -0.907783	 0.875984
C	 3.760220	 0.297192	 1.104237
H	 4.341897	 0.124705	 0.210129
H	 4.232649	 -0.170690	 1.953810
H	 3.666245	 1.361240	 1.266949

	symmetry c1
}
set optking {
	frozen_dihedral = ("
		1 2 3 6
	")
}

ee = optimize('scf')
oeprop('DIPOLE', 'QUADRUPOLE', 'MULLIKEN_CHARGES')
f=open( 'psi4out.xyz', 'w' )
f.write( "23  " )
f.write( str(ee) + "\n" )
f.write( MOL.save_string_xyz() )
f.close()
--------------------------------------------------------------------------

    Molecular point group: c1
  Charge       = 0
  Multiplicity = 1
  Basis Set: 6-31G*
  Basis Set:
  @DF-RHF Final Energy:  -422.97442487637488
    Total Energy =                       -422.9744248763751102
    Molecular point group: c1
  Basis Set: 6-31G*
  Basis Set:
  Basis Set: 6-31G*
  Basis Set:
  @DF-RHF Final Energy:  -422.97501133370042
    Total Energy =                       -422.9750113337008770
  Basis Set: 6-31G*
  Basis Set:
  Basis Set: 6-31G*
  Basis Set:
  @DF-RHF Final Energy:  -422.97456389668753
    Total Energy =                       -422.9745638966873003
  Basis Set: 6-31G*
  Basis Set:
  Basis Set: 6-31G*
  Basis Set:
  @DF-RHF Final Energy:  -422.97506056849346
    Total Energy =                       -422.9750605684937454
  Basis Set: 6-31G*
  Basis Set:
  Basis Set: 6-31G*
  Basis Set:
  @DF-RHF Final Energy:  -422.97506201764406
    Total Energy =                       -422.9750620176445182
  Basis Set: 6-31G*
  Basis Set:
  Charge       = 0
  Multiplicity = 1
  Basis Set: 6-31G*
  Basis Set:

    Orbital Energies (a.u.)
    -----------------------

    Doubly Occupied:

       1A    -20.605880     2A    -20.542479     3A    -11.371700
       4A    -11.280821     5A    -11.234144     6A    -11.224078
       7A    -11.219493     8A    -11.217884     9A    -11.210573
      10A     -1.469700    11A     -1.361513    12A     -1.094417
      13A     -1.043678    14A     -0.986773    15A     -0.933367
      16A     -0.844362    17A     -0.796369    18A     -0.770668
      19A     -0.695581    20A     -0.681479    21A     -0.671974
      22A     -0.652817    23A     -0.607679    24A     -0.598446
      25A     -0.574733    26A     -0.568463    27A     -0.546786
      28A     -0.528341    29A     -0.523951    30A     -0.506191
      31A     -0.486412    32A     -0.472669    33A     -0.467554
      34A     -0.463152    35A     -0.453834    36A     -0.431809

  @DF-RHF Final Energy:  -422.97506231004604

   => Energetics <=

    Nuclear Repulsion Energy =            452.5986909455898513
    One-Electron Energy =               -1472.8679680071777511
    Two-Electron Energy =                 597.2942147515423130
    DFT Exchange-Correlation Energy =       0.0000000000000000
    Empirical Dispersion Energy =           0.0000000000000000
    PCM Polarization Energy =               0.0000000000000000
    EFP Energy =                            0.0000000000000000
    Total Energy =                       -422.9750623100455869
    Molecular point group: c1
  Basis Set: 6-31G*
  Basis Set:

  -Total Gradient:
     Atom            X                  Y                   Z
    ------   -----------------  -----------------  -----------------
       1        0.000339131965    -0.000596824082    -0.000475608747
       2       -0.000559082607     0.000985972171     0.000609753144
       3        0.000562326248    -0.000978414921     0.000303154542
       4        0.000013821248     0.000004069827    -0.000021430366
       5       -0.000016726400     0.000026029358    -0.000014890107
       6       -0.000350156143     0.000596514797    -0.000392105427
       7       -0.000003057270    -0.000019954376     0.000010070037
       8        0.000010987686    -0.000014728657    -0.000013962248
       9       -0.000008117541     0.000001426547    -0.000000722955
      10        0.000013569655    -0.000015535050    -0.000009856030
      11        0.000008170646     0.000011651860     0.000000867870
      12        0.000000932821    -0.000001996907    -0.000004651242
      13        0.000008391276    -0.000002658915    -0.000005221963
      14        0.000000911904    -0.000001141402     0.000006843574
      15       -0.000006123798    -0.000001611940    -0.000001136543
      16       -0.000000885724     0.000006468098    -0.000001595278
      17        0.000001902079     0.000001499447     0.000000304772
      18        0.000001176698     0.000000375392     0.000001652630
      19       -0.000001352865    -0.000001495661     0.000001097714
      20       -0.000034160078    -0.000004167966     0.000011389063
      21        0.000001253562    -0.000002141466    -0.000004741801
      22        0.000010277298     0.000002950710    -0.000000344521
      23        0.000006809335     0.000003713137     0.000001133878

  **** Optimization is complete! (in 6 steps) ****
    Final optimized geometry and variables:
    Molecular point group: c1

    Geometry (in Angstrom), charge = 0, multiplicity = 1:

    O            1.991235690941     0.900109755784    -0.885997623409
    C            1.727649429609     0.042419993936    -0.104543775137
    C            0.416483400870    -0.706486222707    -0.072607523102
    O            2.573283787542    -0.373691870305     0.826811199573
    C           -0.786266443626     0.242190386978    -0.105635919831
    H            0.399868445016    -1.339941878098    -0.955697541839
    H            0.387824774706    -1.350763783385     0.796662968206
    C           -2.117724675101    -0.507756655996    -0.155557395914
    H           -0.693614908256     0.894797536496    -0.966671273029
    H           -0.763336910424     0.881723293971     0.773974420402
    C           -3.328931715692     0.426186579001    -0.181879063434
    H           -2.138263733526    -1.146877368645    -1.036836641344
    H           -2.194545622064    -1.171152653100     0.704330482981
    C           -4.659019677847    -0.324382557404    -0.235480803245
    H           -3.252858815031     1.088822937782    -1.040975732965
    H           -3.310047220631     1.064650975550     0.698664578280
    H           -4.723115372904    -0.945860805785    -1.124181826974
    H           -5.498095769665     0.364084621527    -0.252597672332
    H           -4.779655956017    -0.971346872911     0.628890491257
    C            3.845561564072     0.247933635912     0.861623475426
    H            4.368003875536     0.095405668356    -0.071721054601
    H            4.381100497305    -0.221671411815     1.671900249647
    H            3.744728704853     1.308204403225     1.043113592488

  Mulliken Charges: (a.u.)
   Center  Symbol    Alpha    Beta     Spin     Total
       1     O     4.28728  4.28728  0.00000 -0.57455
       2     C     2.60648  2.60648  0.00000  0.78704
       3     C     3.20601  3.20601  0.00000 -0.41202
       4     O     4.30437  4.30437  0.00000 -0.60875
       5     C     3.16092  3.16092  0.00000 -0.32185
       6     H     0.40096  0.40096  0.00000  0.19808
       7     H     0.40035  0.40035  0.00000  0.19929
       8     C     3.15254  3.15254  0.00000 -0.30509
       9     H     0.40320  0.40320  0.00000  0.19360
      10     H     0.41753  0.41753  0.00000  0.16493
      11     C     3.15210  3.15210  0.00000 -0.30420
      12     H     0.42240  0.42240  0.00000  0.15520
      13     H     0.42312  0.42312  0.00000  0.15376
      14     C     3.23973  3.23973  0.00000 -0.47945
      15     H     0.42056  0.42056  0.00000  0.15889
      16     H     0.42204  0.42204  0.00000  0.15591
      17     H     0.42129  0.42129  0.00000  0.15742
      18     H     0.41831  0.41831  0.00000  0.16339
      19     H     0.42171  0.42171  0.00000  0.15659
      20     C     3.09362  3.09362  0.00000 -0.18724
      21     H     0.40862  0.40862  0.00000  0.18276
      22     H     0.40839  0.40839  0.00000  0.18323
      23     H     0.40847  0.40847  0.00000  0.18306

   Total alpha = 36.00000, Total beta = 36.00000, Total charge =  0.00000
