                              Psi4 1.0.54 Driver

  ==> Input File <==

--------------------------------------------------------------------------
set {
	reference rhf
	basis cc-pvtz
}

set_num_threads( 4 )
memory 2 gb

molecule MOL {
0 1

H	 -3.262210	 0.988792	 -0.432359
C	 -2.751341	 1.871823	 -0.055329
O	 -1.392850	 1.833172	 -0.339142
H	 -3.165207	 2.745290	 -0.537677
H	 -2.934463	 1.944119	 1.015243
C	 -0.718530	 0.758693	 0.228682
C	 0.718529	 0.758687	 -0.228709
H	 -0.742799	 0.829992	 1.316017
H	 -1.184431	 -0.182163	 -0.056200
O	 1.401606	 -0.295166	 0.366636
H	 0.748705	 0.673477	 -1.312803
H	 1.176496	 1.708671	 0.046552
C	 2.714315	 -0.441627	 -0.061017
H	 2.765292	 -0.641548	 -1.128869
H	 3.305661	 0.447341	 0.150952
H	 3.143725	 -1.278506	 0.470147

	symmetry c1
}
set optking {
	frozen_dihedral = ("
		3 6 7 11
	")
}

ee,wfn = optimize('scf', return_wfn=True)
oeprop( wfn, 'DIPOLE', 'QUADRUPOLE', 'MULLIKEN_CHARGES')
f=open( 'psi4out.xyz', 'w' )
f.write( "16  " )
f.write( str(ee) + "\n" )
f.write( MOL.save_string_xyz() )
f.close()
--------------------------------------------------------------------------

    Molecular point group: c1
  Charge       = 0
  Multiplicity = 1
  Basis Set: CC-PVTZ
  Basis Set:
  @DF-RHF Final Energy:  -307.09903442989730
    Total Energy =                       -307.0990344298973014
    Molecular point group: c1
  Basis Set: CC-PVTZ
  Basis Set:
  Basis Set: CC-PVTZ
  Basis Set:
  @DF-RHF Final Energy:  -307.09943664404221
    Total Energy =                       -307.0994366440421572
  Basis Set: CC-PVTZ
  Basis Set:
  Basis Set: CC-PVTZ
  Basis Set:
  @DF-RHF Final Energy:  -307.09951910109453
    Total Energy =                       -307.0995191010945291
  Basis Set: CC-PVTZ
  Basis Set:
  Charge       = 0
  Multiplicity = 1
  Basis Set: CC-PVTZ
  Basis Set:

    Orbital Energies (a.u.)
    -----------------------

    Doubly Occupied:

       1A    -20.552649     2A    -20.552626     3A    -11.265954
       4A    -11.265287     5A    -11.264800     6A    -11.264795
       7A     -1.392543     8A     -1.381277     9A     -1.031855
      10A     -0.942401    11A     -0.883363    12A     -0.831802
      13A     -0.694164    14A     -0.676464    15A     -0.661801
      16A     -0.650302    17A     -0.621319    18A     -0.601377
      19A     -0.577386    20A     -0.517544    21A     -0.509452
      22A     -0.485400    23A     -0.468035    24A     -0.421526
      25A     -0.420834

  @DF-RHF Final Energy:  -307.09952208594871

   => Energetics <=

    Nuclear Repulsion Energy =            255.0730180941072831
    One-Electron Energy =                -924.4751766840852270
    Two-Electron Energy =                 362.3026365040294081
    DFT Exchange-Correlation Energy =       0.0000000000000000
    Empirical Dispersion Energy =           0.0000000000000000
    PCM Polarization Energy =               0.0000000000000000
    EFP Energy =                            0.0000000000000000
    Total Energy =                       -307.0995220859485357
    Molecular point group: c1
  Basis Set: CC-PVTZ
  Basis Set:

  -Total Gradient:
     Atom            X                  Y                   Z
    ------   -----------------  -----------------  -----------------
       1        0.000010719271     0.000037327198     0.000004712956
       2       -0.000069605387    -0.000113998367     0.000080932823
       3        0.000074634029     0.000135058779     0.000075131324
       4        0.000101612241    -0.000022912050    -0.000005651741
       5        0.000001418419     0.000009124322    -0.000030984836
       6       -0.000109525188    -0.000125456332    -0.000125471497
       7        0.000090992551     0.000216394333     0.000057281550
       8        0.000005262505    -0.000004797547    -0.000023186755
       9        0.000009316347    -0.000007984231    -0.000003503210
      10       -0.000053798404    -0.000015588995     0.000026589325
      11       -0.000005371290    -0.000189474851     0.000009586283
      12       -0.000013477445    -0.000002607201    -0.000010856300
      13        0.000066040123     0.000087750765    -0.000114359675
      14        0.000001440607    -0.000004695162     0.000040259502
      15       -0.000011367814    -0.000029949294     0.000002392502
      16       -0.000098290566     0.000031808631     0.000017127751

  **** Optimization is complete! (in 4 steps) ****
    Final optimized geometry and variables:
    Molecular point group: c1

    Geometry (in Angstrom), charge = 0, multiplicity = 1:

    H           -3.285661692040     0.266589262174    -0.296204314027
    C           -2.729750900230     1.149759331455     0.010006977352
    O           -1.389272500380     1.053822142708    -0.342319005489
    H           -3.142410734052     2.012590196021    -0.491979726674
    H           -2.850566625277     1.277361755019     1.083299249895
    C           -0.718197806906    -0.019410440998     0.234472375546
    C            0.715213955860     0.012095691239    -0.244876478355
    H           -0.740472347982     0.046453886133     1.319978290461
    H           -1.177935977411    -0.963568461137    -0.049205704108
    O            1.391194586017    -1.048836778646     0.348787132621
    H            0.739797576761    -0.070772344017    -1.329239625019
    H            1.169184930340     0.962818626699     0.025509973797
    C            2.730752666548    -1.147439743000    -0.006278429938
    H            2.848421070546    -1.296241836892    -1.077170675843
    H            3.284631522434    -0.256375887727     0.280176656612
    H            3.148107726098    -1.998500011835     0.511666697983

  Mulliken Charges: (a.u.)
   Center  Symbol    Alpha    Beta     Spin     Total
       1     H     0.47067  0.47067  0.00000  0.05865
       2     C     3.03173  3.03173  0.00000 -0.06346
       3     O     4.17530  4.17530  0.00000 -0.35059
       4     H     0.44689  0.44689  0.00000  0.10622
       5     H     0.47069  0.47069  0.00000  0.05861
       6     C     2.96359  2.96359  0.00000  0.07282
       7     C     2.96360  2.96360  0.00000  0.07280
       8     H     0.47053  0.47053  0.00000  0.05894
       9     H     0.47060  0.47060  0.00000  0.05881
      10     O     4.17531  4.17531  0.00000 -0.35062
      11     H     0.47064  0.47064  0.00000  0.05872
      12     H     0.47045  0.47045  0.00000  0.05909
      13     C     3.03172  3.03172  0.00000 -0.06345
      14     H     0.47069  0.47069  0.00000  0.05862
      15     H     0.47070  0.47070  0.00000  0.05861
      16     H     0.44689  0.44689  0.00000  0.10622

   Total alpha = 25.00000, Total beta = 25.00000, Total charge = -0.00000

*** Psi4 exiting successfully. Buy a developer a beer!
