                              Psi4 1.0.54 Driver

  ==> Input File <==

--------------------------------------------------------------------------
set {
	reference rhf
	basis cc-pvtz
}

set_num_threads( 4 )
memory 2 gb

molecule MOL {
0 1

H	 -3.268214	 -0.875720	 0.463107
C	 -2.806015	 0.000007	 0.024886
N	 -1.391133	 0.000016	 0.301321
H	 -3.029448	 0.000055	 -1.045738
H	 -3.268126	 0.875758	 0.463150
C	 -0.763189	 1.257482	 -0.042253
C	 -0.706813	 -1.106870	 -0.331168
H	 -0.851168	 1.467968	 -1.112208
H	 -1.264449	 2.056832	 0.490534
C	 0.705160	 1.245868	 0.339622
H	 -1.166906	 -2.033588	 -0.009302
H	 -0.790944	 -1.057557	 -1.420818
C	 0.761537	 -1.118483	 0.050707
H	 1.165253	 2.172586	 0.017756
H	 0.789292	 1.196556	 1.429272
N	 1.389480	 0.138983	 -0.292867
H	 1.262796	 -1.917833	 -0.482080
H	 0.849515	 -1.328969	 1.120663
C	 2.804362	 0.138992	 -0.016432
H	 3.245051	 1.072100	 -0.344557
H	 3.286459	 -0.665954	 -0.556993
H	 3.029278	 0.014408	 1.046606

	symmetry c1
}
set optking {
	frozen_dihedral = ("
		6 3 2 4
	")
}

ee,wfn = optimize('scf', return_wfn=True)
oeprop( wfn, 'DIPOLE', 'QUADRUPOLE', 'MULLIKEN_CHARGES')
f=open( 'psi4out.xyz', 'w' )
f.write( "22  " )
f.write( str(ee) + "\n" )
f.write( MOL.save_string_xyz() )
f.close()
--------------------------------------------------------------------------

    Molecular point group: c1
  Charge       = 0
  Multiplicity = 1
  Basis Set: CC-PVTZ
  Basis Set:
  @DF-RHF Final Energy:  -344.35049935590280
    Total Energy =                       -344.3504993559033664
    Molecular point group: c1
  Basis Set: CC-PVTZ
  Basis Set:
  Basis Set: CC-PVTZ
  Basis Set:
  @DF-RHF Final Energy:  -344.35052901923376
    Total Energy =                       -344.3505290192338180
  Basis Set: CC-PVTZ
  Basis Set:
  Charge       = 0
  Multiplicity = 1
  Basis Set: CC-PVTZ
  Basis Set:

    Orbital Energies (a.u.)
    -----------------------

    Doubly Occupied:

       1A    -15.537689     2A    -15.537172     3A    -11.237619
       4A    -11.237589     5A    -11.236968     6A    -11.236937
       7A    -11.234315     8A    -11.234311     9A     -1.257491
      10A     -1.206487    11A     -1.026108    12A     -0.993065
      13A     -0.912286    14A     -0.868403    15A     -0.836302
      16A     -0.755190    17A     -0.667002    18A     -0.638507
      19A     -0.632533    20A     -0.627487    21A     -0.623205
      22A     -0.582449    23A     -0.550032    24A     -0.546855
      25A     -0.542809    26A     -0.517658    27A     -0.496835
      28A     -0.491197    29A     -0.466829    30A     -0.457507
      31A     -0.352523    32A     -0.346999

  @DF-RHF Final Energy:  -344.35053142861454

   => Energetics <=

    Nuclear Repulsion Energy =            421.9900450430797036
    One-Electron Energy =               -1302.9044426252726225
    Two-Electron Energy =                 536.5638661535787151
    DFT Exchange-Correlation Energy =       0.0000000000000000
    Empirical Dispersion Energy =           0.0000000000000000
    PCM Polarization Energy =               0.0000000000000000
    EFP Energy =                            0.0000000000000000
    Total Energy =                       -344.3505314286142038
    Molecular point group: c1
  Basis Set: CC-PVTZ
  Basis Set:

  -Total Gradient:
     Atom            X                  Y                   Z
    ------   -----------------  -----------------  -----------------
       1        0.000048398097    -0.000008019449    -0.000006104630
       2       -0.000175031378     0.002277344094     0.000345498000
       3        0.000320181984    -0.000999341211    -0.001368568910
       4        0.000016833916    -0.001626297753     0.000013381025
       5        0.000020777903    -0.000010835957     0.000030134062
       6       -0.000163634202     0.000527004415     0.000979126801
       7        0.000054214073    -0.000044814410    -0.000103561139
       8       -0.000021272767    -0.000013329684    -0.000003046384
       9       -0.000006415174    -0.000047728353     0.000020869152
      10       -0.000048267700    -0.000096019578     0.000051182647
      11       -0.000023872902     0.000020917062     0.000025043015
      12        0.000006174830    -0.000010373968     0.000020176005
      13       -0.000036707897     0.000020871282    -0.000008935543
      14       -0.000025761767    -0.000000114160    -0.000009277985
      15        0.000023756782    -0.000000317966     0.000016497299
      16        0.000003109234    -0.000007361036    -0.000002057567
      17       -0.000000211140    -0.000008342755    -0.000002484772
      18       -0.000004882136     0.000005784005    -0.000005013484
      19        0.000006800387     0.000014588972     0.000010747746
      20        0.000009034552     0.000004334607     0.000000202476
      21       -0.000003512532     0.000001943002    -0.000002324548
      22        0.000000287835     0.000000108840    -0.000001483267

  **** Optimization is complete! (in 3 steps) ****
    Final optimized geometry and variables:
    Molecular point group: c1

    Geometry (in Angstrom), charge = 0, multiplicity = 1:

    H           -3.258086828038    -0.954035123461     0.455746583181
    C           -2.806342242703    -0.068298840860     0.025092211814
    N           -1.389643714537    -0.063477635633     0.290445569956
    H           -3.038928439792    -0.066042979227    -1.043583508760
    H           -3.272305305917     0.797263190366     0.477864179784
    C           -0.759543098294     1.192966205867    -0.050832759502
    C           -0.707950549483    -1.176111605739    -0.332265181253
    H           -0.844947402721     1.407493584306    -1.120430526986
    H           -1.258781832479     1.991895216827     0.484148004897
    C            0.708426580000     1.175834880752     0.332992069886
    H           -1.171896805232    -2.099160692967    -0.004543798558
    H           -0.791042818807    -1.134500062149    -1.422391979669
    C            0.760001461845    -1.189277806083     0.051003773694
    H            1.172387328489     2.100669075971     0.011030615809
    H            0.790598761487     1.127345650350     1.422955857528
    N            1.390111290097     0.065845757984    -0.296778370873
    H            1.260352370757    -1.991668224925    -0.478235827717
    H            0.846785955862    -1.395778842283     1.121896167980
    C            2.805065652409     0.064011370763    -0.021434199837
    H            3.247366531070     0.995292911280    -0.352760606286
    H            3.285308036614    -0.743570804433    -0.559818664425
    H            3.030768261960    -0.057678476482     1.041867160301

  Mulliken Charges: (a.u.)
   Center  Symbol    Alpha    Beta     Spin     Total
       1     H     0.45168  0.45168  0.00000  0.09664
       2     C     3.09830  3.09830  0.00000 -0.19661
       3     N     3.61299  3.61299  0.00000 -0.22597
       4     H     0.46985  0.46985  0.00000  0.06030
       5     H     0.45239  0.45239  0.00000  0.09522
       6     C     3.03465  3.03465  0.00000 -0.06930
       7     C     3.03559  3.03559  0.00000 -0.07117
       8     H     0.46873  0.46873  0.00000  0.06254
       9     H     0.45375  0.45375  0.00000  0.09250
      10     C     3.03565  3.03565  0.00000 -0.07131
      11     H     0.45398  0.45398  0.00000  0.09203
      12     H     0.46775  0.46775  0.00000  0.06449
      13     C     3.03540  3.03540  0.00000 -0.07079
      14     H     0.45384  0.45384  0.00000  0.09232
      15     H     0.46813  0.46813  0.00000  0.06373
      16     N     3.61311  3.61311  0.00000 -0.22622
      17     H     0.45380  0.45380  0.00000  0.09239
      18     H     0.46806  0.46806  0.00000  0.06387
      19     C     3.09840  3.09840  0.00000 -0.19680
      20     H     0.45193  0.45193  0.00000  0.09615
      21     H     0.45194  0.45194  0.00000  0.09612
      22     H     0.47008  0.47008  0.00000  0.05985

   Total alpha = 32.00000, Total beta = 32.00000, Total charge =  0.00000

*** Psi4 exiting successfully. Buy a developer a beer!
