  ==> Input File <==

--------------------------------------------------------------------------
set {
	reference rhf
	basis 6-31G*
}

set_num_threads( 4 )
memory 2 gb

molecule MOL {
0 1

H	 -2.828313	 -0.665273	 0.906338
C	 -2.764861	 -0.307269	 -0.119308
O	 -1.442712	 -0.153324	 -0.523736
H	 -3.223211	 -1.036092	 -0.773429
H	 -3.317973	 0.628177	 -0.193031
C	 -0.719715	 0.768384	 0.229244
C	 0.719720	 0.768376	 -0.229267
H	 -1.135920	 1.768729	 0.103628
H	 -0.758865	 0.519212	 1.287726
O	 1.392611	 -0.295398	 0.366430
H	 0.750534	 0.687200	 -1.313918
H	 1.185043	 1.714359	 0.050526
C	 2.706965	 -0.449871	 -0.062409
H	 2.756559	 -0.644779	 -1.131878
H	 3.305899	 0.433456	 0.155466
H	 3.125548	 -1.294566	 0.467107

	symmetry c1
}
set optking {
	frozen_dihedral = ("
		3 6 7 11
	")
}

ee = optimize('scf')
oeprop('DIPOLE', 'QUADRUPOLE', 'MULLIKEN_CHARGES')
f=open( 'psi4out.xyz', 'w' )
f.write( "16  " )
f.write( str(ee) + "\n" )
f.write( MOL.save_string_xyz() )
f.close()
--------------------------------------------------------------------------

    Molecular point group: c1
  Charge       = 0
  Multiplicity = 1
  Basis Set: 6-31G*
  Basis Set:
  @DF-RHF Final Energy:  -306.97728623915179
    Total Energy =                       -306.9772862391515673
    Molecular point group: c1
  Basis Set: 6-31G*
  Basis Set:
  Basis Set: 6-31G*
  Basis Set:
  @DF-RHF Final Energy:  -306.97734018502530
    Total Energy =                       -306.9773401850252412
  Basis Set: 6-31G*
  Basis Set:
  Basis Set: 6-31G*
  Basis Set:
  @DF-RHF Final Energy:  -306.97735304610779
    Total Energy =                       -306.9773530461079076
  Basis Set: 6-31G*
  Basis Set:
  Charge       = 0
  Multiplicity = 1
  Basis Set: 6-31G*
  Basis Set:

    Orbital Energies (a.u.)
    -----------------------

    Doubly Occupied:

       1A    -20.554181     2A    -20.553642     3A    -11.268765
       4A    -11.268108     5A    -11.263852     6A    -11.263599
       7A     -1.387616     8A     -1.371026     9A     -1.030331
      10A     -0.936491    11A     -0.890459    12A     -0.825589
      13A     -0.683128    14A     -0.681304    15A     -0.656509
      16A     -0.633813    17A     -0.632136    18A     -0.597673
      19A     -0.546090    20A     -0.539487    21A     -0.508813
      22A     -0.478013    23A     -0.462815    24A     -0.420939
      25A     -0.410235

  @DF-RHF Final Energy:  -306.97735336202476

   => Energetics <=

    Nuclear Repulsion Energy =            258.2613016059527240
    One-Electron Energy =                -930.7480792329121186
    Two-Electron Energy =                 365.5094242649347507
    DFT Exchange-Correlation Energy =       0.0000000000000000
    Empirical Dispersion Energy =           0.0000000000000000
    PCM Polarization Energy =               0.0000000000000000
    EFP Energy =                            0.0000000000000000
    Total Energy =                       -306.9773533620245871
    Molecular point group: c1
  Basis Set: 6-31G*
  Basis Set:

  -Total Gradient:
     Atom            X                  Y                   Z
    ------   -----------------  -----------------  -----------------
       1        0.000004769151     0.000003776962    -0.000004421558
       2       -0.000021295462    -0.000027850630    -0.000032196682
       3       -0.000352667253     0.001234099469    -0.001116388694
       4       -0.000022990061    -0.000004254266     0.000008038584
       5        0.000000486213     0.000001619204     0.000006083634
       6        0.000480619534    -0.002092393772     0.001526718264
       7       -0.000123429616     0.003079520388    -0.000546949844
       8       -0.000007349039     0.000016089444     0.000014396656
       9       -0.000010985183    -0.000012188592    -0.000012532132
      10       -0.000018575532     0.000039862642    -0.000018338598
      11        0.000048172427    -0.002212435593     0.000178796540
      12       -0.000001815577    -0.000004316415    -0.000001465646
      13        0.000025368155    -0.000025310210     0.000001672441
      14        0.000004622765     0.000001566041     0.000000124806
      15       -0.000007413890    -0.000000849153    -0.000000178990
      16        0.000002483368     0.000003064480    -0.000003358782

  **** Optimization is complete! (in 4 steps) ****
    Final optimized geometry and variables:
    Molecular point group: c1

    Geometry (in Angstrom), charge = 0, multiplicity = 1:

    H           -2.799754600722    -0.725941312112     0.962194361349
    C           -2.738281119687    -0.366918572157    -0.063143716746
    O           -1.416999486076    -0.201094308021    -0.466430555161
    H           -3.190239834808    -1.098931085159    -0.718187356431
    H           -3.298460977670     0.564224615088    -0.136750375666
    C           -0.703472687572     0.730779275387     0.285684107831
    C            0.740042829344     0.734112671105    -0.166387285398
    H           -1.130505272134     1.724620381007     0.146694377152
    H           -0.745606087202     0.492566011231     1.345837418616
    O            1.404435336194    -0.341179704392     0.424311103421
    H            0.770472484826     0.645303371688    -1.249727815956
    H            1.215621520131     1.672322897410     0.118852889551
    C            2.715670253372    -0.508189239692    -0.009572829292
    H            2.759814405595    -0.700448742801    -1.079759207801
    H            3.323977570811     0.368548544613     0.208543866366
    H            3.127872265960    -1.358441236972     0.516144736193

  Mulliken Charges: (a.u.)
   Center  Symbol    Alpha    Beta     Spin     Total
       1     H     0.42779  0.42779  0.00000  0.14441
       2     C     3.07966  3.07966  0.00000 -0.15932
       3     O     4.30265  4.30265  0.00000 -0.60530
       4     H     0.41143  0.41143  0.00000  0.17714
       5     H     0.43169  0.43169  0.00000  0.13662
       6     C     2.99408  2.99408  0.00000  0.01183
       7     C     2.99434  2.99434  0.00000  0.01132
       8     H     0.43215  0.43215  0.00000  0.13570
       9     H     0.42045  0.42045  0.00000  0.15911
      10     O     4.30307  4.30307  0.00000 -0.60614
      11     H     0.42032  0.42032  0.00000  0.15935
      12     H     0.43145  0.43145  0.00000  0.13709
      13     C     3.07957  3.07957  0.00000 -0.15913
      14     H     0.42803  0.42803  0.00000  0.14394
      15     H     0.43181  0.43181  0.00000  0.13638
      16     H     0.41150  0.41150  0.00000  0.17699

   Total alpha = 25.00000, Total beta = 25.00000, Total charge = -0.00000
