  ==> Input File <==

--------------------------------------------------------------------------
set {
	reference rhf
	basis 6-31G*
}

set_num_threads( 4 )
memory 2 gb

molecule MOL {
0 1

O	 -0.291628	 1.323815	 -0.000732
C	 -0.449655	 0.146360	 0.000961
C	 -1.783294	 -0.549321	 -0.000296
O	 0.550821	 -0.724572	 0.000672
H	 -1.863538	 -1.185371	 -0.874187
H	 -2.574672	 0.185258	 -0.002793
H	 -1.866414	 -1.182381	 0.875436
C	 0.218702	 -2.083597	 0.222099
H	 -0.248511	 -2.207514	 1.188386
H	 1.151195	 -2.624740	 0.185076
H	 -0.452435	 -2.440098	 -0.545901

	symmetry c1
}
set optking {
	frozen_dihedral = ("
		8 4 2 1
	")
}

ee = optimize('scf')
oeprop('DIPOLE', 'QUADRUPOLE', 'MULLIKEN_CHARGES')
f=open( 'psi4out.xyz', 'w' )
f.write( "11  " )
f.write( str(ee) + "\n" )
f.write( MOL.save_string_xyz() )
f.close()
--------------------------------------------------------------------------

    Molecular point group: c1
  Charge       = 0
  Multiplicity = 1
  Basis Set: 6-31G*
  Basis Set:
  @DF-RHF Final Energy:  -266.81051583844135
    Total Energy =                       -266.8105158384414040
    Molecular point group: c1
  Basis Set: 6-31G*
  Basis Set:
  Basis Set: 6-31G*
  Basis Set:
  @DF-RHF Final Energy:  -266.80905958594951
    Total Energy =                       -266.8090595859495124
  Basis Set: 6-31G*
  Basis Set:
  Basis Set: 6-31G*
  Basis Set:
  @DF-RHF Final Energy:  -266.81831699292019
    Total Energy =                       -266.8183169929202450
  Basis Set: 6-31G*
  Basis Set:
  Basis Set: 6-31G*
  Basis Set:
  @DF-RHF Final Energy:  -266.82057603981696
    Total Energy =                       -266.8205760398167286
  Basis Set: 6-31G*
  Basis Set:
  @DF-RHF Final Energy:  -266.82008447565312
    Total Energy =                       -266.8200844756534025
  @DF-RHF Final Energy:  -266.82073058627645
    Total Energy =                       -266.8207305862764542
  Basis Set: 6-31G*
  Basis Set:
  @DF-RHF Final Energy:  -266.82127219620179
    Total Energy =                       -266.8212721962016758
  Basis Set: 6-31G*
  Basis Set:
  Basis Set: 6-31G*
  Basis Set:
  @DF-RHF Final Energy:  -266.82127654093949
    Total Energy =                       -266.8212765409397775
  Basis Set: 6-31G*
  Basis Set:
  Basis Set: 6-31G*
  Basis Set:
  @DF-RHF Final Energy:  -266.82127869307033
    Total Energy =                       -266.8212786930700986
  Basis Set: 6-31G*
  Basis Set:
  Charge       = 0
  Multiplicity = 1
  Basis Set: 6-31G*
  Basis Set:

    Orbital Energies (a.u.)
    -----------------------

    Doubly Occupied:

       1A    -20.604699     2A    -20.540750     3A    -11.378258
       4A    -11.298777     5A    -11.244932     6A     -1.465587
       7A     -1.367087     8A     -1.022997     9A     -0.986034
      10A     -0.784811    11A     -0.699218    12A     -0.687150
      13A     -0.678544    14A     -0.601794    15A     -0.595729
      16A     -0.577957    17A     -0.546954    18A     -0.516774
      19A     -0.448392    20A     -0.436046

  @DF-RHF Final Energy:  -266.82127884226145

   => Energetics <=

    Nuclear Repulsion Energy =            182.8377267231329029
    One-Electron Energy =                -726.3530308185656850
    Two-Electron Energy =                 276.6940252531716737
    DFT Exchange-Correlation Energy =       0.0000000000000000
    Empirical Dispersion Energy =           0.0000000000000000
    PCM Polarization Energy =               0.0000000000000000
    EFP Energy =                            0.0000000000000000
    Total Energy =                       -266.8212788422611652
    Molecular point group: c1
  Basis Set: 6-31G*
  Basis Set:

  -Total Gradient:
     Atom            X                  Y                   Z
    ------   -----------------  -----------------  -----------------
       1       -0.000026630644     0.000033022293     0.001066184989
       2        0.000097692207     0.000044584259    -0.001007648348
       3        0.000002280031     0.000005729958     0.000018814001
       4       -0.000182315526    -0.000196206970    -0.000990266888
       5        0.000004705156     0.000001163424    -0.000007406156
       6       -0.000002659810     0.000001052724    -0.000001591251
       7        0.000003401936    -0.000001156137    -0.000010312242
       8        0.000108499099     0.000124442517     0.000930654828
       9       -0.000001944251    -0.000007791285     0.000000228867
      10       -0.000003871554    -0.000008173532    -0.000001346949
      11        0.000000843356     0.000003332749     0.000002689148

  **** Optimization is complete! (in 10 steps) ****
    Final optimized geometry and variables:
    Molecular point group: c1

    Geometry (in Angstrom), charge = 0, multiplicity = 1:

    O            0.089957084267     1.685799797521    -0.051171115967
    C           -0.138218036217     0.524821708417    -0.043800901914
    C           -1.544046487684    -0.031463422292    -0.059188987549
    O            0.878054925170    -0.340994926815    -0.036827018736
    H           -1.703466942857    -0.655006317098    -0.932042629447
    H           -2.231203562134     0.800069780168    -0.083584012491
    H           -1.742233451575    -0.633103373101     0.820639523623
    C            0.698002713425    -1.720502188166     0.177951429407
    H            0.266156601716    -1.916798343442     1.151622366244
    H            1.684390857816    -2.155227740780     0.137759235550
    H            0.082740195496    -2.171570992860    -0.590354441062

  Mulliken Charges: (a.u.)
   Center  Symbol    Alpha    Beta     Spin     Total
       1     O     4.26428  4.26428  0.00000 -0.52856
       2     C     2.61500  2.61500  0.00000  0.77000
       3     C     3.30917  3.30917  0.00000 -0.61834
       4     O     4.29521  4.29521  0.00000 -0.59041
       5     H     0.40201  0.40201  0.00000  0.19599
       6     H     0.38684  0.38684  0.00000  0.22632
       7     H     0.40359  0.40359  0.00000  0.19282
       8     C     3.09338  3.09338  0.00000 -0.18676
       9     H     0.41602  0.41602  0.00000  0.16795
      10     H     0.39731  0.39731  0.00000  0.20538
      11     H     0.41719  0.41719  0.00000  0.16561

   Total alpha = 20.00000, Total beta = 20.00000, Total charge =  0.00000
