  ==> Input File <==

--------------------------------------------------------------------------
set {
	reference rhf
	basis cc-pvtz
}

set_num_threads( 4 )
memory 2 gb

molecule MOL {
0 1

O	 1.847685	 1.294399	 -0.000190
C	 1.704209	 0.119472	 -0.000093
C	 0.380337	 -0.600947	 -0.000234
O	 2.715427	 -0.733672	 0.000025
C	 -0.824290	 0.329213	 -0.000115
H	 0.371455	 -1.255476	 -0.865660
H	 0.371410	 -1.255787	 0.864952
C	 -2.146151	 -0.432825	 -0.000068
H	 -0.773936	 0.979158	 -0.866319
H	 -0.773838	 0.979034	 0.866186
C	 -3.366283	 0.483552	 0.000557
H	 -2.189286	 -1.084450	 -0.869996
H	 -2.188867	 -1.085083	 0.869399
C	 -4.683260	 -0.272347	 -0.139448
H	 -3.274842	 1.201764	 -0.809361
H	 -3.378641	 1.062390	 0.919770
H	 -4.715600	 -0.834498	 -1.066904
H	 -5.527841	 0.406919	 -0.135600
H	 -4.820413	 -0.974692	 0.676110
C	 4.020999	 -0.192556	 0.000019
H	 4.182809	 0.412891	 -0.879449
H	 4.692590	 -1.035653	 0.000152
H	 4.182726	 0.413087	 0.879368

	symmetry c1
}
set optking {
	frozen_dihedral = ("
		15 11 8 12
	")
}

ee = optimize('scf')
oeprop('DIPOLE', 'QUADRUPOLE', 'MULLIKEN_CHARGES')
f=open( 'psi4out.xyz', 'w' )
f.write( "23  " )
f.write( str(ee) + "\n" )
f.write( MOL.save_string_xyz() )
f.close()
--------------------------------------------------------------------------

    Molecular point group: c1
  Charge       = 0
  Multiplicity = 1
  Basis Set: CC-PVTZ
  Basis Set:
  @DF-RHF Final Energy:  -423.13097246987070
    Total Energy =                       -423.1309724698702439
    Molecular point group: c1
  Basis Set: CC-PVTZ
  Basis Set:
  Basis Set: CC-PVTZ
  Basis Set:
  @DF-RHF Final Energy:  -423.13098579141075
    Total Energy =                       -423.1309857914109216
  Basis Set: CC-PVTZ
  Basis Set:
  Basis Set: CC-PVTZ
  Basis Set:
  @DF-RHF Final Energy:  -423.13099388907705
    Total Energy =                       -423.1309938890769899
  Basis Set: CC-PVTZ
  Basis Set:
  Charge       = 0
  Multiplicity = 1
  Basis Set: CC-PVTZ
  Basis Set:

    Orbital Energies (a.u.)
    -----------------------

    Doubly Occupied:

       1A    -20.596301     2A    -20.534116     3A    -11.364557
       4A    -11.278475     5A    -11.233797     6A    -11.217253
       7A    -11.215786     8A    -11.214468     9A    -11.207840
      10A     -1.472194    11A     -1.365772    12A     -1.094513
      13A     -1.044804    14A     -0.988093    15A     -0.932771
      16A     -0.844238    17A     -0.795714    18A     -0.769316
      19A     -0.699134    20A     -0.686902    21A     -0.675382
      22A     -0.652467    23A     -0.609635    24A     -0.601104
      25A     -0.573720    26A     -0.560468    27A     -0.557304
      28A     -0.525283    29A     -0.522146    30A     -0.508440
      31A     -0.484908    32A     -0.470626    33A     -0.466619
      34A     -0.463389    35A     -0.458978    36A     -0.438450

  @DF-RHF Final Energy:  -423.13099392648411

   => Energetics <=

    Nuclear Repulsion Energy =            452.8883063827328783
    One-Electron Energy =               -1473.7886742174669052
    Two-Electron Energy =                 597.7693739082503726
    DFT Exchange-Correlation Energy =       0.0000000000000000
    Empirical Dispersion Energy =           0.0000000000000000
    PCM Polarization Energy =               0.0000000000000000
    EFP Energy =                            0.0000000000000000
    Total Energy =                       -423.1309939264835975
    Molecular point group: c1
  Basis Set: CC-PVTZ
  Basis Set:

  -Total Gradient:
     Atom            X                  Y                   Z
    ------   -----------------  -----------------  -----------------
       1       -0.000001765088    -0.000000810784     0.000061100418
       2       -0.000000442999    -0.000000361000    -0.000161784804
       3       -0.000002910032    -0.000001840561     0.000064247703
       4        0.000000491924    -0.000000671502     0.000049001908
       5        0.000003302983     0.000003936698    -0.000040866754
       6        0.000006118970     0.000013078872     0.000003524183
       7       -0.000006008275    -0.000009845619    -0.000000030313
       8        0.000798032133     0.001079254847    -0.000555699302
       9        0.000002990513    -0.000001035690     0.000001716525
      10       -0.000011560280    -0.000008101545    -0.000002772848
      11       -0.000779506737    -0.001023172519    -0.000663360470
      12       -0.000537793583    -0.000735645964     0.000582603383
      13       -0.000004427350    -0.000005166125    -0.000001820095
      14       -0.000008505618    -0.000005139006    -0.000015571352
      15        0.000515011123     0.000676546027     0.000675991612
      16       -0.000000679443     0.000007123512     0.000001244883
      17       -0.000001012365     0.000004201977     0.000015094974
      18        0.000016296761    -0.000008573752    -0.000002434488
      19        0.000008613860     0.000016871594    -0.000011100456
      20        0.000005337485     0.000000406353    -0.000001270455
      21       -0.000001700100    -0.000001599870     0.000002261281
      22       -0.000000176431     0.000001335744     0.000001143720
      23        0.000000292549    -0.000000791679    -0.000001219253

  **** Optimization is complete! (in 4 steps) ****
    Final optimized geometry and variables:
    Molecular point group: c1

    Geometry (in Angstrom), charge = 0, multiplicity = 1:

    O            1.847603620981     1.293728617462     0.012074063610
    C            1.704070094165     0.118804818747     0.015774746997
    C            0.380190349306    -0.601514991167     0.012455709011
    O            2.715287053543    -0.734355687021     0.024676164026
    C           -0.824201249228     0.328854919046     0.003097403983
    H            0.375185331315    -1.259442023233    -0.850422294908
    H            0.367278668610    -1.252807649309     0.880229383963
    C           -2.145896264153    -0.432556462058    -0.002471840447
    H           -0.768775282768     0.976501658902    -0.864416920640
    H           -0.778796173952     0.980935684111     0.868078865589
    C           -3.367414661176     0.482259362382     0.012703354746
    H           -2.193461801598    -1.081079600319    -0.874533976389
    H           -2.187611527777    -1.092758998313     0.861286962695
    C           -4.686016194445    -0.273441606855    -0.106327783334
    H           -3.285527249649     1.205298703687    -0.793963582978
    H           -3.365649315152     1.060763988832     0.932456555490
    H           -4.737599604370    -0.826980954517    -1.037973831857
    H           -5.530946853693     0.404739641341    -0.077735059849
    H           -4.804813244057    -0.983507480900     0.705482767570
    C            4.020794590709    -0.193293481183     0.029233434199
    H            4.187290204620     0.408521533282    -0.851864769168
    H            4.692405635094    -1.036363539447     0.036338184547
    H            4.178054383528     0.415983661525     0.906893792133

  Mulliken Charges: (a.u.)
   Center  Symbol    Alpha    Beta     Spin     Total
       1     O     4.19703  4.19703  0.00000 -0.39406
       2     C     2.80689  2.80689  0.00000  0.38621
       3     C     3.10123  3.10123  0.00000 -0.20245
       4     O     4.14646  4.14646  0.00000 -0.29293
       5     C     3.08318  3.08318  0.00000 -0.16635
       6     H     0.44010  0.44010  0.00000  0.11981
       7     H     0.44009  0.44009  0.00000  0.11982
       8     C     3.08948  3.08948  0.00000 -0.17896
       9     H     0.44631  0.44631  0.00000  0.10739
      10     H     0.44637  0.44637  0.00000  0.10726
      11     C     3.08403  3.08403  0.00000 -0.16806
      12     H     0.45603  0.45603  0.00000  0.08794
      13     H     0.45571  0.45571  0.00000  0.08859
      14     C     3.15029  3.15029  0.00000 -0.30057
      15     H     0.45344  0.45344  0.00000  0.09311
      16     H     0.45326  0.45326  0.00000  0.09348
      17     H     0.45524  0.45524  0.00000  0.08951
      18     H     0.44772  0.44772  0.00000  0.10457
      19     H     0.45531  0.45531  0.00000  0.08938
      20     C     3.03780  3.03780  0.00000 -0.07560
      21     H     0.45435  0.45435  0.00000  0.09129
      22     H     0.44534  0.44534  0.00000  0.10933
      23     H     0.45435  0.45435  0.00000  0.09130

   Total alpha = 36.00000, Total beta = 36.00000, Total charge = -0.00000
