  ==> Input File <==

--------------------------------------------------------------------------
set {
	reference rhf
	basis cc-pvtz
}

set_num_threads( 4 )
memory 2 gb

molecule MOL {
0 1

H	 -3.863318	 0.392480	 1.378525
O	 -3.155188	 -0.163215	 1.110289
C	 -2.302264	 0.528872	 0.237390
C	 -1.175688	 -0.398187	 -0.171891
H	 -2.847350	 0.861101	 -0.643676
H	 -1.895919	 1.413262	 0.723772
C	 0.196029	 0.106276	 0.266738
H	 -1.201873	 -0.515469	 -1.250677
H	 -1.365975	 -1.378728	 0.252664
C	 1.330220	 -0.826136	 -0.155230
H	 0.359542	 1.097229	 -0.145561
H	 0.212134	 0.218135	 1.348778
C	 2.719700	 -0.407669	 0.328325
H	 1.339388	 -0.911200	 -1.239363
H	 1.119001	 -1.821953	 0.224128
C	 3.241564	 0.893452	 -0.276737
H	 3.418299	 -1.204729	 0.093035
H	 2.711776	 -0.323368	 1.411960
H	 3.254204	 0.841071	 -1.360784
H	 2.634460	 1.745075	 0.005842
H	 4.254264	 1.092401	 0.054971

	symmetry c1
}
set optking {
	frozen_dihedral = ("
		2 3 4 8
	")
}

ee = optimize('scf')
oeprop('DIPOLE', 'QUADRUPOLE', 'MULLIKEN_CHARGES')
f=open( 'psi4out.xyz', 'w' )
f.write( "21  " )
f.write( str(ee) + "\n" )
f.write( MOL.save_string_xyz() )
f.close()
--------------------------------------------------------------------------

    Molecular point group: c1
  Charge       = 0
  Multiplicity = 1
  Basis Set: CC-PVTZ
  Basis Set:
  @DF-RHF Final Energy:  -310.32691340051599
    Total Energy =                       -310.3269134005161050
    Molecular point group: c1
  Basis Set: CC-PVTZ
  Basis Set:
  Basis Set: CC-PVTZ
  Basis Set:
  @DF-RHF Final Energy:  -310.32726717004618
    Total Energy =                       -310.3272671700458432
  Basis Set: CC-PVTZ
  Basis Set:
  Basis Set: CC-PVTZ
  Basis Set:
  @DF-RHF Final Energy:  -310.32738283638423
    Total Energy =                       -310.3273828363840039
  Basis Set: CC-PVTZ
  Basis Set:
  Basis Set: CC-PVTZ
  Basis Set:
  @DF-RHF Final Energy:  -310.32738175957735
    Total Energy =                       -310.3273817595778610
  Basis Set: CC-PVTZ
  Basis Set:
  Basis Set: CC-PVTZ
  Basis Set:
  @DF-RHF Final Energy:  -310.32738431290176
    Total Energy =                       -310.3273843129013585
  Basis Set: CC-PVTZ
  Basis Set:
  Charge       = 0
  Multiplicity = 1
  Basis Set: CC-PVTZ
  Basis Set:

    Orbital Energies (a.u.)
    -----------------------

    Doubly Occupied:

       1A    -20.545133     2A    -11.265315     3A    -11.211960
       4A    -11.210939     5A    -11.209609     6A    -11.208880
       7A    -11.205290     8A     -1.362127     9A     -1.085195
      10A     -1.031589    11A     -0.953982    12A     -0.876688
      13A     -0.807500    14A     -0.777847    15A     -0.704131
      16A     -0.642388    17A     -0.631840    18A     -0.602929
      19A     -0.586036    20A     -0.572702    21A     -0.535940
      22A     -0.524434    23A     -0.508701    24A     -0.485697
      25A     -0.482689    26A     -0.460201    27A     -0.454885
      28A     -0.448433    29A     -0.426769

  @DF-RHF Final Energy:  -310.32738453607624

   => Energetics <=

    Nuclear Repulsion Energy =            313.5710350226597711
    One-Electron Energy =               -1042.1571810815339632
    Two-Electron Energy =                 418.2587615227981814
    DFT Exchange-Correlation Energy =       0.0000000000000000
    Empirical Dispersion Energy =           0.0000000000000000
    PCM Polarization Energy =               0.0000000000000000
    EFP Energy =                            0.0000000000000000
    Total Energy =                       -310.3273845360760106
    Molecular point group: c1
  Basis Set: CC-PVTZ
  Basis Set:

  -Total Gradient:
     Atom            X                  Y                   Z
    ------   -----------------  -----------------  -----------------
       1       -0.000013047217    -0.000004043834     0.000009573010
       2       -0.000318906927    -0.000168640489    -0.000494537316
       3        0.000329434409     0.000087102205     0.000624622392
       4        0.000503043862     0.000732833634    -0.000241915533
       5       -0.000006089579    -0.000002517501     0.000004583644
       6       -0.000006256801     0.000000273843     0.000006060255
       7       -0.000015619954    -0.000006188428     0.000013430551
       8       -0.000480173287    -0.000636402892     0.000085275963
       9        0.000003337277    -0.000000517588     0.000002567925
      10        0.000000390581     0.000004736332    -0.000012079124
      11       -0.000008782793    -0.000004791830     0.000003939448
      12       -0.000001446244    -0.000003221569     0.000001323129
      13        0.000002649827     0.000000054973     0.000000218615
      14        0.000000752804    -0.000002726618    -0.000001766162
      15        0.000004425297     0.000005816750    -0.000000372945
      16        0.000002233597    -0.000000190201    -0.000001642610
      17        0.000002781439    -0.000000246553     0.000001917229
      18       -0.000002664493     0.000000921840     0.000000344770
      19       -0.000000817953     0.000001394681    -0.000001518643
      20        0.000004248064    -0.000001884844     0.000000932460
      21        0.000000508087    -0.000001761908    -0.000000957059

  **** Optimization is complete! (in 6 steps) ****
    Final optimized geometry and variables:
    Molecular point group: c1

    Geometry (in Angstrom), charge = 0, multiplicity = 1:

    H           -3.929277677378     0.394355315407     1.193716182392
    O           -3.220817549347    -0.155619634785     0.913780072235
    C           -2.383873805568     0.551540075290     0.032405349149
    C           -1.228141678687    -0.359215900529    -0.393774212891
    H           -2.951257469673     0.876494532649    -0.834929071991
    H           -1.998857673699     1.443173068945     0.520113380755
    C            0.146134842729     0.140420822233     0.045262420106
    H           -1.239244863551    -0.490625220190    -1.470858610527
    H           -1.414560132570    -1.336463328547     0.034813954908
    C            1.277069897563    -0.798954814640    -0.366695170524
    H            0.314637564604     1.129153382117    -0.370924305078
    H            0.151074889877     0.257064665661     1.126505231146
    C            2.666358391477    -0.386927921319     0.123288753180
    H            1.292794122737    -0.888869400767    -1.450727420880
    H            1.057563477309    -1.791963296048     0.015449175337
    C            3.200335409837     0.907565103435    -0.485283254561
    H            3.361528989039    -1.189485554575    -0.103323423463
    H            2.651811901874    -0.296757152739     1.206245948815
    H            3.219014566004     0.849571942023    -1.569003421340
    H            2.597170815032     1.764491449276    -0.210526455118
    H            4.212389805713     1.101598826757    -0.148695668058

  Mulliken Charges: (a.u.)
   Center  Symbol    Alpha    Beta     Spin     Total
       1     H     0.39563  0.39563  0.00000  0.20873
       2     O     4.19760  4.19760  0.00000 -0.39520
       3     C     2.96530  2.96530  0.00000  0.06941
       4     C     3.09092  3.09092  0.00000 -0.18183
       5     H     0.47231  0.47231  0.00000  0.05539
       6     H     0.47559  0.47559  0.00000  0.04882
       7     C     3.09950  3.09950  0.00000 -0.19901
       8     H     0.45265  0.45265  0.00000  0.09470
       9     H     0.44476  0.44476  0.00000  0.11048
      10     C     3.09652  3.09652  0.00000 -0.19305
      11     H     0.45408  0.45408  0.00000  0.09184
      12     H     0.45105  0.45105  0.00000  0.09790
      13     C     3.08993  3.08993  0.00000 -0.17986
      14     H     0.45457  0.45457  0.00000  0.09086
      15     H     0.44811  0.44811  0.00000  0.10377
      16     C     3.15235  3.15235  0.00000 -0.30470
      17     H     0.44869  0.44869  0.00000  0.10263
      18     H     0.45445  0.45445  0.00000  0.09111
      19     H     0.45517  0.45517  0.00000  0.08965
      20     H     0.45426  0.45426  0.00000  0.09147
      21     H     0.44655  0.44655  0.00000  0.10690

   Total alpha = 29.00000, Total beta = 29.00000, Total charge =  0.00000
