  ==> Input File <==

--------------------------------------------------------------------------
set {
	reference rhf
	basis 6-31G*
}

set_num_threads( 4 )
memory 2 gb

molecule MOL {
0 1

O	 0.749854	 1.307668	 -0.000040
C	 0.576249	 0.131685	 -0.000108
C	 -0.766779	 -0.556801	 -0.000461
O	 1.568443	 -0.749345	 -0.000005
C	 -1.945214	 0.412366	 0.000161
H	 -0.796911	 -1.211249	 -0.867467
H	 -0.796854	 -1.212390	 0.865687
C	 -1.851003	 1.430701	 -1.135043
H	 -1.986407	 0.925269	 0.955062
H	 -2.870006	 -0.148553	 -0.081713
H	 -0.946584	 2.027704	 -1.057156
H	 -2.696928	 2.110022	 -1.116727
H	 -1.841119	 0.942075	 -2.105414
C	 2.886820	 -0.232538	 0.000322
H	 3.059106	 0.369571	 -0.880203
H	 3.540187	 -1.091012	 0.000050
H	 3.059019	 0.368956	 0.881266

	symmetry c1
}
set optking {
	frozen_dihedral = ("
		9 5 3 6
	")
}

ee = optimize('scf')
oeprop('DIPOLE', 'QUADRUPOLE', 'MULLIKEN_CHARGES')
f=open( 'psi4out.xyz', 'w' )
f.write( "17  " )
f.write( str(ee) + "\n" )
f.write( MOL.save_string_xyz() )
f.close()
--------------------------------------------------------------------------

    Molecular point group: c1
  Charge       = 0
  Multiplicity = 1
  Basis Set: 6-31G*
  Basis Set:
  @DF-RHF Final Energy:  -344.90115930061921
    Total Energy =                       -344.9011593006189287
    Molecular point group: c1
  Basis Set: 6-31G*
  Basis Set:
  Basis Set: 6-31G*
  Basis Set:
  @DF-RHF Final Energy:  -344.90470748350947
    Total Energy =                       -344.9047074835096964
  Basis Set: 6-31G*
  Basis Set:
  Basis Set: 6-31G*
  Basis Set:
  @DF-RHF Final Energy:  -344.90503597237057
    Total Energy =                       -344.9050359723703423
  Basis Set: 6-31G*
  Basis Set:
  Basis Set: 6-31G*
  Basis Set:
  @DF-RHF Final Energy:  -344.90384591651997
    Total Energy =                       -344.9038459165201402
  Basis Set: 6-31G*
  Basis Set:
  @DF-RHF Final Energy:  -344.90551187050295
    Total Energy =                       -344.9055118705030623
  Basis Set: 6-31G*
  Basis Set:
  @DF-RHF Final Energy:  -344.90560144830380
    Total Energy =                       -344.9056014483038552
  Basis Set: 6-31G*
  Basis Set:
  Basis Set: 6-31G*
  Basis Set:
  @DF-RHF Final Energy:  -344.90562794123451
    Total Energy =                       -344.9056279412347408
  Basis Set: 6-31G*
  Basis Set:
  Basis Set: 6-31G*
  Basis Set:
  @DF-RHF Final Energy:  -344.90563031193631
    Total Energy =                       -344.9056303119363633
  Basis Set: 6-31G*
  Basis Set:
  Charge       = 0
  Multiplicity = 1
  Basis Set: 6-31G*
  Basis Set:

    Orbital Energies (a.u.)
    -----------------------

    Doubly Occupied:

       1A    -20.605296     2A    -20.545444     3A    -11.373439
       4A    -11.281520     5A    -11.236087     6A    -11.223940
       7A    -11.207571     8A     -1.470565     9A     -1.363363
      10A     -1.078796    11A     -0.999480    12A     -0.939456
      13A     -0.830595    14A     -0.766236    15A     -0.699669
      16A     -0.681722    17A     -0.671344    18A     -0.623680
      19A     -0.612667    20A     -0.568671    21A     -0.562523
      22A     -0.534009    23A     -0.524055    24A     -0.490506
      25A     -0.484176    26A     -0.480515    27A     -0.456521
      28A     -0.435778

  @DF-RHF Final Energy:  -344.90563064971570

   => Energetics <=

    Nuclear Repulsion Energy =            318.4366105525975854
    One-Electron Energy =               -1101.1892332222614641
    Two-Electron Energy =                 437.8469920199480043
    DFT Exchange-Correlation Energy =       0.0000000000000000
    Empirical Dispersion Energy =           0.0000000000000000
    PCM Polarization Energy =               0.0000000000000000
    EFP Energy =                            0.0000000000000000
    Total Energy =                       -344.9056306497158744
    Molecular point group: c1
  Basis Set: 6-31G*
  Basis Set:

  -Total Gradient:
     Atom            X                  Y                   Z
    ------   -----------------  -----------------  -----------------
       1       -0.000001737795    -0.000001963932    -0.000004346626
       2       -0.000009878703     0.000007816753    -0.000009705217
       3        0.001884285421     0.002032299895    -0.002019741768
       4       -0.000002998199     0.000002550945     0.000002367490
       5        0.001971477181     0.002270979032    -0.001098075095
       6       -0.001846629380    -0.002060577992     0.001826185479
       7       -0.000006473599     0.000006866259    -0.000000253036
       8       -0.000027246869    -0.000039682127    -0.000009398124
       9       -0.002003339781    -0.002244332261     0.001303126645
      10        0.000002459818     0.000001620481     0.000001848873
      11        0.000033676103     0.000029327465     0.000004811808
      12        0.000004784163    -0.000006845880     0.000004233187
      13        0.000008876133     0.000003861868     0.000001087908
      14       -0.000011649421    -0.000005446532    -0.000001726675
      15        0.000000757227     0.000001669248    -0.000000779950
      16        0.000004350303     0.000001346063    -0.000000134342
      17       -0.000000712607     0.000000510713     0.000000499440

  **** Optimization is complete! (in 9 steps) ****
    Final optimized geometry and variables:
    Molecular point group: c1

    Geometry (in Angstrom), charge = 0, multiplicity = 1:

    O            0.590529571128     0.989289668236     0.629728822750
    C            0.379425936160    -0.125240251801     0.271693348945
    C           -0.982508759191    -0.769475023506     0.185208116540
    O            1.341836648917    -0.974637198295    -0.060066226181
    C           -2.150533748024     0.213321738709     0.091980555044
    H           -0.996884968024    -1.484053944906    -0.630060558744
    H           -1.081217842638    -1.366207320614     1.090417465666
    C           -2.108079677241     1.130982420097    -1.128935290900
    H           -2.207110640901     0.793264601265     1.006558202406
    H           -3.062043078235    -0.378383853826     0.058114042591
    H           -1.248433471915     1.788698570635    -1.099860898371
    H           -2.999351451346     1.748776325271    -1.171709367472
    H           -2.065037717406     0.553003906410    -2.048752916926
    C            2.674815046215    -0.506573927088     0.040247321369
    H            2.828777751596     0.342175573113    -0.610290504675
    H            3.300440465119    -1.330647290929    -0.265253876507
    H            2.901626582779    -0.220660745864     1.057256567730

  Mulliken Charges: (a.u.)
   Center  Symbol    Alpha    Beta     Spin     Total
       1     O     4.28765  4.28765  0.00000 -0.57530
       2     C     2.60510  2.60510  0.00000  0.78980
       3     C     3.20946  3.20946  0.00000 -0.41893
       4     O     4.30562  4.30562  0.00000 -0.61125
       5     C     3.15104  3.15104  0.00000 -0.30209
       6     H     0.40091  0.40091  0.00000  0.19818
       7     H     0.39867  0.39867  0.00000  0.20266
       8     C     3.24818  3.24818  0.00000 -0.49637
       9     H     0.40934  0.40934  0.00000  0.18133
      10     H     0.41900  0.41900  0.00000  0.16200
      11     H     0.40411  0.40411  0.00000  0.19178
      12     H     0.41792  0.41792  0.00000  0.16415
      13     H     0.42441  0.42441  0.00000  0.15118
      14     C     3.09272  3.09272  0.00000 -0.18544
      15     H     0.40858  0.40858  0.00000  0.18284
      16     H     0.40825  0.40825  0.00000  0.18350
      17     H     0.40903  0.40903  0.00000  0.18194

   Total alpha = 28.00000, Total beta = 28.00000, Total charge =  0.00000
