  ==> Input File <==

--------------------------------------------------------------------------
set {
	reference rhf
	basis 6-31G*
}

set_num_threads( 4 )
memory 2 gb

molecule MOL {
0 1

H	 1.101657	 -0.587020	 0.284430
C	 0.850167	 0.441173	 0.000644
C	 -0.623425	 0.760064	 0.000248
O	 1.710842	 1.212518	 -0.275057
C	 -1.518387	 -0.473136	 -0.000101
H	 -0.818289	 1.390622	 -0.866171
H	 -0.818694	 1.390413	 0.866696
H	 -1.333417	 -1.085530	 -0.874338
H	 -2.563510	 -0.183466	 -0.000351
H	 -1.333864	 -1.085676	 0.874123

	symmetry c1
}
set optking {
	frozen_dihedral = ("
		4 2 3 6
	")
}

ee = optimize('scf')
oeprop('DIPOLE', 'QUADRUPOLE', 'MULLIKEN_CHARGES')
f=open( 'psi4out.xyz', 'w' )
f.write( "10  " )
f.write( str(ee) + "\n" )
f.write( MOL.save_string_xyz() )
f.close()
--------------------------------------------------------------------------

    Molecular point group: c1
  Charge       = 0
  Multiplicity = 1
  Basis Set: 6-31G*
  Basis Set:
  @DF-RHF Final Energy:  -191.94919468598624
    Total Energy =                       -191.9491946859862423
    Molecular point group: c1
  Basis Set: 6-31G*
  Basis Set:
  Basis Set: 6-31G*
  Basis Set:
  @DF-RHF Final Energy:  -191.94911359994606
    Total Energy =                       -191.9491135999461449
  Basis Set: 6-31G*
  Basis Set:
  Basis Set: 6-31G*
  Basis Set:
  @DF-RHF Final Energy:  -191.94899861930463
    Total Energy =                       -191.9489986193046036
  Basis Set: 6-31G*
  Basis Set:
  Basis Set: 6-31G*
  Basis Set:
  @DF-RHF Final Energy:  -191.94941942625979
    Total Energy =                       -191.9494194262598512
  Basis Set: 6-31G*
  Basis Set:
  Charge       = 0
  Multiplicity = 1
  Basis Set: 6-31G*
  Basis Set:

    Orbital Energies (a.u.)
    -----------------------

    Doubly Occupied:

       1A    -20.563154     2A    -11.328921     3A    -11.239368
       4A    -11.232143     5A     -1.404054     6A     -1.066600
       7A     -0.901906     8A     -0.797947     9A     -0.660759
      10A     -0.640426    11A     -0.634442    12A     -0.554293
      13A     -0.543974    14A     -0.524214    15A     -0.490217
      16A     -0.412696

  @DF-RHF Final Energy:  -191.94942040619702

   => Energetics <=

    Nuclear Repulsion Energy =            116.8779494654910280
    One-Electron Energy =                -491.6645117448728115
    Two-Electron Energy =                 182.8371418731848337
    DFT Exchange-Correlation Energy =       0.0000000000000000
    Empirical Dispersion Energy =           0.0000000000000000
    PCM Polarization Energy =               0.0000000000000000
    EFP Energy =                            0.0000000000000000
    Total Energy =                       -191.9494204061969356
    Molecular point group: c1
  Basis Set: 6-31G*
  Basis Set:

  -Total Gradient:
     Atom            X                  Y                   Z
    ------   -----------------  -----------------  -----------------
       1       -0.000039217498    -0.000004974006    -0.000000192516
       2       -0.000081791676    -0.000459739715    -0.001106014662
       3        0.000184687358     0.000737390452     0.000795365089
       4       -0.000000829724     0.000244071323     0.000711041579
       5        0.000047305984     0.000024192503    -0.000016431328
       6       -0.000126575689    -0.000581178943    -0.000399549951
       7        0.000008723502     0.000011630459     0.000009070178
       8        0.000004355183     0.000002631580     0.000006371556
       9       -0.000004212253     0.000016145683    -0.000000177140
      10        0.000007554806     0.000009830664     0.000000517196

  **** Optimization is complete! (in 5 steps) ****
    Final optimized geometry and variables:
    Molecular point group: c1

    Geometry (in Angstrom), charge = 0, multiplicity = 1:

    H            1.014869559254    -1.066869938371     0.377941299180
    C            0.750460915365    -0.046921230897     0.073866352475
    C           -0.726115772099     0.282287922540     0.066103600841
    O            1.601759819748     0.732960951556    -0.205029692375
    C           -1.622732211908    -0.954207662006     0.071055443513
    H           -0.919933023723     0.908151459541    -0.798288448704
    H           -0.919971469106     0.894621386355     0.944050420199
    H           -1.454880529338    -1.567876257313    -0.808883187456
    H           -2.668782946070    -0.670407554266     0.080472983264
    H           -1.440671302333    -1.571125008867     0.946033689942

  Mulliken Charges: (a.u.)
   Center  Symbol    Alpha    Beta     Spin     Total
       1     H     0.42945  0.42945  0.00000  0.14111
       2     C     2.83589  2.83589  0.00000  0.32821
       3     C     3.20533  3.20533  0.00000 -0.41066
       4     O     4.23860  4.23860  0.00000 -0.47720
       5     C     3.25301  3.25301  0.00000 -0.50602
       6     H     0.39744  0.39744  0.00000  0.20512
       7     H     0.39984  0.39984  0.00000  0.20031
       8     H     0.41440  0.41440  0.00000  0.17119
       9     H     0.40957  0.40957  0.00000  0.18086
      10     H     0.41646  0.41646  0.00000  0.16708

   Total alpha = 16.00000, Total beta = 16.00000, Total charge =  0.00000
