  ==> Input File <==

--------------------------------------------------------------------------
set {
	reference rhf
	basis 6-31G*
}

set_num_threads( 1 )
memory 2 gb

molecule MOL {
0 1

H	 -2.353491	 -0.452523	 -0.077439
O	 -1.422729	 -0.573567	 -0.196946
C	 -0.731407	 0.539437	 0.309156
C	 0.680193	 0.672443	 -0.251532
H	 -1.319765	 1.404033	 0.030086
H	 -0.700012	 0.506517	 1.397677
C	 1.599139	 -0.492137	 0.118598
H	 0.616402	 0.758534	 -1.332349
H	 1.107032	 1.602637	 0.117369
H	 1.239738	 -1.428634	 -0.297334
H	 2.601428	 -0.335055	 -0.265730
H	 1.674954	 -0.608418	 1.197020

	symmetry c1
}
set optking {
	frozen_dihedral = ("
		8 4 3 2
	")
}

ee = energy('scf')
oeprop('DIPOLE', 'QUADRUPOLE', 'MULLIKEN_CHARGES')
f=open( 'psi4out.xyz', 'w' )
f.write( "12  " )
f.write( str(ee) + "\n" )
f.write( MOL.save_string_xyz() )
f.close()
--------------------------------------------------------------------------

    Molecular point group: c1

    Geometry (in Angstrom), charge = 0, multiplicity = 1:

       Center              X                  Y                   Z               Mass
    ------------   -----------------  -----------------  -----------------  -----------------
           H         -2.331968063119    -0.467861219402    -0.073107307987     1.007825032070
           O         -1.401206063119    -0.588905219402    -0.192614307987    15.994914619560
           C         -0.709884063119     0.524098780598     0.313487692013    12.000000000000
           C          0.701715936881     0.657104780598    -0.247200307987    12.000000000000
           H         -1.298242063119     1.388694780598     0.034417692013     1.007825032070
           H         -0.678489063119     0.491178780598     1.402008692013     1.007825032070
           C          1.620661936881    -0.507475219402     0.122929692013    12.000000000000
           H          0.637924936881     0.743195780598    -1.328017307987     1.007825032070
           H          1.128554936881     1.587298780598     0.121700692013     1.007825032070
           H          1.261260936881    -1.443972219402    -0.293002307987     1.007825032070
           H          2.622950936881    -0.350393219402    -0.261398307987     1.007825032070
           H          1.696476936881    -0.623756219402     1.201351692013     1.007825032070

  Charge       = 0
  Multiplicity = 1
  Basis Set: 6-31G*
  Basis Set:

    Orbital Energies (a.u.)
    -----------------------

    Doubly Occupied:

       1A    -20.550554     2A    -11.268005     3A    -11.217673
       4A    -11.204770     5A     -1.358524     6A     -1.046596
       7A     -0.918018     8A     -0.800148     9A     -0.700863
      10A     -0.644134    11A     -0.586262    12A     -0.579619
      13A     -0.538337    14A     -0.499352    15A     -0.483059
      16A     -0.461961    17A     -0.430048

  @DF-RHF Final Energy:  -193.10812833348660

   => Energetics <=

    Nuclear Repulsion Energy =            132.4291621308299796
    One-Electron Energy =                -524.4986618284376618
    Two-Electron Energy =                 198.9613713641211064
    DFT Exchange-Correlation Energy =       0.0000000000000000
    Empirical Dispersion Energy =           0.0000000000000000
    PCM Polarization Energy =               0.0000000000000000
    EFP Energy =                            0.0000000000000000
    Total Energy =                       -193.1081283334865759

  Mulliken Charges: (a.u.)
   Center  Symbol    Alpha    Beta     Spin     Total
       1     H     0.27968  0.27968  0.00000  0.44064
       2     O     4.37239  4.37239  0.00000 -0.74477
       3     C     2.99211  2.99211  0.00000  0.01578
       4     C     3.15983  3.15983  0.00000 -0.31965
       5     H     0.43242  0.43242  0.00000  0.13517
       6     H     0.43192  0.43192  0.00000  0.13616
       7     C     3.24205  3.24205  0.00000 -0.48410
       8     H     0.41569  0.41569  0.00000  0.16862
       9     H     0.42197  0.42197  0.00000  0.15606
      10     H     0.40799  0.40799  0.00000  0.18402
      11     H     0.42064  0.42064  0.00000  0.15872
      12     H     0.42332  0.42332  0.00000  0.15335

   Total alpha = 17.00000, Total beta = 17.00000, Total charge =  0.00000
