                              Psi4 1.0.54 Driver

  ==> Input File <==

--------------------------------------------------------------------------
set {
	reference rhf
	basis cc-pvtz
}

set_num_threads( 4 )
memory 2 gb

molecule MOL {
0 1

H	 -2.698799	 -0.000846	 0.036018
C	 -1.694291	 -0.000483	 0.434279
O	 -0.828718	 -0.000608	 -0.655022
H	 -1.576855	 0.881100	 1.056504
H	 -1.576401	 -0.881658	 1.057001
C	 0.557892	 0.000078	 -0.420099
C	 1.273631	 -1.140231	 -1.135422
C	 1.199140	 1.353978	 -0.702953
H	 0.628515	 -0.182480	 0.644938
H	 0.770680	 -2.080111	 -0.943786
H	 2.292158	 -1.219328	 -0.773356
H	 1.319411	 -0.987123	 -2.207357
H	 0.644589	 2.143812	 -0.211344
H	 2.215011	 1.365535	 -0.325269
H	 1.242839	 1.573304	 -1.763390

	symmetry c1
}
set optking {
	frozen_dihedral = ("
		9 6 3 2
	")
}

ee,wfn = optimize('scf', return_wfn=True)
oeprop( wfn, 'DIPOLE', 'QUADRUPOLE', 'MULLIKEN_CHARGES')
f=open( 'psi4out.xyz', 'w' )
f.write( "15  " )
f.write( str(ee) + "\n" )
f.write( MOL.save_string_xyz() )
f.close()
--------------------------------------------------------------------------

    Molecular point group: c1
  Charge       = 0
  Multiplicity = 1
  Basis Set: CC-PVTZ
  Basis Set:
  @DF-RHF Final Energy:  -232.22513143686126
    Total Energy =                       -232.2251314368613748
    Molecular point group: c1
  Basis Set: CC-PVTZ
  Basis Set:
  Basis Set: CC-PVTZ
  Basis Set:
  @DF-RHF Final Energy:  -232.22828647674774
    Total Energy =                       -232.2282864767474848
  Basis Set: CC-PVTZ
  Basis Set:
  Basis Set: CC-PVTZ
  Basis Set:
  @DF-RHF Final Energy:  -232.22890967586110
    Total Energy =                       -232.2289096758610185
  Basis Set: CC-PVTZ
  Basis Set:
  Basis Set: CC-PVTZ
  Basis Set:
  @DF-RHF Final Energy:  -232.22893236906700
    Total Energy =                       -232.2289323690667970
  Basis Set: CC-PVTZ
  Basis Set:
  Charge       = 0
  Multiplicity = 1
  Basis Set: CC-PVTZ
  Basis Set:

    Orbital Energies (a.u.)
    -----------------------

    Doubly Occupied:

       1A    -20.542218     2A    -11.272442     3A    -11.262193
       4A    -11.205676     5A    -11.205271     6A     -1.376702
       7A     -1.053641     8A     -0.936986     9A     -0.918684
      10A     -0.795961    11A     -0.670429    12A     -0.643881
      13A     -0.636849    14A     -0.580409    15A     -0.553904
      16A     -0.540685    17A     -0.537308    18A     -0.497729
      19A     -0.488202    20A     -0.458778    21A     -0.407245

  @DF-RHF Final Energy:  -232.22893469570280

   => Energetics <=

    Nuclear Repulsion Energy =            197.0721697113722541
    One-Electron Energy =                -705.4318208734198379
    Two-Electron Energy =                 276.1307164663448930
    DFT Exchange-Correlation Energy =       0.0000000000000000
    Empirical Dispersion Energy =           0.0000000000000000
    PCM Polarization Energy =               0.0000000000000000
    EFP Energy =                            0.0000000000000000
    Total Energy =                       -232.2289346957027192
    Molecular point group: c1
  Basis Set: CC-PVTZ
  Basis Set:

  -Total Gradient:
     Atom            X                  Y                   Z
    ------   -----------------  -----------------  -----------------
       1        0.000004400481     0.000001002007    -0.000003597275
       2       -0.000094669926    -0.000844643739    -0.000019274720
       3       -0.000004024519     0.001448775506     0.000176148997
       4        0.000012497682     0.000004517896    -0.000013709591
       5        0.000015485712    -0.000002411688    -0.000024357381
       6       -0.000098416909    -0.001623221026    -0.000309524378
       7        0.000099504474     0.000032303653    -0.000002416547
       8        0.000123562773    -0.000013471218    -0.000014110586
       9       -0.000005327169     0.001007188585     0.000197067893
      10       -0.000013450498    -0.000004859021     0.000010574392
      11       -0.000008825960    -0.000022531262    -0.000010417927
      12       -0.000005095062     0.000010820910     0.000009827992
      13       -0.000014388240    -0.000017129378     0.000012835955
      14       -0.000003080702     0.000029901499    -0.000005336142
      15       -0.000008172137    -0.000006242726    -0.000003710682

  **** Optimization is complete! (in 5 steps) ****
    Final optimized geometry and variables:
    Molecular point group: c1

    Geometry (in Angstrom), charge = 0, multiplicity = 1:

    H           -2.777442076430    -0.058333207876     0.393340826852
    C           -1.785639429646    -0.083852607180     0.821906110809
    O           -0.872499844113    -0.043964185692    -0.223998698615
    H           -1.677087216400     0.768307841171     1.489295512793
    H           -1.684788195544    -0.994341140457     1.408188341260
    C            0.487651525289    -0.050310169198     0.135904849201
    C            1.188382690548    -1.147336972409    -0.647089166525
    C            1.086283558355     1.323828477550    -0.126930558875
    H            0.575021892173    -0.264828893777     1.198448387118
    H            0.749648363646    -2.112305205952    -0.424768253985
    H            2.243954137146    -1.184448876232    -0.402178314280
    H            1.088179843282    -0.968226882138    -1.711172591836
    H            0.560059539893     2.084681863095     0.437292960992
    H            2.132337981446     1.352757395341     0.157479588614
    H            1.008179686829     1.570479716016    -1.179275302716

  Mulliken Charges: (a.u.)
   Center  Symbol    Alpha    Beta     Spin     Total
       1     H     0.44943  0.44943  0.00000  0.10115
       2     C     3.03355  3.03355  0.00000 -0.06709
       3     O     4.18821  4.18821  0.00000 -0.37641
       4     H     0.47127  0.47127  0.00000  0.05746
       5     H     0.46999  0.46999  0.00000  0.06003
       6     C     2.92076  2.92076  0.00000  0.15848
       7     C     3.13837  3.13837  0.00000 -0.27673
       8     C     3.13909  3.13909  0.00000 -0.27818
       9     H     0.46847  0.46847  0.00000  0.06307
      10     H     0.45025  0.45025  0.00000  0.09949
      11     H     0.45798  0.45798  0.00000  0.08403
      12     H     0.45234  0.45234  0.00000  0.09533
      13     H     0.45131  0.45131  0.00000  0.09739
      14     H     0.45628  0.45628  0.00000  0.08744
      15     H     0.45273  0.45273  0.00000  0.09455

   Total alpha = 21.00000, Total beta = 21.00000, Total charge = -0.00000

*** Psi4 exiting successfully. Buy a developer a beer!
