  ==> Input File <==

--------------------------------------------------------------------------
set {
	reference rhf
	basis 6-31G*
}

set_num_threads( 1 )
memory 2 gb

molecule MOL {
0 1

O	 -2.439739	 -0.935931	 -0.423848
C	 -1.921153	 0.064240	 -0.045697
C	 -2.624470	 1.379923	 0.150949
O	 -0.632575	 0.154573	 0.251549
H	 -2.168117	 2.136577	 -0.476876
H	 -3.669540	 1.273223	 -0.098610
H	 -2.519365	 1.700893	 1.180846
C	 0.160891	 -1.019931	 0.106212
C	 1.589627	 -0.672828	 0.480843
H	 0.089836	 -1.367806	 -0.916050
H	 -0.238459	 -1.792301	 0.749618
C	 2.303568	 -1.762255	 1.283238
H	 1.561050	 0.247804	 1.060113
H	 2.147336	 -0.454702	 -0.426152
C	 3.729604	 -1.368805	 1.666146
H	 1.732785	 -1.975476	 2.184817
H	 2.322423	 -2.680019	 0.704695
H	 4.214358	 -2.157311	 2.232983
H	 3.740078	 -0.469285	 2.275270
H	 4.333532	 -1.177035	 0.783778

	symmetry c1
}
set optking {
	frozen_dihedral = ("
		16 12 9 8,
		2 4 8 10,
		1 2 4 8
	")
}

ee = energy('scf')
oeprop('DIPOLE', 'QUADRUPOLE', 'MULLIKEN_CHARGES')
f=open( 'psi4out.xyz', 'w' )
f.write( "20  " )
f.write( str(ee) + "\n" )
f.write( MOL.save_string_xyz() )
f.close()
--------------------------------------------------------------------------

    Molecular point group: c1

    Geometry (in Angstrom), charge = 0, multiplicity = 1:

       Center              X                  Y                   Z               Mass
    ------------   -----------------  -----------------  -----------------  -----------------
           O         -2.451382906176    -0.420599409528    -0.856908107528    15.994914619560
           C         -1.932796906176     0.579571590472    -0.478757107528    12.000000000000
           C         -2.636113906176     1.895254590472    -0.282111107528    12.000000000000
           O         -0.644218906176     0.669904590472    -0.181511107528    15.994914619560
           H         -2.179760906176     2.651908590472    -0.909936107528     1.007825032070
           H         -3.681183906176     1.788554590472    -0.531670107528     1.007825032070
           H         -2.531008906176     2.216224590472     0.747785892472     1.007825032070
           C          0.149247093824    -0.504599409528    -0.326848107528    12.000000000000
           C          1.577983093824    -0.157496409528     0.047782892472    12.000000000000
           H          0.078192093824    -0.852474409528    -1.349110107528     1.007825032070
           H         -0.250102906176    -1.276969409528     0.316557892472     1.007825032070
           C          2.291924093824    -1.246923409528     0.850177892472    12.000000000000
           H          1.549406093824     0.763135590472     0.627052892472     1.007825032070
           H          2.135692093824     0.060629590472    -0.859212107528     1.007825032070
           C          3.717960093824    -0.853473409528     1.233085892472    12.000000000000
           H          1.721141093824    -1.460144409528     1.751756892472     1.007825032070
           H          2.310779093824    -2.164687409528     0.271634892472     1.007825032070
           H          4.202714093824    -1.641979409528     1.799922892472     1.007825032070
           H          3.728434093824     0.046046590472     1.842209892472     1.007825032070
           H          4.321888093824    -0.661703409528     0.350717892472     1.007825032070

  Charge       = 0
  Multiplicity = 1
  Basis Set: 6-31G*
  Basis Set:

    Orbital Energies (a.u.)
    -----------------------

    Doubly Occupied:

       1A    -20.601292     2A    -20.543508     3A    -11.373738
       4A    -11.280904     5A    -11.232962     6A    -11.225731
       7A    -11.222786     8A    -11.215531     9A     -1.467348
      10A     -1.361618    11A     -1.087250    12A     -1.029500
      13A     -0.980885    14A     -0.881070    15A     -0.807803
      16A     -0.778604    17A     -0.690565    18A     -0.683681
      19A     -0.667738    20A     -0.636346    21A     -0.597859
      22A     -0.593474    23A     -0.570223    24A     -0.557211
      25A     -0.544619    26A     -0.520808    27A     -0.510392
      28A     -0.482573    29A     -0.481424    30A     -0.475308
      31A     -0.449261    32A     -0.436695

  @DF-RHF Final Energy:  -383.94106736217685

   => Energetics <=

    Nuclear Repulsion Energy =            379.3864900813790086
    One-Electron Energy =               -1274.6774231287956809
    Two-Electron Energy =                 511.3498656852385693
    DFT Exchange-Correlation Energy =       0.0000000000000000
    Empirical Dispersion Energy =           0.0000000000000000
    PCM Polarization Energy =               0.0000000000000000
    EFP Energy =                            0.0000000000000000
    Total Energy =                       -383.9410673621781598

  Mulliken Charges: (a.u.)
   Center  Symbol    Alpha    Beta     Spin     Total
       1     O     4.28337  4.28337  0.00000 -0.56673
       2     C     2.61994  2.61994  0.00000  0.76013
       3     C     3.28157  3.28157  0.00000 -0.56314
       4     O     4.31056  4.31056  0.00000 -0.62112
       5     H     0.40049  0.40049  0.00000  0.19903
       6     H     0.39699  0.39699  0.00000  0.20602
       7     H     0.40082  0.40082  0.00000  0.19837
       8     C     2.99805  2.99805  0.00000  0.00390
       9     C     3.16960  3.16960  0.00000 -0.33920
      10     H     0.40904  0.40904  0.00000  0.18191
      11     H     0.40977  0.40977  0.00000  0.18046
      12     C     3.15944  3.15944  0.00000 -0.31888
      13     H     0.40758  0.40758  0.00000  0.18485
      14     H     0.41643  0.41643  0.00000  0.16713
      15     C     3.24034  3.24034  0.00000 -0.48069
      16     H     0.41912  0.41912  0.00000  0.16177
      17     H     0.41997  0.41997  0.00000  0.16006
      18     H     0.41702  0.41702  0.00000  0.16597
      19     H     0.41969  0.41969  0.00000  0.16063
      20     H     0.42023  0.42023  0.00000  0.15954

   Total alpha = 32.00000, Total beta = 32.00000, Total charge =  0.00000
