                              Psi4 1.0.54 Driver

  ==> Input File <==

--------------------------------------------------------------------------
set {
	reference rhf
	basis cc-pvtz
}

set_num_threads( 4 )
memory 2 gb

molecule MOL {
0 1

H	 -2.383976	 -2.391077	 -2.367508
O	 -2.404443	 -1.780914	 -1.653731
C	 -1.101131	 -1.379472	 -1.324126
C	 -1.175688	 -0.398187	 -0.171891
H	 -0.498290	 -2.239486	 -1.039991
H	 -0.619510	 -0.910303	 -2.179551
C	 0.196029	 0.106276	 0.266738
H	 -1.677896	 -0.882235	 0.659797
H	 -1.802044	 0.436180	 -0.470933
C	 1.330220	 -0.826136	 -0.155230
H	 0.359542	 1.097229	 -0.145561
H	 0.212134	 0.218135	 1.348778
C	 2.719700	 -0.407669	 0.328325
H	 1.339388	 -0.911200	 -1.239363
H	 1.119001	 -1.821953	 0.224128
C	 3.241564	 0.893452	 -0.276737
H	 3.418299	 -1.204729	 0.093035
H	 2.711776	 -0.323368	 1.411960
H	 3.254204	 0.841071	 -1.360784
H	 2.634460	 1.745075	 0.005842
H	 4.254264	 1.092401	 0.054971

	symmetry c1
}
set optking {
	frozen_dihedral = ("
		8 4 7 10
	")
}

ee,wfn = optimize('scf', return_wfn=True)
oeprop( wfn, 'DIPOLE', 'QUADRUPOLE', 'MULLIKEN_CHARGES')
f=open( 'psi4out.xyz', 'w' )
f.write( "21  " )
f.write( str(ee) + "\n" )
f.write( MOL.save_string_xyz() )
f.close()
--------------------------------------------------------------------------

    Molecular point group: c1
  Charge       = 0
  Multiplicity = 1
  Basis Set: CC-PVTZ
  Basis Set:
  @DF-RHF Final Energy:  -310.32152537737943
    Total Energy =                       -310.3215253773792028
    Molecular point group: c1
  Basis Set: CC-PVTZ
  Basis Set:
  Basis Set: CC-PVTZ
  Basis Set:
  @DF-RHF Final Energy:  -310.08661081708351
    Total Energy =                       -310.0866108170832263
  Basis Set: CC-PVTZ
  Basis Set:
  Basis Set: CC-PVTZ
  Basis Set:
  @DF-RHF Final Energy:  -310.22390260558404
    Total Energy =                       -310.2239026055839304
  Basis Set: CC-PVTZ
  Basis Set:
  Basis Set: CC-PVTZ
  Basis Set:
  @DF-RHF Final Energy:  -310.31188793884098
    Total Energy =                       -310.3118879388408686
  Basis Set: CC-PVTZ
  Basis Set:
  @DF-RHF Final Energy:  -310.32327431957310
    Total Energy =                       -310.3232743195729313
  @DF-RHF Final Energy:  -310.32517878740123
    Total Energy =                       -310.3251787874015122
  Basis Set: CC-PVTZ
  Basis Set:
  @DF-RHF Final Energy:  -310.32540034469224
    Total Energy =                       -310.3254003446919000
  Basis Set: CC-PVTZ
  Basis Set:
  Basis Set: CC-PVTZ
  Basis Set:
  @DF-RHF Final Energy:  -310.32538155507456
    Total Energy =                       -310.3253815550742729
  Basis Set: CC-PVTZ
  Basis Set:
  Basis Set: CC-PVTZ
  Basis Set:
  @DF-RHF Final Energy:  -310.32541797834301
    Total Energy =                       -310.3254179783431255
  Basis Set: CC-PVTZ
  Basis Set:
  Charge       = 0
  Multiplicity = 1
  Basis Set: CC-PVTZ
  Basis Set:

    Orbital Energies (a.u.)
    -----------------------

    Doubly Occupied:

       1A    -20.545012     2A    -11.264790     3A    -11.214454
       4A    -11.213586     5A    -11.213001     6A    -11.208895
       7A    -11.206865     8A     -1.362831     9A     -1.086051
      10A     -1.031196    11A     -0.952168    12A     -0.887361
      13A     -0.816147    14A     -0.763751    15A     -0.699002
      16A     -0.659677    17A     -0.620651    18A     -0.608627
      19A     -0.593014    20A     -0.564246    21A     -0.545503
      22A     -0.520779    23A     -0.515217    24A     -0.492291
      25A     -0.480103    26A     -0.459276    27A     -0.451909
      28A     -0.445670    29A     -0.430414

  @DF-RHF Final Energy:  -310.32541829237078

   => Energetics <=

    Nuclear Repulsion Energy =            317.3502517300708519
    One-Electron Energy =               -1049.6463613342311874
    Two-Electron Energy =                 421.9706913117896647
    DFT Exchange-Correlation Energy =       0.0000000000000000
    Empirical Dispersion Energy =           0.0000000000000000
    PCM Polarization Energy =               0.0000000000000000
    EFP Energy =                            0.0000000000000000
    Total Energy =                       -310.3254182923707276
    Molecular point group: c1
  Basis Set: CC-PVTZ
  Basis Set:

  -Total Gradient:
     Atom            X                  Y                   Z
    ------   -----------------  -----------------  -----------------
       1       -0.000001100362    -0.000011818305    -0.000014403476
       2       -0.000062295431    -0.000015915820     0.000035990642
       3        0.000051855266     0.000008266199    -0.000030785916
       4        0.003893118318    -0.006042444096    -0.002115921227
       5        0.000020224355    -0.000007002723     0.000010523145
       6        0.000005970153     0.000003828923    -0.000002164112
       7        0.000394808373     0.000493309724     0.006397226969
       8       -0.003452775731     0.005030974308     0.000159402924
       9        0.000004482905     0.000012486397    -0.000005435976
      10       -0.000869017005     0.000490705503    -0.004425551040
      11       -0.000006546011     0.000020000507    -0.000022070212
      12        0.000000779223    -0.000006915986     0.000004847447
      13        0.000010822584     0.000011039097     0.000013551817
      14        0.000008546139     0.000012414672     0.000003198490
      15       -0.000023923440    -0.000045476858     0.000017740680
      16       -0.000000541044     0.000029294925    -0.000022630053
      17       -0.000002413558    -0.000007237557     0.000003094934
      18        0.000014453982     0.000001285275     0.000012309000
      19        0.000002140445    -0.000001400518    -0.000007039417
      20       -0.000002692914     0.000002393835    -0.000007754104
      21        0.000014103750     0.000022212499    -0.000004130516

  **** Optimization is complete! (in 10 steps) ****
    Final optimized geometry and variables:
    Molecular point group: c1

    Geometry (in Angstrom), charge = 0, multiplicity = 1:

    H           -2.714002170799    -2.817428292235    -0.420629114024
    O           -2.676948177789    -1.988724907030     0.019831073682
    C           -1.414803385677    -1.401890670964    -0.164800035155
    C           -1.406394151419    -0.087509133559     0.590972217861
    H           -0.635895544120    -2.064647582628     0.198893446226
    H           -1.231499386869    -1.227211676570    -1.222722120529
    C           -0.139450661854     0.783699551880     0.455663092315
    H           -1.628822470527    -0.271573116496     1.636414915964
    H           -2.255388017480     0.485225740348     0.232832042958
    C            1.161982195019     0.048710796260     0.124990719994
    H           -0.316266059640     1.520109308750    -0.320342081546
    H           -0.005591067661     1.345507748075     1.374040026376
    C            2.397868728196     0.951539221032     0.099551356978
    H            1.072331888671    -0.448843981869    -0.836013413709
    H            1.331883652539    -0.733464747169     0.859889077549
    C            2.410506477359     1.991869038552    -1.018285042218
    H            3.277180310484     0.322974766760    -0.003085048528
    H            2.495032642836     1.452464709929     1.059071859750
    H            2.302380288670     1.520602532658    -1.990147052845
    H            1.611650668072     2.715253644940    -0.910902399144
    H            3.346023609283     2.539541413294    -1.020933709716

  Mulliken Charges: (a.u.)
   Center  Symbol    Alpha    Beta     Spin     Total
       1     H     0.39769  0.39769  0.00000  0.20462
       2     O     4.19508  4.19508  0.00000 -0.39016
       3     C     2.96708  2.96708  0.00000  0.06585
       4     C     3.08925  3.08925  0.00000 -0.17851
       5     H     0.47113  0.47113  0.00000  0.05773
       6     H     0.47236  0.47236  0.00000  0.05528
       7     C     3.10662  3.10662  0.00000 -0.21324
       8     H     0.44878  0.44878  0.00000  0.10245
       9     H     0.44895  0.44895  0.00000  0.10210
      10     C     3.10380  3.10380  0.00000 -0.20759
      11     H     0.45075  0.45075  0.00000  0.09851
      12     H     0.44848  0.44848  0.00000  0.10304
      13     C     3.09044  3.09044  0.00000 -0.18089
      14     H     0.45207  0.45207  0.00000  0.09587
      15     H     0.44762  0.44762  0.00000  0.10475
      16     C     3.15257  3.15257  0.00000 -0.30513
      17     H     0.44831  0.44831  0.00000  0.10337
      18     H     0.45444  0.45444  0.00000  0.09112
      19     H     0.45554  0.45554  0.00000  0.08892
      20     H     0.45289  0.45289  0.00000  0.09422
      21     H     0.44616  0.44616  0.00000  0.10769

   Total alpha = 29.00000, Total beta = 29.00000, Total charge = -0.00000

*** Psi4 exiting successfully. Buy a developer a beer!
