  ==> Input File <==

--------------------------------------------------------------------------
set {
	reference rhf
	basis 6-31G*
}

set_num_threads( 4 )
memory 2 gb

molecule MOL {
0 1

H	 2.355551	 -1.975126	 0.432265
N	 1.369087	 -1.807317	 0.441740
C	 0.876168	 -1.602306	 -0.907969
C	 1.054427	 -0.679016	 1.298850
H	 1.116557	 -2.474395	 -1.506670
H	 1.324326	 -0.729366	 -1.388354
C	 -0.632800	 -1.413828	 -0.864128
H	 1.423907	 -0.882478	 2.298278
H	 1.513381	 0.249845	 0.952124
C	 -0.454652	 -0.491109	 1.341324
H	 -1.098871	 -2.343712	 -0.524727
H	 -1.001742	 -1.204365	 -1.862904
N	 -0.975995	 -0.298722	 0.000000
H	 -0.694942	 0.384709	 1.935250
H	 -0.908787	 -1.359174	 1.828481
C	 -2.393863	 -0.024976	 0.000000
H	 -2.854032	 -0.467193	 -0.876721
H	 -2.854032	 -0.467193	 0.876721
H	 -2.623281	 1.044943	 0.000000

	symmetry c1
}
set optking {
	frozen_dihedral = ("
		7 13 16 19
	")
}

ee = optimize('scf')
oeprop('DIPOLE', 'QUADRUPOLE', 'MULLIKEN_CHARGES')
f=open( 'psi4out.xyz', 'w' )
f.write( "19  " )
f.write( str(ee) + "\n" )
f.write( MOL.save_string_xyz() )
f.close()
--------------------------------------------------------------------------

    Molecular point group: c1
  Charge       = 0
  Multiplicity = 1
  Basis Set: 6-31G*
  Basis Set:
  @DF-RHF Final Energy:  -305.19454569713275
    Total Energy =                       -305.1945456971327530
    Molecular point group: c1
  Basis Set: 6-31G*
  Basis Set:
  Basis Set: 6-31G*
  Basis Set:
  @DF-RHF Final Energy:  -305.19562653670687
    Total Energy =                       -305.1956265367062997
  Basis Set: 6-31G*
  Basis Set:
  Basis Set: 6-31G*
  Basis Set:
  @DF-RHF Final Energy:  -305.19577474571946
    Total Energy =                       -305.1957747457193477
  Basis Set: 6-31G*
  Basis Set:
  Basis Set: 6-31G*
  Basis Set:
  @DF-RHF Final Energy:  -305.19578328761264
    Total Energy =                       -305.1957832876124144
  Basis Set: 6-31G*
  Basis Set:
  Charge       = 0
  Multiplicity = 1
  Basis Set: 6-31G*
  Basis Set:

    Orbital Energies (a.u.)
    -----------------------

    Doubly Occupied:

       1A    -15.537414     2A    -15.536196     3A    -11.237968
       4A    -11.237938     5A    -11.237168     6A    -11.236868
       7A    -11.234752     8A     -1.244893     9A     -1.183538
      10A     -1.022879    11A     -0.964263    12A     -0.860804
      13A     -0.857375    14A     -0.755493    15A     -0.690437
      16A     -0.632299    17A     -0.624540    18A     -0.605910
      19A     -0.602542    20A     -0.580606    21A     -0.543625
      22A     -0.533550    23A     -0.510546    24A     -0.488773
      25A     -0.467042    26A     -0.456820    27A     -0.363024
      28A     -0.337669

  @DF-RHF Final Energy:  -305.19578405228458

   => Energetics <=

    Nuclear Repulsion Energy =            339.3993386127378926
    One-Electron Energy =               -1086.0203768735502763
    Two-Electron Energy =                 441.4252542085278037
    DFT Exchange-Correlation Energy =       0.0000000000000000
    Empirical Dispersion Energy =           0.0000000000000000
    PCM Polarization Energy =               0.0000000000000000
    EFP Energy =                            0.0000000000000000
    Total Energy =                       -305.1957840522845800
    Molecular point group: c1
  Basis Set: 6-31G*
  Basis Set:

  -Total Gradient:
     Atom            X                  Y                   Z
    ------   -----------------  -----------------  -----------------
       1        0.000006710345    -0.000010824715    -0.000006474002
       2       -0.000006967305     0.000001521334    -0.000013589229
       3        0.000007155147     0.000008521849    -0.000008008307
       4       -0.000012079019    -0.000007163396     0.000034378951
       5        0.000004806468    -0.000001140577    -0.000001112849
       6       -0.000001031194     0.000002214168    -0.000001627289
       7        0.000550038520     0.002385515735    -0.002739542909
       8        0.000012429780    -0.000001701125     0.000002174800
       9       -0.000012377356    -0.000001449275     0.000002705413
      10        0.000000441449     0.000041946440     0.000000536504
      11       -0.000004402783     0.000014285651     0.000004768762
      12       -0.000000768717    -0.000001589048     0.000003993414
      13       -0.000758970570    -0.003356852612     0.002617875317
      14       -0.000006739969    -0.000001265097     0.000002881947
      15        0.000003649569     0.000001689766    -0.000008963991
      16        0.000131508625     0.000790120119     0.004948956891
      17       -0.000013852144    -0.000005221314    -0.000018987158
      18        0.000020987488     0.000002970928    -0.000033377920
      19        0.000079461669     0.000138421169    -0.004786588345

  **** Optimization is complete! (in 5 steps) ****
    Final optimized geometry and variables:
    Molecular point group: c1

    Geometry (in Angstrom), charge = 0, multiplicity = 1:

    H            2.544122146817    -1.042270504747     0.234439130629
    N            1.555900267287    -0.885585212937     0.248904824989
    C            1.053936788087    -0.692241308292    -1.099310139714
    C            1.234025933256     0.243615232243     1.102250678891
    H            1.314025741347    -1.557853949739    -1.699332075520
    H            1.480151994724     0.191906124674    -1.579470336774
    C           -0.459227850391    -0.539174288418    -1.053482505778
    H            1.618232459480     0.052985592582     2.098740652570
    H            1.675216489935     1.176474206521     0.743243787909
    C           -0.277143319844     0.408161899186     1.159566530640
    H           -0.901162943355    -1.487653170154    -0.732832017893
    H           -0.828525193081    -0.321097913338    -2.049441980881
    N           -0.820145904760     0.556445942346    -0.174837924335
    H           -0.524291544050     1.295239446242     1.734414715793
    H           -0.711229780668    -0.453187066239     1.676462083683
    C           -2.228558999443     0.894742135062    -0.180168373643
    H           -2.685274324776     0.555982707929    -1.103258191384
    H           -2.780307942021     0.438888976714     0.642523531852
    H           -2.363250497003     1.971876448523    -0.147503608096

  Mulliken Charges: (a.u.)
   Center  Symbol    Alpha    Beta     Spin     Total
       1     H     0.32949  0.32949  0.00000  0.34103
       2     N     3.85436  3.85436  0.00000 -0.70873
       3     C     3.06406  3.06406  0.00000 -0.12813
       4     C     3.06363  3.06363  0.00000 -0.12726
       5     H     0.41794  0.41794  0.00000  0.16412
       6     H     0.42816  0.42816  0.00000  0.14367
       7     C     3.05093  3.05093  0.00000 -0.10187
       8     H     0.41790  0.41790  0.00000  0.16421
       9     H     0.42818  0.42818  0.00000  0.14364
      10     C     3.05168  3.05168  0.00000 -0.10337
      11     H     0.42905  0.42905  0.00000  0.14191
      12     H     0.41892  0.41892  0.00000  0.16216
      13     N     3.79463  3.79463  0.00000 -0.58926
      14     H     0.41872  0.41872  0.00000  0.16257
      15     H     0.42851  0.42851  0.00000  0.14297
      16     C     3.13785  3.13785  0.00000 -0.27570
      17     H     0.42027  0.42027  0.00000  0.15945
      18     H     0.42893  0.42893  0.00000  0.14214
      19     H     0.41678  0.41678  0.00000  0.16644

   Total alpha = 28.00000, Total beta = 28.00000, Total charge = -0.00000
