                              Psi4 1.0.54 Driver

  ==> Input File <==

--------------------------------------------------------------------------
set {
	reference rhf
	basis cc-pvtz
}

set_num_threads( 4 )
memory 2 gb

molecule MOL {
0 1

H	 2.856613	 -1.208952	 2.334166
O	 2.303568	 -1.320344	 1.575595
C	 1.540591	 -0.238070	 1.449181
C	 0.626018	 -0.337582	 0.258241
O	 1.606744	 0.668792	 2.204870
C	 -0.267326	 0.883135	 0.076490
H	 1.256087	 -0.514384	 -0.605247
H	 0.036294	 -1.240084	 0.385323
C	 -1.726822	 0.642622	 0.463839
H	 -0.210803	 1.217591	 -0.953497
H	 0.129920	 1.693110	 0.675679
C	 -2.480891	 -0.340606	 -0.429852
H	 -2.243098	 1.597649	 0.438609
H	 -1.776542	 0.301208	 1.495542
C	 -3.955933	 -0.460128	 -0.060472
H	 -2.393755	 -0.020485	 -1.464726
H	 -2.024244	 -1.323637	 -0.374360
H	 -4.467673	 -1.160944	 -0.709827
H	 -4.458917	 0.497287	 -0.144505
H	 -4.076458	 -0.806900	 0.960497

	symmetry c1
}
set optking {
	frozen_dihedral = ("
		7 4 6 10
	")
}

ee,wfn = optimize('scf', return_wfn=True)
oeprop( wfn, 'DIPOLE', 'QUADRUPOLE', 'MULLIKEN_CHARGES')
f=open( 'psi4out.xyz', 'w' )
f.write( "20  " )
f.write( str(ee) + "\n" )
f.write( MOL.save_string_xyz() )
f.close()
--------------------------------------------------------------------------

    Molecular point group: c1
  Charge       = 0
  Multiplicity = 1
  Basis Set: CC-PVTZ
  Basis Set:
  @DF-RHF Final Energy:  -384.09081618485783
    Total Energy =                       -384.0908161848576583
    Molecular point group: c1
  Basis Set: CC-PVTZ
  Basis Set:
  Basis Set: CC-PVTZ
  Basis Set:
  @DF-RHF Final Energy:  -384.09089440938521
    Total Energy =                       -384.0908944093849868
  Basis Set: CC-PVTZ
  Basis Set:
  Basis Set: CC-PVTZ
  Basis Set:
  @DF-RHF Final Energy:  -384.09132347229291
    Total Energy =                       -384.0913234722925154
  Basis Set: CC-PVTZ
  Basis Set:
  Basis Set: CC-PVTZ
  Basis Set:
  @DF-RHF Final Energy:  -384.09132935907593
    Total Energy =                       -384.0913293590760986
  Basis Set: CC-PVTZ
  Basis Set:
  Basis Set: CC-PVTZ
  Basis Set:
  @DF-RHF Final Energy:  -384.09128493974612
    Total Energy =                       -384.0912849397454920
  Basis Set: CC-PVTZ
  Basis Set:
  Basis Set: CC-PVTZ
  Basis Set:
  @DF-RHF Final Energy:  -384.09133462260036
    Total Energy =                       -384.0913346226002432
  Basis Set: CC-PVTZ
  Basis Set:
  Charge       = 0
  Multiplicity = 1
  Basis Set: CC-PVTZ
  Basis Set:

    Orbital Energies (a.u.)
    -----------------------

    Doubly Occupied:

       1A    -20.604358     2A    -20.541435     3A    -11.374382
       4A    -11.238777     5A    -11.219572     6A    -11.217428
       7A    -11.216108     8A    -11.209430     9A     -1.478275
      10A     -1.369705    11A     -1.095157    12A     -1.040647
      13A     -0.961551    14A     -0.871019    15A     -0.817152
      16A     -0.777250    17A     -0.705458    18A     -0.694342
      19A     -0.663942    20A     -0.637190    21A     -0.603062
      22A     -0.594432    23A     -0.574634    24A     -0.558691
      25A     -0.539320    26A     -0.508241    27A     -0.500916
      28A     -0.485494    29A     -0.466796    30A     -0.466083
      31A     -0.456028    32A     -0.448992

  @DF-RHF Final Energy:  -384.09133470292005

   => Energetics <=

    Nuclear Repulsion Energy =            379.3826488980107001
    One-Electron Energy =               -1275.0762255529982667
    Two-Electron Energy =                 511.6022419520675726
    DFT Exchange-Correlation Energy =       0.0000000000000000
    Empirical Dispersion Energy =           0.0000000000000000
    PCM Polarization Energy =               0.0000000000000000
    EFP Energy =                            0.0000000000000000
    Total Energy =                       -384.0913347029199372
    Molecular point group: c1
  Basis Set: CC-PVTZ
  Basis Set:

  -Total Gradient:
     Atom            X                  Y                   Z
    ------   -----------------  -----------------  -----------------
       1        0.000005439730     0.000004915738    -0.000003440807
       2        0.000143825462    -0.000034308171    -0.000020711670
       3       -0.000336025808    -0.000051036701     0.000238382830
       4        0.002480553241     0.002077840677     0.001135589203
       5        0.000139080138     0.000010444575    -0.000117296303
       6       -0.002493999957    -0.002091861351    -0.000771253552
       7       -0.001572818777    -0.001378828735    -0.000883616589
       8        0.000002623783    -0.000027203314    -0.000013402219
       9       -0.000004170792     0.000052750718    -0.000042560076
      10        0.001663530605     0.001402913529     0.000468100508
      11        0.000030919147     0.000025711898     0.000015075400
      12       -0.000055891960     0.000055923529    -0.000000703523
      13       -0.000051547220     0.000042403820    -0.000008142846
      14        0.000002064596     0.000012618397     0.000029060174
      15        0.000062850436    -0.000072418754     0.000007300949
      16       -0.000010221566     0.000060065506    -0.000075450520
      17        0.000042550295    -0.000093394903     0.000000081976
      18       -0.000012632692    -0.000056890406    -0.000037621184
      19       -0.000024912830     0.000088477513    -0.000024885777
      20       -0.000011215829    -0.000028123567     0.000105494028

  **** Optimization is complete! (in 7 steps) ****
    Final optimized geometry and variables:
    Molecular point group: c1

    Geometry (in Angstrom), charge = 0, multiplicity = 1:

    H            3.131356079258    -1.103764943217     1.634136377042
    O            2.586739189392    -1.218937716310     0.870093215730
    C            1.806867334160    -0.148636769018     0.744674236729
    C            0.901685444438    -0.266602413295    -0.453857546742
    O            1.853738317431     0.753456479251     1.507495255618
    C           -0.012029937906     0.943904422142    -0.684366368236
    H            1.530385026921    -0.472093465802    -1.311970342476
    H            0.332921450654    -1.178071910359    -0.307217923312
    C           -1.469794859375     0.725698517481    -0.277048547011
    H            0.038246728952     1.234371034444    -1.728194967941
    H            0.385387307346     1.777831825876    -0.122815960552
    C           -2.251895003584    -0.214062622451    -1.192755018831
    H           -1.970582066874     1.689182556424    -0.261974117857
    H           -1.503385502515     0.353962551771     0.744313531275
    C           -3.696127398399    -0.412871676249    -0.744212082804
    H           -2.240133510500     0.186317965199    -2.203117208599
    H           -1.762021771432    -1.181977272145    -1.245418640290
    H           -4.228153865084    -1.076987793556    -1.415716127819
    H           -4.230918869309     0.530785301795    -0.719263837277
    H           -3.741057583683    -0.842725901676     0.251018432963

  Mulliken Charges: (a.u.)
   Center  Symbol    Alpha    Beta     Spin     Total
       1     H     0.38260  0.38260  0.00000  0.23481
       2     O     4.15974  4.15974  0.00000 -0.31947
       3     C     2.80064  2.80064  0.00000  0.39872
       4     C     3.12015  3.12015  0.00000 -0.24030
       5     O     4.19138  4.19138  0.00000 -0.38275
       6     C     3.10696  3.10696  0.00000 -0.21392
       7     H     0.42861  0.42861  0.00000  0.14277
       8     H     0.43697  0.43697  0.00000  0.12606
       9     C     3.09678  3.09678  0.00000 -0.19356
      10     H     0.44540  0.44540  0.00000  0.10920
      11     H     0.43312  0.43312  0.00000  0.13376
      12     C     3.08580  3.08580  0.00000 -0.17159
      13     H     0.44672  0.44672  0.00000  0.10656
      14     H     0.45049  0.45049  0.00000  0.09902
      15     C     3.14975  3.14975  0.00000 -0.29950
      16     H     0.45364  0.45364  0.00000  0.09272
      17     H     0.45495  0.45495  0.00000  0.09010
      18     H     0.44803  0.44803  0.00000  0.10395
      19     H     0.45373  0.45373  0.00000  0.09254
      20     H     0.45456  0.45456  0.00000  0.09089

   Total alpha = 32.00000, Total beta = 32.00000, Total charge = -0.00000

*** Psi4 exiting successfully. Buy a developer a beer!
