  ==> Input File <==

--------------------------------------------------------------------------
set {
	reference rhf
	basis 6-31G*
}

set_num_threads( 4 )
memory 2 gb

molecule MOL {
0 1

H	 2.591676	 2.013956	 0.335017
O	 3.341076	 1.666752	 -0.126416
C	 3.569581	 0.339145	 0.272707
C	 4.686164	 0.204663	 1.302214
H	 2.635986	 -0.004840	 0.699028
H	 3.780103	 -0.288086	 -0.592765
C	 6.064480	 0.621907	 0.783540
H	 4.427119	 0.802771	 2.172001
H	 4.721990	 -0.832970	 1.629936
C	 7.171939	 0.424218	 1.822420
H	 6.031773	 1.665197	 0.482140
H	 6.305267	 0.044802	 -0.109383
C	 8.585972	 0.746606	 1.325510
H	 6.952033	 1.029845	 2.699748
H	 7.152190	 -0.610985	 2.156583
C	 8.833495	 2.221871	 0.998703
H	 9.295645	 0.437118	 2.089969
H	 8.805178	 0.140904	 0.447495
C	 10.284756	 2.510758	 0.609059
H	 8.566262	 2.830435	 1.861459
H	 8.182402	 2.539995	 0.188038
C	 10.533112	 3.981518	 0.276123
H	 10.942401	 2.208981	 1.421415
H	 10.556602	 1.896420	 -0.246846
H	 10.301359	 4.619970	 1.123999
H	 11.570320	 4.154389	 0.006033
H	 9.916280	 4.304741	 -0.557789

	symmetry c1
}
set optking {
	frozen_dihedral = ("
		4 3 2 1
	")
}

ee = optimize('scf')
oeprop('DIPOLE', 'QUADRUPOLE', 'MULLIKEN_CHARGES')
f=open( 'psi4out.xyz', 'w' )
f.write( "27  " )
f.write( str(ee) + "\n" )
f.write( MOL.save_string_xyz() )
f.close()
--------------------------------------------------------------------------

    Molecular point group: c1
  Charge       = 0
  Multiplicity = 1
  Basis Set: 6-31G*
  Basis Set:
  @DF-RHF Final Energy:  -388.27924093914089
    Total Energy =                       -388.2792409391410047
    Molecular point group: c1
  Basis Set: 6-31G*
  Basis Set:
  Basis Set: 6-31G*
  Basis Set:
  @DF-RHF Final Energy:  -388.28053090843127
    Total Energy =                       -388.2805309084312739
  Basis Set: 6-31G*
  Basis Set:
  Basis Set: 6-31G*
  Basis Set:
  @DF-RHF Final Energy:  -388.28095064345194
    Total Energy =                       -388.2809506434522291
  Basis Set: 6-31G*
  Basis Set:
  Basis Set: 6-31G*
  Basis Set:
  @DF-RHF Final Energy:  -388.28095827027653
    Total Energy =                       -388.2809582702766420
  Basis Set: 6-31G*
  Basis Set:
  Charge       = 0
  Multiplicity = 1
  Basis Set: 6-31G*
  Basis Set:

    Orbital Energies (a.u.)
    -----------------------

    Doubly Occupied:

       1A    -20.552528     2A    -11.268186     3A    -11.212610
       4A    -11.210751     5A    -11.209871     6A    -11.209091
       7A    -11.207509     8A    -11.206487     9A    -11.204668
      10A     -1.358729    11A     -1.088253    12A     -1.056172
      13A     -1.007546    14A     -0.942740    15A     -0.880559
      16A     -0.815112    17A     -0.797387    18A     -0.771961
      19A     -0.692934    20A     -0.647181    21A     -0.639353
      22A     -0.605186    23A     -0.594784    24A     -0.583926
      25A     -0.567872    26A     -0.550268    27A     -0.534960
      28A     -0.520793    29A     -0.507988    30A     -0.491798
      31A     -0.475861    32A     -0.467559    33A     -0.462356
      34A     -0.454998    35A     -0.447745    36A     -0.435583
      37A     -0.420163

  @DF-RHF Final Energy:  -388.28095906700344

   => Energetics <=

    Nuclear Repulsion Energy =            459.8057864272348070
    One-Electron Energy =               -1437.9705528491160749
    Two-Electron Energy =                 589.8838073548774901
    DFT Exchange-Correlation Energy =       0.0000000000000000
    Empirical Dispersion Energy =           0.0000000000000000
    PCM Polarization Energy =               0.0000000000000000
    EFP Energy =                            0.0000000000000000
    Total Energy =                       -388.2809590670037778
    Molecular point group: c1
  Basis Set: 6-31G*
  Basis Set:

  -Total Gradient:
     Atom            X                  Y                   Z
    ------   -----------------  -----------------  -----------------
       1       -0.001073939552    -0.000475428454    -0.001323810910
       2        0.001612376953     0.000555587358     0.001258304774
       3       -0.001313483264     0.000181118047     0.000873684183
       4        0.000733864387    -0.000143648946    -0.000855510975
       5        0.000025703800    -0.000060861260     0.000020897244
       6        0.000027904962    -0.000012208187     0.000010991713
       7       -0.000033596300    -0.000014167169     0.000022972839
       8        0.000025843514    -0.000000304792    -0.000001707764
       9       -0.000003566739    -0.000017880025    -0.000000435843
      10       -0.000003265808    -0.000035517807     0.000003741839
      11       -0.000013291145    -0.000005095692    -0.000019274759
      12        0.000020209954     0.000013736241    -0.000000133180
      13       -0.000003663162     0.000000377057     0.000006448023
      14        0.000014593425     0.000005823602    -0.000001718906
      15       -0.000007167669     0.000003101525     0.000004596527
      16       -0.000008122245     0.000000071184     0.000003980248
      17       -0.000005822429     0.000000566302     0.000005397125
      18        0.000004479469     0.000000649793     0.000003802049
      19        0.000003229258    -0.000001051973    -0.000008268482
      20        0.000008060533     0.000001230320    -0.000000798693
      21       -0.000008807026     0.000004380055    -0.000001787221
      22       -0.000000071215    -0.000001631278    -0.000001251794
      23       -0.000003293335    -0.000000217478    -0.000000611088
      24        0.000001288555     0.000000719661    -0.000000752343
      25        0.000000206832     0.000000415011     0.000001039839
      26       -0.000000333210     0.000000351364     0.000000270639
      27        0.000000661465    -0.000000114456    -0.000000065081

  **** Optimization is complete! (in 5 steps) ****
    Final optimized geometry and variables:
    Molecular point group: c1

    Geometry (in Angstrom), charge = 0, multiplicity = 1:

    H           -4.237038353560     0.672114012816    -0.418694474393
    O           -3.512468978268     0.285883583033    -0.886786949740
    C           -3.371378435803    -1.066953835907    -0.520624887896
    C           -2.262429441580    -1.269143477073     0.504195139757
    H           -4.310540166596    -1.460112074055    -0.139087024195
    H           -3.139526254748    -1.616898760636    -1.426411035091
    C           -0.886159899297    -0.837257526958    -0.003428545568
    H           -2.510956527921    -0.712802689654     1.406506210704
    H           -2.240291522368    -2.321700234780     0.783436751130
    C            0.212625132088    -1.014085923387     1.048005182297
    H           -0.943533203396     0.196784129231    -0.322770882949
    H           -0.633173626493    -1.421559754594    -0.887515200139
    C            1.627918230757    -0.689160087311     0.556171653051
    H           -0.015663162833    -0.396109195856     1.915170706001
    H            0.199077567760    -2.044155476180     1.399576058390
    C            1.864067141441     0.782578532521     0.206396747549
    H            2.336084040153    -0.980513546834     1.329458001162
    H            1.856719965988    -1.306634486571    -0.311090035496
    C            3.312544338916     1.076216922246    -0.189962085204
    H            1.594219538910     1.401931280199     1.060840191937
    H            1.208561600369     1.082850881474    -0.606929781149
    C            3.550099528579     2.544288906085    -0.542247925467
    H            3.974613539809     0.789171132981     0.624353234211
    H            3.586435845321     0.453243700755    -1.038958781232
    H            3.316790332298     3.191775501191     0.298423040360
    H            4.585308326244     2.720930156714    -0.818019990882
    H            2.927995560428     2.852585223230    -1.377775582686

  Mulliken Charges: (a.u.)
   Center  Symbol    Alpha    Beta     Spin     Total
       1     H     0.28035  0.28035  0.00000  0.43930
       2     O     4.37086  4.37086  0.00000 -0.74172
       3     C     3.00149  3.00149  0.00000 -0.00298
       4     C     3.15805  3.15805  0.00000 -0.31610
       5     H     0.42851  0.42851  0.00000  0.14298
       6     H     0.41954  0.41954  0.00000  0.16092
       7     C     3.15698  3.15698  0.00000 -0.31396
       8     H     0.42528  0.42528  0.00000  0.14943
       9     H     0.42575  0.42575  0.00000  0.14850
      10     C     3.15285  3.15285  0.00000 -0.30571
      11     H     0.40587  0.40587  0.00000  0.18825
      12     H     0.42587  0.42587  0.00000  0.14825
      13     C     3.15276  3.15276  0.00000 -0.30552
      14     H     0.42474  0.42474  0.00000  0.15053
      15     H     0.42419  0.42419  0.00000  0.15162
      16     C     3.15292  3.15292  0.00000 -0.30583
      17     H     0.42316  0.42316  0.00000  0.15368
      18     H     0.42439  0.42439  0.00000  0.15123
      19     C     3.15100  3.15100  0.00000 -0.30200
      20     H     0.42526  0.42526  0.00000  0.14949
      21     H     0.41974  0.41974  0.00000  0.16052
      22     C     3.23905  3.23905  0.00000 -0.47810
      23     H     0.42405  0.42405  0.00000  0.15190
      24     H     0.42343  0.42343  0.00000  0.15315
      25     H     0.42231  0.42231  0.00000  0.15539
      26     H     0.42024  0.42024  0.00000  0.15952
      27     H     0.42137  0.42137  0.00000  0.15725

   Total alpha = 37.00000, Total beta = 37.00000, Total charge =  0.00000
