  ==> Input File <==

--------------------------------------------------------------------------
set {
	reference rhf
	basis 6-31G*
}

set_num_threads( 4 )
memory 2 gb

molecule MOL {
0 1

O	 1.846825	 1.296220	 0.000415
C	 1.705091	 0.115954	 0.001797
C	 0.381791	 -0.609817	 0.001258
O	 2.721346	 -0.737485	 -0.000216
C	 -0.823008	 0.326187	 0.001381
H	 0.371250	 -1.265087	 -0.865474
H	 0.370908	 -1.265746	 0.867490
C	 -2.149452	 -0.435131	 -0.000098
H	 -0.770201	 0.977095	 -0.865636
H	 -0.771220	 0.975655	 0.869608
C	 -3.368779	 0.488503	 -0.000883
H	 -2.193746	 -1.087250	 -0.871175
H	 -2.195311	 -1.087803	 0.870418
C	 -4.547641	 -0.079102	 0.788649
H	 -3.677432	 0.675084	 -1.027071
H	 -3.087997	 1.454328	 0.413220
H	 -4.874393	 -1.029790	 0.376777
H	 -5.395837	 0.598137	 0.769632
H	 -4.280095	 -0.244792	 1.828494
C	 4.024888	 -0.184556	 -0.001949
H	 4.179030	 0.422472	 -0.882452
H	 4.701782	 -1.024608	 -0.003642
H	 4.181981	 0.421185	 0.878906

	symmetry c1
}
set optking {
	frozen_dihedral = ("
		15 11 8 12
	")
}

ee = optimize('scf')
oeprop('DIPOLE', 'QUADRUPOLE', 'MULLIKEN_CHARGES')
f=open( 'psi4out.xyz', 'w' )
f.write( "23  " )
f.write( str(ee) + "\n" )
f.write( MOL.save_string_xyz() )
f.close()
--------------------------------------------------------------------------

    Molecular point group: c1
  Charge       = 0
  Multiplicity = 1
  Basis Set: 6-31G*
  Basis Set:
  @DF-RHF Final Energy:  -422.97277002305270
    Total Energy =                       -422.9727700230528171
    Molecular point group: c1
  Basis Set: 6-31G*
  Basis Set:
  Basis Set: 6-31G*
  Basis Set:
  @DF-RHF Final Energy:  -422.97298545725215
    Total Energy =                       -422.9729854572524346
  Basis Set: 6-31G*
  Basis Set:
  Basis Set: 6-31G*
  Basis Set:
  @DF-RHF Final Energy:  -422.97216791178573
    Total Energy =                       -422.9721679117864142
  Basis Set: 6-31G*
  Basis Set:
  Basis Set: 6-31G*
  Basis Set:
  @DF-RHF Final Energy:  -422.97310478857793
    Total Energy =                       -422.9731047885780981
  Basis Set: 6-31G*
  Basis Set:
  Basis Set: 6-31G*
  Basis Set:
  @DF-RHF Final Energy:  -422.97311489704168
    Total Energy =                       -422.9731148970415688
  Basis Set: 6-31G*
  Basis Set:
  Basis Set: 6-31G*
  Basis Set:
  @DF-RHF Final Energy:  -422.97311742438023
    Total Energy =                       -422.9731174243795522
  Basis Set: 6-31G*
  Basis Set:
  Charge       = 0
  Multiplicity = 1
  Basis Set: 6-31G*
  Basis Set:

    Orbital Energies (a.u.)
    -----------------------

    Doubly Occupied:

       1A    -20.603562     2A    -20.545357     3A    -11.372198
       4A    -11.280801     5A    -11.235301     6A    -11.219207
       7A    -11.217806     8A    -11.216363     9A    -11.209400
      10A     -1.469248    11A     -1.362698    12A     -1.092285
      13A     -1.042678    14A     -0.986876    15A     -0.931692
      16A     -0.843346    17A     -0.794737    18A     -0.767280
      19A     -0.696738    20A     -0.683635    21A     -0.671625
      22A     -0.649247    23A     -0.610992    24A     -0.598992
      25A     -0.573778    26A     -0.565121    27A     -0.549009
      28A     -0.524246    29A     -0.522060    30A     -0.504676
      31A     -0.488092    32A     -0.468957    33A     -0.463902
      34A     -0.459640    35A     -0.455257    36A     -0.435098

  @DF-RHF Final Energy:  -422.97311759004049

   => Energetics <=

    Nuclear Repulsion Energy =            452.2924491189004357
    One-Electron Energy =               -1472.3073215903486926
    Two-Electron Energy =                 597.0417548814077691
    DFT Exchange-Correlation Energy =       0.0000000000000000
    Empirical Dispersion Energy =           0.0000000000000000
    PCM Polarization Energy =               0.0000000000000000
    EFP Energy =                            0.0000000000000000
    Total Energy =                       -422.9731175900404878
    Molecular point group: c1
  Basis Set: 6-31G*
  Basis Set:

  -Total Gradient:
     Atom            X                  Y                   Z
    ------   -----------------  -----------------  -----------------
       1       -0.000010733583     0.000005163565    -0.000005370009
       2        0.000007947674     0.000002935379     0.000009879520
       3        0.000001724823    -0.000001714178    -0.000016263152
       4       -0.000003854454    -0.000010810105    -0.000000224977
       5        0.000001118939     0.000022338963     0.000034375582
       6        0.000005091494    -0.000005324232    -0.000004220974
       7       -0.000001665677     0.000005219026    -0.000002230393
       8       -0.003425222287    -0.004309234203     0.002801780825
       9       -0.000000269978    -0.000009552587     0.000004845283
      10        0.000006335219     0.000010909506     0.000005299222
      11        0.003753894657     0.004841032978    -0.000717748952
      12        0.002250236512     0.002863471476    -0.002257290923
      13       -0.000004269873     0.000005238694     0.000002024534
      14        0.000017345556    -0.000009153894     0.000021371573
      15       -0.002609520980    -0.003394402144     0.000115233324
      16        0.000019161728    -0.000021686810     0.000004383982
      17        0.000006936252     0.000000966281     0.000004321445
      18        0.000005584749     0.000001524816    -0.000009479100
      19       -0.000013875366     0.000001817615     0.000011118279
      20       -0.000002372100     0.000003264806    -0.000002257387
      21        0.000000808660     0.000000158616     0.000000225445
      22       -0.000002907881    -0.000001521015     0.000000198778
      23       -0.000001494085    -0.000000642551     0.000000028075

  **** Optimization is complete! (in 7 steps) ****
    Final optimized geometry and variables:
    Molecular point group: c1

    Geometry (in Angstrom), charge = 0, multiplicity = 1:

    O            1.835891961515     1.272232281430    -0.079883769460
    C            1.693639774034     0.092116204268    -0.092386354366
    C            0.370101823383    -0.633201037050    -0.082018202448
    O            2.709378993378    -0.761610923483    -0.117815112395
    C           -0.834275928069     0.302578424793    -0.054913137181
    H            0.347542894145    -1.279715787723    -0.955094903545
    H            0.371068481876    -1.298151565261     0.777537604737
    C           -2.163059765951    -0.458504266511    -0.034135814417
    H           -0.798751635950     0.957529361913    -0.920248609940
    H           -0.766618068030     0.948599809325     0.814697496190
    C           -3.383538426833     0.476822196227    -0.077443991157
    H           -2.187623351866    -1.119928189044    -0.897513485284
    H           -2.204143363365    -1.087128157018     0.852505164156
    C           -4.600249533357    -0.100876649041     0.648687688298
    H           -3.663739732057     0.652947505495    -1.112501437090
    H           -3.131853987983     1.440691627222     0.355862747705
    H           -4.880888488927    -1.065749141025     0.235071565054
    H           -5.459304943566     0.557492114100     0.563190018449
    H           -4.394839221105    -0.243047779152     1.705929864015
    C            4.013050742206    -0.209090841057    -0.129931569327
    H            4.156155025387     0.408124855247    -1.005194134192
    H            4.689487121511    -1.049325089875    -0.150232495172
    H            4.181793564790     0.386205227430     0.755883215352

  Mulliken Charges: (a.u.)
   Center  Symbol    Alpha    Beta     Spin     Total
       1     O     4.28608  4.28608  0.00000 -0.57217
       2     C     2.60504  2.60504  0.00000  0.78993
       3     C     3.20842  3.20842  0.00000 -0.41684
       4     O     4.30730  4.30730  0.00000 -0.61460
       5     C     3.15411  3.15411  0.00000 -0.30823
       6     H     0.40082  0.40082  0.00000  0.19835
       7     H     0.40074  0.40074  0.00000  0.19852
       8     C     3.15488  3.15488  0.00000 -0.30977
       9     H     0.41171  0.41171  0.00000  0.17657
      10     H     0.41167  0.41167  0.00000  0.17667
      11     C     3.15322  3.15322  0.00000 -0.30643
      12     H     0.42241  0.42241  0.00000  0.15517
      13     H     0.42218  0.42218  0.00000  0.15564
      14     C     3.24018  3.24018  0.00000 -0.48035
      15     H     0.42031  0.42031  0.00000  0.15939
      16     H     0.41859  0.41859  0.00000  0.16282
      17     H     0.42196  0.42196  0.00000  0.15608
      18     H     0.41949  0.41949  0.00000  0.16102
      19     H     0.42184  0.42184  0.00000  0.15632
      20     C     3.09243  3.09243  0.00000 -0.18486
      21     H     0.40908  0.40908  0.00000  0.18183
      22     H     0.40845  0.40845  0.00000  0.18310
      23     H     0.40909  0.40909  0.00000  0.18181

   Total alpha = 36.00000, Total beta = 36.00000, Total charge = -0.00000
