  ==> Input File <==

--------------------------------------------------------------------------
set {
	reference rhf
	basis cc-pvtz
}

set_num_threads( 4 )
memory 2 gb

molecule MOL {
0 1

H	 1.068878	 -1.003545	 1.884796
C	 0.136837	 -1.105264	 1.348453
O	 -0.000000	 0.000000	 0.518769
H	 0.160465	 -2.031417	 0.777894
H	 -0.676617	 -1.166257	 2.068473
C	 -1.165153	 0.000000	 -0.236961
H	 -1.229451	 0.882440	 -0.870223
H	 -2.002557	 0.000000	 0.445289
H	 -1.229451	 -0.882440	 -0.870223

	symmetry c1
}
set optking {
	frozen_dihedral = ("
		2 3 6 7
	")
}

ee = optimize('scf')
oeprop('DIPOLE', 'QUADRUPOLE', 'MULLIKEN_CHARGES')
f=open( 'psi4out.xyz', 'w' )
f.write( "9  " )
f.write( str(ee) + "\n" )
f.write( MOL.save_string_xyz() )
f.close()
--------------------------------------------------------------------------

    Molecular point group: c1
  Charge       = 0
  Multiplicity = 1
  Basis Set: CC-PVTZ
  Basis Set:
  @DF-RHF Final Energy:  -154.12617039769799
    Total Energy =                       -154.1261703976979618
    Molecular point group: c1
  Basis Set: CC-PVTZ
  Basis Set:
  Basis Set: CC-PVTZ
  Basis Set:
  @DF-RHF Final Energy:  -154.12697862809148
    Total Energy =                       -154.1269786280914218
  Basis Set: CC-PVTZ
  Basis Set:
  Basis Set: CC-PVTZ
  Basis Set:
  @DF-RHF Final Energy:  -154.12719495569911
    Total Energy =                       -154.1271949556991387
  Basis Set: CC-PVTZ
  Basis Set:
  Charge       = 0
  Multiplicity = 1
  Basis Set: CC-PVTZ
  Basis Set:

    Orbital Energies (a.u.)
    -----------------------

    Doubly Occupied:

       1A    -20.550452     2A    -11.263246     3A    -11.263222
       4A     -1.382984     5A     -0.975889     6A     -0.872743
       7A     -0.664276     8A     -0.655914     9A     -0.647126
      10A     -0.551556    11A     -0.529810    12A     -0.477087
      13A     -0.420495

  @DF-RHF Final Energy:  -154.12719592556564

   => Energetics <=

    Nuclear Repulsion Energy =             84.8685465518358626
    One-Electron Energy =                -377.4818802154167088
    Two-Electron Energy =                 138.4861377380152021
    DFT Exchange-Correlation Energy =       0.0000000000000000
    Empirical Dispersion Energy =           0.0000000000000000
    PCM Polarization Energy =               0.0000000000000000
    EFP Energy =                            0.0000000000000000
    Total Energy =                       -154.1271959255656725
    Molecular point group: c1
  Basis Set: CC-PVTZ
  Basis Set:

  -Total Gradient:
     Atom            X                  Y                   Z
    ------   -----------------  -----------------  -----------------
       1       -0.000012512329     0.000086014740    -0.000059392047
       2       -0.000167170455    -0.000071572687    -0.000084290197
       3        0.000048357568     0.000078692164     0.000005319423
       4        0.000021429303    -0.000023060821     0.000007699689
       5        0.000009166457     0.000011674106     0.000018755404
       6       -0.000036150532    -0.000084787872     0.000022604070
       7        0.000062981967     0.000009355411     0.000037184091
       8        0.000037857855     0.000001214717     0.000031959316
       9        0.000036040166    -0.000007529758     0.000020160251

  **** Optimization is complete! (in 4 steps) ****
    Final optimized geometry and variables:
    Molecular point group: c1

    Geometry (in Angstrom), charge = 0, multiplicity = 1:

    H            1.437374118422    -0.615513288044     1.327708013731
    C            0.498606499254    -0.720414403649     0.803532803590
    O            0.353077078438     0.378754244684    -0.032566339313
    H            0.514318976268    -1.651122310195     0.239897375650
    H           -0.306089503665    -0.775102376040     1.534011282468
    C           -0.821178488737     0.374422270407    -0.773825910907
    H           -0.831355189443     1.266066657417    -1.383692316703
    H           -1.698593525116     0.380089447638    -0.130254394769
    H           -0.878434916064    -0.495853792673    -1.424533404573

  Mulliken Charges: (a.u.)
   Center  Symbol    Alpha    Beta     Spin     Total
       1     H     0.44827  0.44827  0.00000  0.10345
       2     C     3.02199  3.02199  0.00000 -0.04398
       3     O     4.16710  4.16710  0.00000 -0.33421
       4     H     0.47309  0.47309  0.00000  0.05382
       5     H     0.47310  0.47310  0.00000  0.05381
       6     C     3.02199  3.02199  0.00000 -0.04398
       7     H     0.44827  0.44827  0.00000  0.10345
       8     H     0.47309  0.47309  0.00000  0.05382
       9     H     0.47309  0.47309  0.00000  0.05382

   Total alpha = 13.00000, Total beta = 13.00000, Total charge = -0.00000
