                              Psi4 1.0.54 Driver

  ==> Input File <==

--------------------------------------------------------------------------
set {
	reference rhf
	basis cc-pvtz
}

set_num_threads( 4 )
memory 2 gb

molecule MOL {
0 1

H	 2.493697	 -0.047622	 1.257777
C	 1.948180	 -0.217873	 0.320185
C	 0.692262	 0.592428	 0.156232
O	 2.358324	 -0.996099	 -0.469612
C	 -0.554654	 -0.292621	 0.086567
H	 0.791858	 1.203694	 -0.731051
H	 0.617379	 1.254358	 1.016534
C	 -1.846385	 0.513195	 -0.016346
H	 -0.473986	 -0.956115	 -0.769708
H	 -0.597929	 -0.929215	 0.966651
C	 -3.089953	 -0.365049	 -0.098564
H	 -1.798267	 1.154820	 -0.891143
H	 -1.925398	 1.173265	 0.842889
H	 -3.055079	 -1.012299	 -0.968245
H	 -3.988403	 0.236438	 -0.170014
H	 -3.183055	 -0.995885	 0.779079

	symmetry c1
}
set optking {
	frozen_dihedral = ("
		4 2 3 6
	")
}

ee,wfn = optimize('scf', return_wfn=True)
oeprop( wfn, 'DIPOLE', 'QUADRUPOLE', 'MULLIKEN_CHARGES')
f=open( 'psi4out.xyz', 'w' )
f.write( "16  " )
f.write( str(ee) + "\n" )
f.write( MOL.save_string_xyz() )
f.close()
--------------------------------------------------------------------------

    Molecular point group: c1
  Charge       = 0
  Multiplicity = 1
  Basis Set: CC-PVTZ
  Basis Set:
  @DF-RHF Final Energy:  -270.11693079952215
    Total Energy =                       -270.1169307995221516
    Molecular point group: c1
  Basis Set: CC-PVTZ
  Basis Set:
  Basis Set: CC-PVTZ
  Basis Set:
  @DF-RHF Final Energy:  -270.11724136022792
    Total Energy =                       -270.1172413602280358
  Basis Set: CC-PVTZ
  Basis Set:
  Basis Set: CC-PVTZ
  Basis Set:
  @DF-RHF Final Energy:  -270.11736118367008
    Total Energy =                       -270.1173611836702548
  Basis Set: CC-PVTZ
  Basis Set:
  Basis Set: CC-PVTZ
  Basis Set:
  @DF-RHF Final Energy:  -270.11740447528371
    Total Energy =                       -270.1174044752839336
  Basis Set: CC-PVTZ
  Basis Set:
  Basis Set: CC-PVTZ
  Basis Set:
  @DF-RHF Final Energy:  -270.11740611549590
    Total Energy =                       -270.1174061154960100
  Basis Set: CC-PVTZ
  Basis Set:
  Charge       = 0
  Multiplicity = 1
  Basis Set: CC-PVTZ
  Basis Set:

    Orbital Energies (a.u.)
    -----------------------

    Doubly Occupied:

       1A    -20.552268     2A    -11.322350     3A    -11.233947
       4A    -11.227791     5A    -11.223265     6A    -11.212971
       7A     -1.407738     8A     -1.092243     9A     -1.015950
      10A     -0.906652    11A     -0.813551    12A     -0.782388
      13A     -0.684555    14A     -0.647700    15A     -0.631997
      16A     -0.602187    17A     -0.579932    18A     -0.549336
      19A     -0.529046    20A     -0.506506    21A     -0.483600
      22A     -0.480050    23A     -0.474691    24A     -0.410853

  @DF-RHF Final Energy:  -270.11740680415545

   => Energetics <=

    Nuclear Repulsion Energy =            231.4183628509033497
    One-Electron Energy =                -824.3284084451704530
    Two-Electron Energy =                 322.7926387901115959
    DFT Exchange-Correlation Energy =       0.0000000000000000
    Empirical Dispersion Energy =           0.0000000000000000
    PCM Polarization Energy =               0.0000000000000000
    EFP Energy =                            0.0000000000000000
    Total Energy =                       -270.1174068041555074
    Molecular point group: c1
  Basis Set: CC-PVTZ
  Basis Set:

  -Total Gradient:
     Atom            X                  Y                   Z
    ------   -----------------  -----------------  -----------------
       1        0.000004002711     0.000004574153    -0.000009277649
       2       -0.000063983518    -0.000136963591     0.000006404864
       3        0.000054315876     0.000111485508     0.000057323824
       4        0.000052944301     0.000068399448    -0.000029706910
       5       -0.000005009881     0.000000443577    -0.000036799136
       6       -0.000059396448    -0.000042300654    -0.000030106456
       7        0.000007651597    -0.000014416236     0.000019143372
       8        0.000005182907     0.000000426014    -0.000024607416
       9        0.000014740909    -0.000029384819     0.000022188962
      10       -0.000009860262     0.000035545861     0.000025438606
      11        0.000003623937    -0.000000547068    -0.000005122576
      12        0.000003393528     0.000001539791     0.000001743548
      13       -0.000007768439     0.000000835771     0.000001625437
      14       -0.000001184241     0.000003720748    -0.000002187884
      15       -0.000000687553     0.000000443089     0.000005655455
      16        0.000002034580    -0.000003801589    -0.000001716040

  **** Optimization is complete! (in 6 steps) ****
    Final optimized geometry and variables:
    Molecular point group: c1

    Geometry (in Angstrom), charge = 0, multiplicity = 1:

    H            2.655679154265     0.055138039791     1.241867575261
    C            2.052577615995    -0.069609610800     0.334929017725
    C            0.775391511972     0.733884329648     0.255284875525
    O            2.415249118601    -0.805798538259    -0.516599709626
    C           -0.460112696162    -0.162155592485     0.130732592501
    H            0.852369214412     1.373076676112    -0.618754341042
    H            0.695371510839     1.375714890159     1.125665620925
    C           -1.752815245142     0.634122209532    -0.017605222362
    H           -0.328741337650    -0.817146241125    -0.722241372207
    H           -0.530110636643    -0.802936509693     1.005929779130
    C           -2.985401543344    -0.255463349814    -0.137943672753
    H           -1.680763397989     1.271790617496    -0.894157574530
    H           -1.868953448076     1.298156770134     0.834619576590
    H           -2.913166570095    -0.908103308829    -1.001155505149
    H           -3.886305250219     0.337238752630    -0.245066536089
    H           -3.103660768517    -0.881594719545     0.740012806173

  Mulliken Charges: (a.u.)
   Center  Symbol    Alpha    Beta     Spin     Total
       1     H     0.45569  0.45569  0.00000  0.08863
       2     C     2.91791  2.91791  0.00000  0.16419
       3     C     3.08491  3.08491  0.00000 -0.16981
       4     O     4.16761  4.16761  0.00000 -0.33522
       5     C     3.09248  3.09248  0.00000 -0.18495
       6     H     0.44374  0.44374  0.00000  0.11252
       7     H     0.44900  0.44900  0.00000  0.10200
       8     C     3.08461  3.08461  0.00000 -0.16923
       9     H     0.44005  0.44005  0.00000  0.11989
      10     H     0.45251  0.45251  0.00000  0.09498
      11     C     3.14911  3.14911  0.00000 -0.29823
      12     H     0.45264  0.45264  0.00000  0.09472
      13     H     0.45467  0.45467  0.00000  0.09065
      14     H     0.45275  0.45275  0.00000  0.09451
      15     H     0.44771  0.44771  0.00000  0.10458
      16     H     0.45462  0.45462  0.00000  0.09077

   Total alpha = 24.00000, Total beta = 24.00000, Total charge = -0.00000

*** Psi4 exiting successfully. Buy a developer a beer!
