                              Psi4 1.0.54 Driver

  ==> Input File <==

--------------------------------------------------------------------------
set {
	reference rhf
	basis cc-pvtz
}

set_num_threads( 4 )
memory 2 gb

molecule MOL {
0 1

O	 -1.510770	 1.240811	 -0.054933
C	 -1.081510	 0.147522	 0.122720
C	 0.327029	 -0.064006	 0.641890
C	 -1.903028	 -1.084121	 -0.174656
C	 1.349460	 -0.017068	 -0.500215
H	 0.399029	 -1.014606	 1.159950
H	 0.538021	 0.726928	 1.350471
C	 0.692738	 0.181074	 -1.861539
H	 2.060151	 0.785098	 -0.323339
H	 1.915883	 -0.940904	 -0.495821
H	 1.435043	 0.199189	 -2.650643
H	 0.143612	 1.115764	 -1.901108
H	 -0.003168	 -0.621697	 -2.078665
H	 -1.341891	 -1.779207	 -0.789259
H	 -2.820449	 -0.808163	 -0.671328
H	 -2.133314	 -1.593056	 0.755831

	symmetry c1
}
set optking {
	frozen_dihedral = ("
		9 5 3 2
	")
}

ee,wfn = optimize('scf', return_wfn=True)
oeprop( wfn, 'DIPOLE', 'QUADRUPOLE', 'MULLIKEN_CHARGES')
f=open( 'psi4out.xyz', 'w' )
f.write( "16  " )
f.write( str(ee) + "\n" )
f.write( MOL.save_string_xyz() )
f.close()
--------------------------------------------------------------------------

    Molecular point group: c1
  Charge       = 0
  Multiplicity = 1
  Basis Set: CC-PVTZ
  Basis Set:
  @DF-RHF Final Energy:  -270.11624053407718
    Total Energy =                       -270.1162405340772352
    Molecular point group: c1
  Basis Set: CC-PVTZ
  Basis Set:
  Basis Set: CC-PVTZ
  Basis Set:
  @DF-RHF Final Energy:  -270.11926388312872
    Total Energy =                       -270.1192638831286672
  Basis Set: CC-PVTZ
  Basis Set:
  Basis Set: CC-PVTZ
  Basis Set:
  @DF-RHF Final Energy:  -270.11797890773096
    Total Energy =                       -270.1179789077307305
  Basis Set: CC-PVTZ
  Basis Set:
  Basis Set: CC-PVTZ
  Basis Set:
  @DF-RHF Final Energy:  -270.12022231124399
    Total Energy =                       -270.1202223112438787
  Basis Set: CC-PVTZ
  Basis Set:
  Basis Set: CC-PVTZ
  Basis Set:
  @DF-RHF Final Energy:  -270.12030145860570
    Total Energy =                       -270.1203014586056952
  Basis Set: CC-PVTZ
  Basis Set:
  Basis Set: CC-PVTZ
  Basis Set:
  @DF-RHF Final Energy:  -270.12030822162365
    Total Energy =                       -270.1203082216234179
  Basis Set: CC-PVTZ
  Basis Set:
  Charge       = 0
  Multiplicity = 1
  Basis Set: CC-PVTZ
  Basis Set:

    Orbital Energies (a.u.)
    -----------------------

    Doubly Occupied:

       1A    -20.536778     2A    -11.320145     3A    -11.231678
       4A    -11.228523     5A    -11.226958     6A    -11.213361
       7A     -1.397454     8A     -1.076901     9A     -1.011716
      10A     -0.951791    11A     -0.834441    12A     -0.725747
      13A     -0.656858    14A     -0.644156    15A     -0.622849
      16A     -0.611944    17A     -0.577031    18A     -0.558358
      19A     -0.543445    20A     -0.508615    21A     -0.504421
      22A     -0.475443    23A     -0.473502    24A     -0.399847

  @DF-RHF Final Energy:  -270.12030890120616

   => Energetics <=

    Nuclear Repulsion Energy =            243.2660104923338622
    One-Electron Energy =                -848.1087179627378418
    Two-Electron Energy =                 334.7223985691976509
    DFT Exchange-Correlation Energy =       0.0000000000000000
    Empirical Dispersion Energy =           0.0000000000000000
    PCM Polarization Energy =               0.0000000000000000
    EFP Energy =                            0.0000000000000000
    Total Energy =                       -270.1203089012063288
    Molecular point group: c1
  Basis Set: CC-PVTZ
  Basis Set:

  -Total Gradient:
     Atom            X                  Y                   Z
    ------   -----------------  -----------------  -----------------
       1       -0.000000087776    -0.000059688136    -0.000045604902
       2        0.000012296187     0.000142040902     0.000130189429
       3       -0.000043013808    -0.000117010972    -0.000088294167
       4        0.000003484833    -0.000004567308    -0.000092608220
       5        0.000144425950    -0.000071907856     0.000090540140
       6        0.000012743511     0.000010924096    -0.000007067873
       7        0.000013748518    -0.000001172861     0.000012282085
       8        0.000013888000     0.000008397592    -0.000007809547
       9       -0.000082610268     0.000073374899    -0.000049088820
      10        0.000008268127    -0.000002447635     0.000004325407
      11       -0.000018398389     0.000006477683     0.000015747726
      12       -0.000025570253    -0.000008613430     0.000006315164
      13        0.000001411885     0.000000099346    -0.000020583600
      14       -0.000011046163     0.000013338257     0.000027061869
      15       -0.000026129139    -0.000012099306     0.000006419191
      16       -0.000003411218     0.000022854733     0.000018176118

  **** Optimization is complete! (in 7 steps) ****
    Final optimized geometry and variables:
    Molecular point group: c1

    Geometry (in Angstrom), charge = 0, multiplicity = 1:

    O           -1.207360934395     1.123950033463     0.418746030036
    C           -0.733712498346     0.038843112727     0.515110320494
    C            0.728631229974    -0.151854824594     0.875630820915
    C           -1.566088929911    -1.204474690970     0.309030482493
    C            1.720867761863    -0.027298338240    -0.319214568859
    H            0.853589264439    -1.117638012806     1.349726295077
    H            0.958224437610     0.604932756135     1.612898438001
    C            1.111416316143     0.214565476759    -1.699459898376
    H            2.405439182961     0.783321578130    -0.105512372640
    H            2.323522305941    -0.926661748517    -0.358422096018
    H            1.899900628099     0.286371064299    -2.439102537692
    H            0.540371071725     1.132776548349    -1.727832360918
    H            0.456788987856    -0.595057059426    -2.003447091682
    H           -1.062178921257    -1.903590168400    -0.348063229551
    H           -2.532578199772    -0.942960602366    -0.093928423535
    H           -1.697251484995    -1.702069861653     1.265001528088

  Mulliken Charges: (a.u.)
   Center  Symbol    Alpha    Beta     Spin     Total
       1     O     4.18095  4.18095  0.00000 -0.36190
       2     C     2.85140  2.85140  0.00000  0.29721
       3     C     3.10841  3.10841  0.00000 -0.21682
       4     C     3.15420  3.15420  0.00000 -0.30839
       5     C     3.08730  3.08730  0.00000 -0.17460
       6     H     0.44743  0.44743  0.00000  0.10513
       7     H     0.43797  0.43797  0.00000  0.12406
       8     C     3.15862  3.15862  0.00000 -0.31723
       9     H     0.44653  0.44653  0.00000  0.10694
      10     H     0.44934  0.44934  0.00000  0.10132
      11     H     0.44599  0.44599  0.00000  0.10802
      12     H     0.44014  0.44014  0.00000  0.11972
      13     H     0.45609  0.45609  0.00000  0.08782
      14     H     0.45179  0.45179  0.00000  0.09643
      15     H     0.43655  0.43655  0.00000  0.12689
      16     H     0.44730  0.44730  0.00000  0.10541

   Total alpha = 24.00000, Total beta = 24.00000, Total charge = -0.00000

*** Psi4 exiting successfully. Buy a developer a beer!
