                              Psi4 1.0.54 Driver

  ==> Input File <==

--------------------------------------------------------------------------
set {
	reference rhf
	basis cc-pvtz
}

set_num_threads( 4 )
memory 2 gb

molecule MOL {
0 1

H	 -3.144994	 -1.202467	 -0.018751
O	 -2.321472	 -0.864941	 -0.318626
C	 -2.021813	 0.336996	 0.342658
C	 -0.669613	 0.837286	 -0.127252
H	 -2.780861	 1.084746	 0.127159
H	 -2.006390	 0.184138	 1.420053
C	 0.490865	 -0.082543	 0.241244
H	 -0.708709	 0.967192	 -1.204587
H	 -0.507562	 1.822272	 0.303070
C	 0.033402	 -1.445417	 0.753013
H	 1.103482	 0.400687	 0.993737
H	 1.126548	 -0.222693	 -0.630758
C	 1.192671	 -2.368138	 1.114214
H	 -0.599817	 -1.306004	 1.624965
H	 -0.587036	 -1.925255	 0.000349
H	 1.811972	 -1.931186	 1.890393
H	 0.835621	 -3.325836	 1.475647
H	 1.826876	 -2.555177	 0.253839

	symmetry c1
}
set optking {
	frozen_dihedral = ("
		10 7 4 8
	")
}

ee,wfn = optimize('scf', return_wfn=True)
oeprop( wfn, 'DIPOLE', 'QUADRUPOLE', 'MULLIKEN_CHARGES')
f=open( 'psi4out.xyz', 'w' )
f.write( "18  " )
f.write( str(ee) + "\n" )
f.write( MOL.save_string_xyz() )
f.close()
--------------------------------------------------------------------------

    Molecular point group: c1
  Charge       = 0
  Multiplicity = 1
  Basis Set: CC-PVTZ
  Basis Set:
  @DF-RHF Final Energy:  -271.26735073581546
    Total Energy =                       -271.2673507358154552
    Molecular point group: c1
  Basis Set: CC-PVTZ
  Basis Set:
  Basis Set: CC-PVTZ
  Basis Set:
  @DF-RHF Final Energy:  -271.27527143813415
    Total Energy =                       -271.2752714381340979
  Basis Set: CC-PVTZ
  Basis Set:
  Basis Set: CC-PVTZ
  Basis Set:
  @DF-RHF Final Energy:  -271.27668187230307
    Total Energy =                       -271.2766818723031861
  Basis Set: CC-PVTZ
  Basis Set:
  Basis Set: CC-PVTZ
  Basis Set:
  @DF-RHF Final Energy:  -271.27697236055383
    Total Energy =                       -271.2769723605539411
  Basis Set: CC-PVTZ
  Basis Set:
  Basis Set: CC-PVTZ
  Basis Set:
  @DF-RHF Final Energy:  -271.27705449816330
    Total Energy =                       -271.2770544981632383
  Basis Set: CC-PVTZ
  Basis Set:
  Basis Set: CC-PVTZ
  Basis Set:
  @DF-RHF Final Energy:  -271.27708081235079
    Total Energy =                       -271.2770808123507322
  Basis Set: CC-PVTZ
  Basis Set:
  Basis Set: CC-PVTZ
  Basis Set:
  @DF-RHF Final Energy:  -271.27708339626190
    Total Energy =                       -271.2770833962617303
  Basis Set: CC-PVTZ
  Basis Set:
  Charge       = 0
  Multiplicity = 1
  Basis Set: CC-PVTZ
  Basis Set:

    Orbital Energies (a.u.)
    -----------------------

    Doubly Occupied:

       1A    -20.546298     2A    -11.266753     3A    -11.211791
       4A    -11.208460     5A    -11.203350     6A    -11.200397
       7A     -1.364363     8A     -1.071209     9A     -1.007418
      10A     -0.914262    11A     -0.832849    12A     -0.767288
      13A     -0.707589    14A     -0.647405    15A     -0.623917
      16A     -0.582646    17A     -0.566352    18A     -0.553281
      19A     -0.534964    20A     -0.500555    21A     -0.487766
      22A     -0.469518    23A     -0.449535    24A     -0.447305
      25A     -0.427772

  @DF-RHF Final Energy:  -271.27708361940654

   => Energetics <=

    Nuclear Repulsion Energy =            254.9052777472972764
    One-Electron Energy =                -873.1786416315303541
    Two-Electron Energy =                 346.9962802648265665
    DFT Exchange-Correlation Energy =       0.0000000000000000
    Empirical Dispersion Energy =           0.0000000000000000
    PCM Polarization Energy =               0.0000000000000000
    EFP Energy =                            0.0000000000000000
    Total Energy =                       -271.2770836194064827
    Molecular point group: c1
  Basis Set: CC-PVTZ
  Basis Set:

  -Total Gradient:
     Atom            X                  Y                   Z
    ------   -----------------  -----------------  -----------------
       1        0.000005710062     0.000004527109    -0.000005091933
       2       -0.000010879009    -0.000005535197     0.000011634113
       3        0.000000257075     0.000000023277     0.000005273813
       4       -0.002266541336    -0.002458601396     0.000708530670
       5        0.000006555587    -0.000007004190    -0.000005507767
       6       -0.000008905340    -0.000006404317    -0.000008642183
       7        0.000477068874    -0.000642964934    -0.002973436523
       8        0.001823702077     0.002296915977     0.000196133850
       9        0.000008346913    -0.000000736963     0.000007867390
      10       -0.000031265630     0.000808681944     0.002072514256
      11        0.000000175156     0.000009379933    -0.000004078439
      12       -0.000004210940     0.000005343185    -0.000005095063
      13       -0.000014895670     0.000014480451     0.000008692746
      14       -0.000001185066     0.000003452335     0.000013724955
      15       -0.000016685827    -0.000007380740    -0.000022575226
      16        0.000017061321    -0.000003354744     0.000010611615
      17       -0.000001599277    -0.000002045136     0.000003020744
      18        0.000017291029    -0.000008776593    -0.000013577019

  **** Optimization is complete! (in 8 steps) ****
    Final optimized geometry and variables:
    Molecular point group: c1

    Geometry (in Angstrom), charge = 0, multiplicity = 1:

    H           -2.827654580693    -0.265049280613    -0.416784626355
    O           -1.966435754044    -0.044293839554    -0.719976708604
    C           -1.466056990558     1.049446123595     0.004821364225
    C           -0.061785172968     1.379201652419    -0.466922600692
    H           -2.095538994561     1.920465293663    -0.158762521157
    H           -1.475690208441     0.839642091093     1.071175739587
    C            1.093246001068     0.423049786444    -0.076239878916
    H           -0.094344187197     1.497813104602    -1.543979275200
    H            0.171700733779     2.365812071980    -0.078137093833
    C            0.729411399524    -0.960121863249     0.465724648457
    H            1.703999677243     0.915968975816     0.675052645199
    H            1.739206666236     0.295788124651    -0.938459142242
    C            1.970368855554    -1.771136824451     0.826469789963
    H            0.106106440020    -0.860282392661     1.348317091333
    H            0.139940906658    -1.500587051895    -0.263217249601
    H            2.565268952583    -1.268789479549     1.582706549690
    H            1.700557438528    -2.747242101995     1.213613052677
    H            2.604050651928    -1.924609026722    -0.040974700352

  Mulliken Charges: (a.u.)
   Center  Symbol    Alpha    Beta     Spin     Total
       1     H     0.39591  0.39591  0.00000  0.20818
       2     O     4.19980  4.19980  0.00000 -0.39961
       3     C     2.98433  2.98433  0.00000  0.03135
       4     C     3.09352  3.09352  0.00000 -0.18704
       5     H     0.45917  0.45917  0.00000  0.08166
       6     H     0.46827  0.46827  0.00000  0.06345
       7     C     3.09402  3.09402  0.00000 -0.18804
       8     H     0.45018  0.45018  0.00000  0.09964
       9     H     0.45137  0.45137  0.00000  0.09727
      10     C     3.08069  3.08069  0.00000 -0.16137
      11     H     0.45552  0.45552  0.00000  0.08895
      12     H     0.45162  0.45162  0.00000  0.09675
      13     C     3.15149  3.15149  0.00000 -0.30298
      14     H     0.45903  0.45903  0.00000  0.08194
      15     H     0.44258  0.44258  0.00000  0.11485
      16     H     0.45783  0.45783  0.00000  0.08433
      17     H     0.44921  0.44921  0.00000  0.10159
      18     H     0.45545  0.45545  0.00000  0.08910

   Total alpha = 25.00000, Total beta = 25.00000, Total charge =  0.00000

*** Psi4 exiting successfully. Buy a developer a beer!
