                              Psi4 1.0.54 Driver

  ==> Input File <==

--------------------------------------------------------------------------
set {
	reference rhf
	basis cc-pvtz
}

set_num_threads( 4 )
memory 2 gb

molecule MOL {
0 1

O	 -3.534348	 -0.148520	 -0.750541
C	 -2.664672	 0.129869	 0.003507
C	 -2.792223	 1.178401	 1.075232
O	 -1.481217	 -0.452708	 0.001092
H	 -3.619524	 0.912974	 1.719593
H	 -1.888528	 1.273447	 1.655698
H	 -3.031020	 2.123008	 0.605372
C	 -0.332055	 0.384012	 -0.000250
C	 0.892252	 -0.506059	 -0.000295
H	 -0.360822	 1.020205	 -0.874146
H	 -0.359817	 1.021310	 0.872861
C	 2.188199	 0.299473	 -0.001416
H	 0.857046	 -1.152781	 -0.871031
H	 0.857910	 -1.151798	 0.871202
C	 3.437151	 -0.577593	 -0.000991
H	 2.209565	 0.950707	 -0.871712
H	 2.210062	 0.952234	 0.867721
C	 4.732399	 0.226982	 -0.000914
H	 3.417321	 -1.229122	 -0.869998
H	 3.416993	 -1.228707	 0.868337
H	 4.797903	 0.863451	 -0.876963
H	 5.598517	 -0.424436	 -0.000420
H	 4.797415	 0.864118	 0.874691

	symmetry c1
}
set optking {
	frozen_dihedral = ("
		1 2 4 8
	")
}

ee,wfn = optimize('scf', return_wfn=True)
oeprop( wfn, 'DIPOLE', 'QUADRUPOLE', 'MULLIKEN_CHARGES')
f=open( 'psi4out.xyz', 'w' )
f.write( "23  " )
f.write( str(ee) + "\n" )
f.write( MOL.save_string_xyz() )
f.close()
--------------------------------------------------------------------------

    Molecular point group: c1
  Charge       = 0
  Multiplicity = 1
  Basis Set: CC-PVTZ
  Basis Set:
  @DF-RHF Final Energy:  -423.11054855608620
    Total Energy =                       -423.1105485560860870
    Molecular point group: c1
  Basis Set: CC-PVTZ
  Basis Set:
  Basis Set: CC-PVTZ
  Basis Set:
  @DF-RHF Final Energy:  -422.97736946580261
    Total Energy =                       -422.9773694658028944
  Basis Set: CC-PVTZ
  Basis Set:
  Basis Set: CC-PVTZ
  Basis Set:
  @DF-RHF Final Energy:  -423.08335921221146
    Total Energy =                       -423.0833592122111213
  Basis Set: CC-PVTZ
  Basis Set:
  Basis Set: CC-PVTZ
  Basis Set:
  @DF-RHF Final Energy:  -423.11332174892794
    Total Energy =                       -423.1133217489273193
  Basis Set: CC-PVTZ
  Basis Set:
  @DF-RHF Final Energy:  -423.05525846597931
    Total Energy =                       -423.0552584659794775
  @DF-RHF Final Energy:  -423.11183140973458
    Total Energy =                       -423.1118314097344637
  @DF-RHF Final Energy:  -423.11611061912100
    Total Energy =                       -423.1161106191211729
  @DF-RHF Final Energy:  -423.11613791543078
    Total Energy =                       -423.1161379154307269
  @DF-RHF Final Energy:  -423.11666365442170
    Total Energy =                       -423.1166636544219273
  @DF-RHF Final Energy:  -423.11683415810023
    Total Energy =                       -423.1168341581000050
  @DF-RHF Final Energy:  -423.11722064793065
    Total Energy =                       -423.1172206479305942
  @DF-RHF Final Energy:  -423.11762322667795
    Total Energy =                       -423.1176232266780062
  @DF-RHF Final Energy:  -423.11793041712951
    Total Energy =                       -423.1179304171299691
  @DF-RHF Final Energy:  -423.11801385427958
    Total Energy =                       -423.1180138542794111
  @DF-RHF Final Energy:  -423.11805007431076
    Total Energy =                       -423.1180500743109860
  @DF-RHF Final Energy:  -423.11807897667268
    Total Energy =                       -423.1180789766729049
  Basis Set: CC-PVTZ
  Basis Set:
  @DF-RHF Final Energy:  -423.11808892484089
    Total Energy =                       -423.1180889248412313
  Basis Set: CC-PVTZ
  Basis Set:
  Basis Set: CC-PVTZ
  Basis Set:
  @DF-RHF Final Energy:  -423.11809102945995
    Total Energy =                       -423.1180910294599471
  Basis Set: CC-PVTZ
  Basis Set:
  Basis Set: CC-PVTZ
  Basis Set:
  @DF-RHF Final Energy:  -423.11809353923587
    Total Energy =                       -423.1180935392360425
  Basis Set: CC-PVTZ
  Basis Set:
  Charge       = 0
  Multiplicity = 1
  Basis Set: CC-PVTZ
  Basis Set:

    Orbital Energies (a.u.)
    -----------------------

    Doubly Occupied:

       1A    -20.582646     2A    -20.536517     3A    -11.368430
       4A    -11.293199     5A    -11.238002     6A    -11.226215
       7A    -11.225596     8A    -11.222260     9A    -11.213569
      10A     -1.461723    11A     -1.368843    12A     -1.097566
      13A     -1.036680    14A     -1.013285    15A     -0.940738
      16A     -0.846542    17A     -0.806872    18A     -0.778150
      19A     -0.700515    20A     -0.693055    21A     -0.661479
      22A     -0.651238    23A     -0.618436    24A     -0.594406
      25A     -0.581563    26A     -0.577242    27A     -0.568312
      28A     -0.545227    29A     -0.523406    30A     -0.502807
      31A     -0.493499    32A     -0.482014    33A     -0.475083
      34A     -0.474560    35A     -0.453818    36A     -0.435094

  @DF-RHF Final Energy:  -423.11809332714427

   => Energetics <=

    Nuclear Repulsion Energy =            450.2498852682440429
    One-Electron Energy =               -1468.1587827370435662
    Two-Electron Energy =                 594.7908041416552578
    DFT Exchange-Correlation Energy =       0.0000000000000000
    Empirical Dispersion Energy =           0.0000000000000000
    PCM Polarization Energy =               0.0000000000000000
    EFP Energy =                            0.0000000000000000
    Total Energy =                       -423.1180933271442655
    Molecular point group: c1
  Basis Set: CC-PVTZ
  Basis Set:

  -Total Gradient:
     Atom            X                  Y                   Z
    ------   -----------------  -----------------  -----------------
       1        0.001672869415     0.002498641716    -0.002472877875
       2       -0.002392597982    -0.003646434317     0.001710095204
       3        0.000387575755     0.000188397112    -0.000342623504
       4        0.000362816392     0.001143592563     0.003969584724
       5       -0.000287427842    -0.000160528613     0.000159650024
       6       -0.000160207965    -0.000154888074     0.000278751925
       7        0.000111750672     0.000166013263    -0.000078180823
       8        0.000326646161    -0.000006105719    -0.003207701050
       9       -0.000004813601    -0.000013903381     0.000004133967
      10       -0.000022638048     0.000003851090    -0.000004458640
      11       -0.000001847249    -0.000002352631    -0.000013479417
      12       -0.000005104319     0.000006098444     0.000000768248
      13       -0.000000386506    -0.000003667244    -0.000010606164
      14        0.000008284187    -0.000017488241     0.000003264889
      15       -0.000001783854    -0.000002932807     0.000005443674
      16        0.000003129997     0.000000577155    -0.000005099957
      17       -0.000005780401     0.000011637377     0.000008550534
      18        0.000005031438    -0.000001843046    -0.000002373888
      19        0.000003622128    -0.000006065800    -0.000007799295
      20       -0.000001525085    -0.000006335833     0.000005159941
      21        0.000001359647     0.000005132112    -0.000006695187
      22        0.000003458581    -0.000005469275    -0.000002705651
      23       -0.000002431510     0.000004074148     0.000009198322

  **** Optimization is complete! (in 20 steps) ****
    Final optimized geometry and variables:
    Molecular point group: c1

    Geometry (in Angstrom), charge = 0, multiplicity = 1:

    O           -3.451590887252     0.272543364883    -0.967902214348
    C           -2.665402550604     0.485201210507    -0.118148587889
    C           -2.850889521485     1.554916971185     0.928978184126
    O           -1.549427373533    -0.248311290002    -0.027631740764
    H           -3.873238899559     1.895554423983     0.899786216394
    H           -2.612931385580     1.171599474247     1.913024437124
    H           -2.195365654534     2.393818778626     0.726602856828
    C           -0.289171563794     0.384377862000     0.086077975904
    C            0.780947411125    -0.680533142493    -0.030457499015
    H           -0.182686923106     1.118276395492    -0.706122058438
    H           -0.209046522085     0.897415856756     1.038215051664
    C            2.188899913177    -0.103501169851     0.081234290844
    H            0.658229466976    -1.190078780128    -0.979516253246
    H            0.617387875952    -1.420174062049     0.746250418637
    C            3.278783058608    -1.165558266718    -0.035244151968
    H            2.337441981802     0.645438411932    -0.693124521903
    H            2.296443454584     0.414492407955     1.031508074871
    C            4.686871908639    -0.591148810277     0.075133567420
    H            3.173370318974    -1.683216768757    -0.984238270389
    H            3.132656214812    -1.914313425802     0.738039526874
    H            4.875413588555     0.136740625417    -0.706950171377
    H            5.435190871747    -1.370158959041    -0.011615940311
    H            4.834433145885    -0.095861575882     1.029115138005

  Mulliken Charges: (a.u.)
   Center  Symbol    Alpha    Beta     Spin     Total
       1     O     4.17238  4.17238  0.00000 -0.34476
       2     C     2.81636  2.81636  0.00000  0.36728
       3     C     3.16414  3.16414  0.00000 -0.32828
       4     O     4.14535  4.14535  0.00000 -0.29071
       5     H     0.42898  0.42898  0.00000  0.14204
       6     H     0.44293  0.44293  0.00000  0.11414
       7     H     0.44748  0.44748  0.00000  0.10505
       8     C     2.98305  2.98305  0.00000  0.03391
       9     C     3.08317  3.08317  0.00000 -0.16635
      10     H     0.45890  0.45890  0.00000  0.08220
      11     H     0.46124  0.46124  0.00000  0.07752
      12     C     3.09935  3.09935  0.00000 -0.19871
      13     H     0.44406  0.44406  0.00000  0.11188
      14     H     0.44799  0.44799  0.00000  0.10402
      15     C     3.08586  3.08586  0.00000 -0.17172
      16     H     0.45341  0.45341  0.00000  0.09317
      17     H     0.45479  0.45479  0.00000  0.09042
      18     C     3.14945  3.14945  0.00000 -0.29890
      19     H     0.45176  0.45176  0.00000  0.09647
      20     H     0.45270  0.45270  0.00000  0.09460
      21     H     0.45461  0.45461  0.00000  0.09078
      22     H     0.44687  0.44687  0.00000  0.10625
      23     H     0.45516  0.45516  0.00000  0.08968

   Total alpha = 36.00000, Total beta = 36.00000, Total charge =  0.00000

*** Psi4 exiting successfully. Buy a developer a beer!
