  ==> Input File <==

--------------------------------------------------------------------------
set {
	reference rhf
	basis 6-31G*
}

set_num_threads( 1 )
memory 2 gb

molecule MOL {
0 1

H	 -2.763904	 -0.046560	 -1.526607
O	 -3.452007	 0.283848	 -0.965577
C	 -3.181085	 -0.079926	 0.364119
C	 -1.765924	 0.277073	 0.805136
H	 -3.327791	 -1.152017	 0.410903
H	 -3.905698	 0.375695	 1.036898
C	 -0.677594	 -0.417312	 -0.014550
H	 -1.637766	 1.358238	 0.744969
H	 -1.659588	 0.017670	 1.857098
C	 0.738335	 -0.034840	 0.421385
H	 -0.814977	 -0.178223	 -1.064632
H	 -0.802730	 -1.495410	 0.071702
C	 1.822265	 -0.738362	 -0.399735
H	 0.853533	 1.043532	 0.342250
H	 0.871597	 -0.279636	 1.474438
C	 3.258060	 -0.455774	 0.057203
H	 1.718003	 -0.459167	 -1.447053
H	 1.651028	 -1.811884	 -0.354513
C	 3.709143	 0.994797	 -0.123830
H	 3.930637	 -1.101717	 -0.501982
H	 3.365259	 -0.739518	 1.102287
H	 3.601178	 1.310569	 -1.158127
H	 4.753787	 1.110486	 0.148516
H	 3.135362	 1.678896	 0.492569

	symmetry c1
}
set optking {
	frozen_dihedral = ("
		20 16 13 17,
		17 13 10 7,
		13 10 7 11,
		11 7 4 3,
		7 4 3 2
	")
}

ee = energy('scf')
oeprop('DIPOLE', 'QUADRUPOLE', 'MULLIKEN_CHARGES')
f=open( 'psi4out.xyz', 'w' )
f.write( "24  " )
f.write( str(ee) + "\n" )
f.write( MOL.save_string_xyz() )
f.close()
--------------------------------------------------------------------------

    Molecular point group: c1

    Geometry (in Angstrom), charge = 0, multiplicity = 1:

       Center              X                  Y                   Z               Mass
    ------------   -----------------  -----------------  -----------------  -----------------
           H         -2.769604537826    -0.035503024468    -1.522420602853     1.007825032070
           O         -3.457707537826     0.294904975532    -0.961390602853    15.994914619560
           C         -3.186785537826    -0.068869024468     0.368305397147    12.000000000000
           C         -1.771624537826     0.288129975532     0.809322397147    12.000000000000
           H         -3.333491537826    -1.140960024468     0.415089397147     1.007825032070
           H         -3.911398537826     0.386751975532     1.041084397147     1.007825032070
           C         -0.683294537826    -0.406255024468    -0.010363602853    12.000000000000
           H         -1.643466537826     1.369294975532     0.749155397147     1.007825032070
           H         -1.665288537826     0.028726975532     1.861284397147     1.007825032070
           C          0.732634462174    -0.023783024468     0.425571397147    12.000000000000
           H         -0.820677537826    -0.167166024468    -1.060445602853     1.007825032070
           H         -0.808430537826    -1.484353024468     0.075888397147     1.007825032070
           C          1.816564462174    -0.727305024468    -0.395548602853    12.000000000000
           H          0.847832462174     1.054588975532     0.346436397147     1.007825032070
           H          0.865896462174    -0.268579024468     1.478624397147     1.007825032070
           C          3.252359462174    -0.444717024468     0.061389397147    12.000000000000
           H          1.712302462174    -0.448110024468    -1.442866602853     1.007825032070
           H          1.645327462174    -1.800827024468    -0.350326602853     1.007825032070
           C          3.703442462174     1.005853975532    -0.119643602853    12.000000000000
           H          3.924936462174    -1.090660024468    -0.497795602853     1.007825032070
           H          3.359558462174    -0.728461024468     1.106473397147     1.007825032070
           H          3.595477462174     1.321625975532    -1.153940602853     1.007825032070
           H          4.748086462174     1.121542975532     0.152702397147     1.007825032070
           H          3.129661462174     1.689952975532     0.496755397147     1.007825032070

  Charge       = 0
  Multiplicity = 1
  Basis Set: 6-31G*
  Basis Set:

    Orbital Energies (a.u.)
    -----------------------

    Doubly Occupied:

       1A    -20.549015     2A    -11.266830     3A    -11.224866
       4A    -11.219932     5A    -11.219071     6A    -11.218435
       7A    -11.217576     8A    -11.210532     9A     -1.357558
      10A     -1.095430    11A     -1.052648    12A     -0.989051
      13A     -0.920924    14A     -0.855712    15A     -0.800902
      16A     -0.782657    17A     -0.683361    18A     -0.657461
      19A     -0.628649    20A     -0.616909    21A     -0.606058
      22A     -0.590130    23A     -0.563631    24A     -0.537649
      25A     -0.527427    26A     -0.514324    27A     -0.494368
      28A     -0.483197    29A     -0.479229    30A     -0.464783
      31A     -0.459160    32A     -0.440828    33A     -0.425255

  @DF-RHF Final Energy:  -349.24436200503186

   => Energetics <=

    Nuclear Repulsion Energy =            385.2755642684272175
    One-Electron Energy =               -1236.7325626378249126
    Two-Electron Energy =                 502.2126363643653804
    DFT Exchange-Correlation Energy =       0.0000000000000000
    Empirical Dispersion Energy =           0.0000000000000000
    PCM Polarization Energy =               0.0000000000000000
    EFP Energy =                            0.0000000000000000
    Total Energy =                       -349.2443620050323716

  Mulliken Charges: (a.u.)
   Center  Symbol    Alpha    Beta     Spin     Total
       1     H     0.27706  0.27706  0.00000  0.44587
       2     O     4.37556  4.37556  0.00000 -0.75113
       3     C     2.99144  2.99144  0.00000  0.01711
       4     C     3.16794  3.16794  0.00000 -0.33587
       5     H     0.43142  0.43142  0.00000  0.13717
       6     H     0.41466  0.41466  0.00000  0.17068
       7     C     3.16200  3.16200  0.00000 -0.32401
       8     H     0.41573  0.41573  0.00000  0.16853
       9     H     0.42178  0.42178  0.00000  0.15644
      10     C     3.15241  3.15241  0.00000 -0.30483
      11     H     0.43058  0.43058  0.00000  0.13884
      12     H     0.42085  0.42085  0.00000  0.15831
      13     C     3.15301  3.15301  0.00000 -0.30601
      14     H     0.41899  0.41899  0.00000  0.16201
      15     H     0.42228  0.42228  0.00000  0.15544
      16     C     3.15271  3.15271  0.00000 -0.30542
      17     H     0.42405  0.42405  0.00000  0.15190
      18     H     0.42217  0.42217  0.00000  0.15567
      19     C     3.24145  3.24145  0.00000 -0.48290
      20     H     0.42038  0.42038  0.00000  0.15923
      21     H     0.42304  0.42304  0.00000  0.15392
      22     H     0.42193  0.42193  0.00000  0.15613
      23     H     0.41865  0.41865  0.00000  0.16271
      24     H     0.41990  0.41990  0.00000  0.16019

   Total alpha = 33.00000, Total beta = 33.00000, Total charge =  0.00000
