  ==> Input File <==

--------------------------------------------------------------------------
set {
	reference rhf
	basis cc-pvtz
}

set_num_threads( 4 )
memory 2 gb

molecule MOL {
0 1

H	 3.850603	 0.381655	 0.435640
N	 3.039876	 -0.199676	 0.455428
C	 1.860978	 0.530248	 0.016256
H	 2.930689	 -0.520896	 1.394706
C	 0.644130	 -0.381765	 -0.031064
H	 2.060005	 0.912993	 -0.979134
H	 1.638046	 1.393612	 0.644635
C	 -0.678115	 0.376691	 0.025731
H	 0.693998	 -0.977147	 -0.936845
H	 0.693309	 -1.082142	 0.800523
C	 -1.900706	 -0.535531	 -0.022488
H	 -0.725296	 1.079516	 -0.802982
H	 -0.715474	 0.974884	 0.933278
C	 -3.220513	 0.226854	 0.028039
H	 -1.865036	 -1.134397	 -0.928236
H	 -1.857948	 -1.236381	 0.806820
H	 -3.309098	 0.911849	 -0.808725
H	 -4.066838	 -0.449485	 -0.008086
H	 -3.301685	 0.809374	 0.939860

	symmetry c1
}
set optking {
	frozen_dihedral = ("
		6 3 5 9
	")
}

ee = optimize('scf')
oeprop('DIPOLE', 'QUADRUPOLE', 'MULLIKEN_CHARGES')
f=open( 'psi4out.xyz', 'w' )
f.write( "19  " )
f.write( str(ee) + "\n" )
f.write( MOL.save_string_xyz() )
f.close()
--------------------------------------------------------------------------

    Molecular point group: c1
  Charge       = 0
  Multiplicity = 1
  Basis Set: CC-PVTZ
  Basis Set:
  @DF-RHF Final Energy:  -251.44621966505835
    Total Energy =                       -251.4462196650583792
    Molecular point group: c1
  Basis Set: CC-PVTZ
  Basis Set:
  Basis Set: CC-PVTZ
  Basis Set:
  @DF-RHF Final Energy:  -251.44643999985342
    Total Energy =                       -251.4464399998533963
  Basis Set: CC-PVTZ
  Basis Set:
  Basis Set: CC-PVTZ
  Basis Set:
  @DF-RHF Final Energy:  -251.44648894770040
    Total Energy =                       -251.4464889477004590
  Basis Set: CC-PVTZ
  Basis Set:
  Charge       = 0
  Multiplicity = 1
  Basis Set: CC-PVTZ
  Basis Set:

    Orbital Energies (a.u.)
    -----------------------

    Doubly Occupied:

       1A    -15.526014     2A    -11.238134     3A    -11.211802
       4A    -11.210279     5A    -11.207864     6A    -11.205533
       7A     -1.177437     8A     -1.074068     9A     -0.999043
      10A     -0.900645    11A     -0.813737    12A     -0.789085
      13A     -0.669255    14A     -0.638901    15A     -0.619675
      16A     -0.585980    17A     -0.568942    18A     -0.549343
      19A     -0.527939    20A     -0.502029    21A     -0.481860
      22A     -0.464887    23A     -0.461508    24A     -0.448778
      25A     -0.383474

  @DF-RHF Final Energy:  -251.44648972837686

   => Energetics <=

    Nuclear Repulsion Energy =            246.0597330318780962
    One-Electron Energy =                -826.5000161114426191
    Two-Electron Energy =                 328.9937933511877191
    DFT Exchange-Correlation Energy =       0.0000000000000000
    Empirical Dispersion Energy =           0.0000000000000000
    PCM Polarization Energy =               0.0000000000000000
    EFP Energy =                            0.0000000000000000
    Total Energy =                       -251.4464897283768323
    Molecular point group: c1
  Basis Set: CC-PVTZ
  Basis Set:

  -Total Gradient:
     Atom            X                  Y                   Z
    ------   -----------------  -----------------  -----------------
       1        0.000016972140    -0.000028856007     0.000011096560
       2       -0.000003024997     0.000085417291    -0.000039180536
       3       -0.003420141808     0.004505356950     0.000543818546
       4       -0.000020022247     0.000017292912    -0.000038447263
       5        0.003137225098    -0.004209661071     0.002226338694
       6        0.002434428058    -0.003204821429    -0.000740502867
       7       -0.000009125526    -0.000001334238    -0.000001361981
       8        0.000029184736    -0.000031601224     0.000047028369
       9       -0.002107561210     0.002805898663    -0.002006801066
      10       -0.000009791397     0.000044021553    -0.000014359870
      11       -0.000019107669     0.000003879826     0.000014939014
      12        0.000000427469     0.000000523824     0.000006002333
      13       -0.000015578077     0.000023580428     0.000009129800
      14       -0.000006659820    -0.000008022541    -0.000013634559
      15        0.000003392909    -0.000007361029     0.000003730727
      16       -0.000006770342     0.000004859061     0.000002669202
      17       -0.000001353114     0.000005036974    -0.000000706112
      18       -0.000006750432     0.000003487369    -0.000006910594
      19        0.000004256226    -0.000007697309    -0.000002848397

  **** Optimization is complete! (in 4 steps) ****
    Final optimized geometry and variables:
    Molecular point group: c1

    Geometry (in Angstrom), charge = 0, multiplicity = 1:

    H            3.879348492385     0.365436302661     0.246197344601
    N            3.066055351767    -0.207740087594     0.322010281684
    C            1.868064320145     0.525233070122    -0.062858844533
    H            3.007980006846    -0.514471423605     1.270461341848
    C            0.652472070147    -0.397506870097    -0.072357319112
    H            2.042670483866     0.895079261222    -1.066970275516
    H            1.673627977994     1.385404464423     0.577258165732
    C           -0.671267520743     0.363303675961    -0.041900879181
    H            0.681805202943    -1.007197797068    -0.969218001149
    H            0.703013106243    -1.071634445545     0.777929808379
    C           -1.894036179269    -0.545522496814    -0.128194643417
    H           -0.697282236909     1.074326845655    -0.865203805908
    H           -0.728806808761     0.954150822742     0.869322628055
    C           -3.213559948964     0.218138822978    -0.090941496638
    H           -1.842338632117    -1.130373181091    -1.042309765642
    H           -1.868082734458    -1.259558259624     0.690616262890
    H           -3.284328399984     0.917494539824    -0.917493329432
    H           -4.060060133090    -0.455913799941    -0.155477378597
    H           -3.312048859958     0.785162918422     0.828882124955

  Mulliken Charges: (a.u.)
   Center  Symbol    Alpha    Beta     Spin     Total
       1     H     0.42971  0.42971  0.00000  0.14058
       2     N     3.69100  3.69100  0.00000 -0.38201
       3     C     3.02921  3.02921  0.00000 -0.05843
       4     H     0.43075  0.43075  0.00000  0.13850
       5     C     3.07941  3.07941  0.00000 -0.15881
       6     H     0.45590  0.45590  0.00000  0.08821
       7     H     0.46721  0.46721  0.00000  0.06559
       8     C     3.09371  3.09371  0.00000 -0.18741
       9     H     0.45167  0.45167  0.00000  0.09667
      10     H     0.45734  0.45734  0.00000  0.08532
      11     C     3.08412  3.08412  0.00000 -0.16824
      12     H     0.45553  0.45553  0.00000  0.08894
      13     H     0.45669  0.45669  0.00000  0.08663
      14     C     3.14957  3.14957  0.00000 -0.29913
      15     H     0.45394  0.45394  0.00000  0.09212
      16     H     0.45473  0.45473  0.00000  0.09055
      17     H     0.45536  0.45536  0.00000  0.08929
      18     H     0.44854  0.44854  0.00000  0.10292
      19     H     0.45563  0.45563  0.00000  0.08874

   Total alpha = 25.00000, Total beta = 25.00000, Total charge = -0.00000
