  ==> Input File <==

--------------------------------------------------------------------------
set {
	reference rhf
	basis 6-31G*
}

set_num_threads( 4 )
memory 2 gb

molecule MOL {
0 1

O	 -2.439739	 -0.935931	 -0.423848
C	 -1.921153	 0.064240	 -0.045697
C	 -2.624470	 1.379923	 0.150949
O	 -0.632575	 0.154573	 0.251549
H	 -2.168117	 2.136577	 -0.476876
H	 -3.669540	 1.273223	 -0.098610
H	 -2.519365	 1.700893	 1.180846
C	 0.160891	 -1.019931	 0.106212
C	 1.589627	 -0.672828	 0.480843
H	 0.089836	 -1.367806	 -0.916050
H	 -0.238459	 -1.792301	 0.749618
C	 2.246377	 0.346236	 -0.452210
H	 2.163194	 -1.597435	 0.473358
H	 1.604769	 -0.303424	 1.502885
C	 3.738106	 0.521945	 -0.171371
H	 2.107486	 0.029139	 -1.483839
H	 1.742354	 1.301864	 -0.351733
H	 4.180097	 1.249516	 -0.844660
H	 4.275550	 -0.413855	 -0.296712
H	 3.907633	 0.866448	 0.844826

	symmetry c1
}
set optking {
	frozen_dihedral = ("
		16 12 9 8
	")
}

ee = optimize('scf')
oeprop('DIPOLE', 'QUADRUPOLE', 'MULLIKEN_CHARGES')
f=open( 'psi4out.xyz', 'w' )
f.write( "20  " )
f.write( str(ee) + "\n" )
f.write( MOL.save_string_xyz() )
f.close()
--------------------------------------------------------------------------

    Molecular point group: c1
  Charge       = 0
  Multiplicity = 1
  Basis Set: 6-31G*
  Basis Set:
  @DF-RHF Final Energy:  -383.94549790353886
    Total Energy =                       -383.9454979035384667
    Molecular point group: c1
  Basis Set: 6-31G*
  Basis Set:
  Basis Set: 6-31G*
  Basis Set:
  @DF-RHF Final Energy:  -383.94540517439367
    Total Energy =                       -383.9454051743934997
  Basis Set: 6-31G*
  Basis Set:
  Basis Set: 6-31G*
  Basis Set:
  @DF-RHF Final Energy:  -383.94545763434866
    Total Energy =                       -383.9454576343483723
  Basis Set: 6-31G*
  Basis Set:
  Basis Set: 6-31G*
  Basis Set:
  @DF-RHF Final Energy:  -383.94552791030617
    Total Energy =                       -383.9455279103059411
  Basis Set: 6-31G*
  Basis Set:
  Charge       = 0
  Multiplicity = 1
  Basis Set: 6-31G*
  Basis Set:

    Orbital Energies (a.u.)
    -----------------------

    Doubly Occupied:

       1A    -20.601720     2A    -20.544040     3A    -11.374468
       4A    -11.282390     5A    -11.233384     6A    -11.225558
       7A    -11.220719     8A    -11.213623     9A     -1.467919
      10A     -1.362136    11A     -1.086078    12A     -1.028231
      13A     -0.981541    14A     -0.880284    15A     -0.811849
      16A     -0.774684    17A     -0.689461    18A     -0.683989
      19A     -0.667033    20A     -0.631382    21A     -0.600120
      22A     -0.592902    23A     -0.572189    24A     -0.550141
      25A     -0.546313    26A     -0.531256    27A     -0.511109
      28A     -0.483932    29A     -0.474433    30A     -0.472456
      31A     -0.449028    32A     -0.438662

  @DF-RHF Final Energy:  -383.94552826564905

   => Energetics <=

    Nuclear Repulsion Energy =            385.0995598689518147
    One-Electron Energy =               -1286.1241126133436410
    Two-Electron Energy =                 517.0790244787426673
    DFT Exchange-Correlation Energy =       0.0000000000000000
    Empirical Dispersion Energy =           0.0000000000000000
    PCM Polarization Energy =               0.0000000000000000
    EFP Energy =                            0.0000000000000000
    Total Energy =                       -383.9455282656491590
    Molecular point group: c1
  Basis Set: 6-31G*
  Basis Set:

  -Total Gradient:
     Atom            X                  Y                   Z
    ------   -----------------  -----------------  -----------------
       1        0.000006391374     0.000011682251    -0.000015832051
       2       -0.000009044700    -0.000018921811    -0.000000073933
       3        0.000009070578    -0.000006008260     0.000005920154
       4        0.000007726270     0.000030547432    -0.000027887204
       5        0.000001337259    -0.000002488779    -0.000000926299
       6        0.000000680530    -0.000002723353     0.000000788683
       7       -0.000000271741     0.000001041850     0.000000495597
       8        0.000294586921    -0.000752611494    -0.000459684850
       9       -0.000706243770     0.001190593413     0.000773660073
      10       -0.000009847068     0.000012822042    -0.000026704326
      11        0.000024005952    -0.000003549039    -0.000020521357
      12        0.001529360985    -0.001126507692    -0.000175385099
      13        0.000000594890     0.000000646794    -0.000001763420
      14       -0.000015714164    -0.000000279341    -0.000003394574
      15        0.000002418672    -0.000005426910     0.000000102629
      16       -0.001130961899     0.000674472723    -0.000047631703
      17        0.000009301876    -0.000001470654     0.000003122220
      18       -0.000005563088     0.000001233897    -0.000001030188
      19       -0.000002242269     0.000000174009    -0.000002880889
      20       -0.000005586606    -0.000003227077    -0.000000373463

  **** Optimization is complete! (in 5 steps) ****
    Final optimized geometry and variables:
    Molecular point group: c1

    Geometry (in Angstrom), charge = 0, multiplicity = 1:

    O           -2.446976769472    -0.917824496403    -0.403976039452
    C           -1.924119719880     0.083222110837    -0.033908132497
    C           -2.623174600566     1.402038217705     0.157305030043
    O           -0.635660432083     0.170196550651     0.264149569268
    H           -2.165232165867     2.154009419936    -0.474940090443
    H           -3.668858772782     1.297219177286    -0.090507360899
    H           -2.515747762724     1.727717017720     1.185511299722
    C            0.153357295418    -1.008451634236     0.127019560563
    C            1.584393140053    -0.664351564686     0.494018185731
    H            0.079526324815    -1.363892814945    -0.892342802035
    H           -0.247363984259    -1.774371139589     0.777315977847
    C            2.235839478936     0.360302789789    -0.437294583949
    H            2.153375178857    -1.591863695178     0.470487253266
    H            1.613562204823    -0.306019482505     1.519472215311
    C            3.725960228515     0.547206756573    -0.157462663021
    H            2.090957685686     0.051196122065    -1.470467164595
    H            1.724321113231     1.311871521325    -0.332891356090
    H            4.158509746913     1.290347016191    -0.819762139070
    H            4.273010268929    -0.380680086098    -0.298689664919
    H            3.894259520353     0.877345114216     0.863778260949

  Mulliken Charges: (a.u.)
   Center  Symbol    Alpha    Beta     Spin     Total
       1     O     4.28339  4.28339  0.00000 -0.56679
       2     C     2.61923  2.61923  0.00000  0.76155
       3     C     3.28166  3.28166  0.00000 -0.56332
       4     O     4.30864  4.30864  0.00000 -0.61727
       5     H     0.40073  0.40073  0.00000  0.19854
       6     H     0.39688  0.39688  0.00000  0.20623
       7     H     0.40061  0.40061  0.00000  0.19877
       8     C     3.00276  3.00276  0.00000 -0.00552
       9     C     3.16485  3.16485  0.00000 -0.32971
      10     H     0.41038  0.41038  0.00000  0.17923
      11     H     0.40842  0.40842  0.00000  0.18315
      12     C     3.15441  3.15441  0.00000 -0.30882
      13     H     0.41858  0.41858  0.00000  0.16285
      14     H     0.41424  0.41424  0.00000  0.17152
      15     C     3.24043  3.24043  0.00000 -0.48086
      16     H     0.42271  0.42271  0.00000  0.15458
      17     H     0.41239  0.41239  0.00000  0.17522
      18     H     0.41750  0.41750  0.00000  0.16500
      19     H     0.42151  0.42151  0.00000  0.15698
      20     H     0.42067  0.42067  0.00000  0.15866

   Total alpha = 32.00000, Total beta = 32.00000, Total charge =  0.00000
