                              Psi4 1.0.54 Driver

  ==> Input File <==

--------------------------------------------------------------------------
set {
	reference rhf
	basis cc-pvtz
}

set_num_threads( 4 )
memory 2 gb

molecule MOL {
0 1

O	 -2.817697	 1.304178	 0.001046
C	 -2.664672	 0.129869	 0.003507
C	 -3.797908	 -0.860100	 -0.001145
O	 -1.481217	 -0.452708	 0.001092
H	 -4.408836	 -0.679689	 -0.875387
H	 -3.443486	 -1.878443	 -0.002770
H	 -4.412123	 -0.683688	 0.871605
C	 -0.332055	 0.384012	 -0.000250
C	 0.892252	 -0.506059	 -0.000295
H	 -0.360822	 1.020205	 -0.874146
H	 -0.359817	 1.021310	 0.872861
C	 2.188199	 0.299473	 -0.001416
H	 0.857046	 -1.152781	 -0.871031
H	 0.857910	 -1.151798	 0.871202
C	 2.403429	 1.087261	 1.287844
H	 3.030966	 -0.369774	 -0.155787
H	 2.187118	 0.986764	 -0.843796
C	 3.697769	 1.893296	 1.286659
H	 2.406459	 0.401337	 2.130195
H	 1.561946	 1.756509	 1.443088
H	 4.561085	 1.247291	 1.167456
H	 3.819942	 2.440032	 2.214376
H	 3.710160	 2.612746	 0.474815

	symmetry c1
}
set optking {
	frozen_dihedral = ("
		16 12 9 13
	")
}

ee,wfn = optimize('scf', return_wfn=True)
oeprop( wfn, 'DIPOLE', 'QUADRUPOLE', 'MULLIKEN_CHARGES')
f=open( 'psi4out.xyz', 'w' )
f.write( "23  " )
f.write( str(ee) + "\n" )
f.write( MOL.save_string_xyz() )
f.close()
--------------------------------------------------------------------------

    Molecular point group: c1
  Charge       = 0
  Multiplicity = 1
  Basis Set: CC-PVTZ
  Basis Set:
  @DF-RHF Final Energy:  -423.13237458005119
    Total Energy =                       -423.1323745800509641
    Molecular point group: c1
  Basis Set: CC-PVTZ
  Basis Set:
  Basis Set: CC-PVTZ
  Basis Set:
  @DF-RHF Final Energy:  -423.13247297397805
    Total Energy =                       -423.1324729739778832
  Basis Set: CC-PVTZ
  Basis Set:
  Basis Set: CC-PVTZ
  Basis Set:
  @DF-RHF Final Energy:  -423.13293353045731
    Total Energy =                       -423.1329335304571941
  Basis Set: CC-PVTZ
  Basis Set:
  Basis Set: CC-PVTZ
  Basis Set:
  @DF-RHF Final Energy:  -423.13286457399448
    Total Energy =                       -423.1328645739947660
  Basis Set: CC-PVTZ
  Basis Set:
  Basis Set: CC-PVTZ
  Basis Set:
  @DF-RHF Final Energy:  -423.13307312385058
    Total Energy =                       -423.1330731238508633
  Basis Set: CC-PVTZ
  Basis Set:
  Basis Set: CC-PVTZ
  Basis Set:
  @DF-RHF Final Energy:  -423.13307561083508
    Total Energy =                       -423.1330756108352489
  Basis Set: CC-PVTZ
  Basis Set:
  Charge       = 0
  Multiplicity = 1
  Basis Set: CC-PVTZ
  Basis Set:

    Orbital Energies (a.u.)
    -----------------------

    Doubly Occupied:

       1A    -20.595836     2A    -20.529496     3A    -11.366364
       4A    -11.278944     5A    -11.230634     6A    -11.222521
       7A    -11.221463     8A    -11.219163     9A    -11.210780
      10A     -1.471074    11A     -1.363906    12A     -1.094836
      13A     -1.041534    14A     -1.003464    15A     -0.932249
      16A     -0.849934    17A     -0.791840    18A     -0.782196
      19A     -0.691840    20A     -0.687830    21A     -0.674211
      22A     -0.636953    23A     -0.614881    24A     -0.588195
      25A     -0.579512    26A     -0.573644    27A     -0.562710
      28A     -0.530287    29A     -0.528947    30A     -0.510132
      31A     -0.495307    32A     -0.476754    33A     -0.469388
      34A     -0.463361    35A     -0.452586    36A     -0.439337

  @DF-RHF Final Energy:  -423.13307596182159

   => Energetics <=

    Nuclear Repulsion Energy =            456.3120586642409648
    One-Electron Energy =               -1480.5260536090258938
    Two-Electron Energy =                 601.0809189829628849
    DFT Exchange-Correlation Energy =       0.0000000000000000
    Empirical Dispersion Energy =           0.0000000000000000
    PCM Polarization Energy =               0.0000000000000000
    EFP Energy =                            0.0000000000000000
    Total Energy =                       -423.1330759618219872
    Molecular point group: c1
  Basis Set: CC-PVTZ
  Basis Set:

  -Total Gradient:
     Atom            X                  Y                   Z
    ------   -----------------  -----------------  -----------------
       1       -0.000007645921     0.000004055671    -0.000015078013
       2        0.000041832587    -0.000038732538     0.000042574993
       3       -0.000002344632     0.000011685335    -0.000014806743
       4       -0.000047737669     0.000019442177    -0.000006203204
       5       -0.000002393129    -0.000002766512     0.000003179948
       6       -0.000000557086     0.000003104990    -0.000000090534
       7        0.000012868102     0.000002276663    -0.000006843415
       8        0.000015817807     0.000008097638    -0.000002671771
       9       -0.000064627692     0.000105447591    -0.000100815460
      10       -0.000003539066    -0.000002285006    -0.000000336747
      11       -0.000006854983    -0.000010088223    -0.000005638732
      12        0.000019965697    -0.000015763419     0.000137505966
      13        0.000053295021    -0.000081844726     0.000068682716
      14       -0.000004867058    -0.000004574550     0.000003192345
      15        0.000029193791    -0.000018296472     0.000018081896
      16       -0.000022078081     0.000011917475    -0.000114116125
      17        0.000007806313     0.000000288666    -0.000013525138
      18       -0.000025945183     0.000005891505     0.000000130033
      19        0.000006624496     0.000003465598     0.000009342408
      20        0.000018618686     0.000003492737    -0.000001888231
      21       -0.000012271341    -0.000007075308     0.000002337475
      22       -0.000003911472     0.000002359267    -0.000000660787
      23       -0.000001249201    -0.000000098559    -0.000002352884

  **** Optimization is complete! (in 7 steps) ****
    Final optimized geometry and variables:
    Molecular point group: c1

    Geometry (in Angstrom), charge = 0, multiplicity = 1:

    O           -2.642225051750     0.902405234353    -0.297210572039
    C           -2.466592253153    -0.268863396359    -0.291621572586
    C           -3.580643526623    -1.280359325292    -0.313515456845
    O           -1.272586257990    -0.828306441289    -0.266147554749
    H           -4.177948846955    -1.115052390900    -1.200132911360
    H           -3.206963868822    -2.291781358947    -0.303963445845
    H           -4.214700687855    -1.112141429506     0.546629382194
    C           -0.140109404346     0.031184869933    -0.242551789972
    C            1.096479616306    -0.843674762414    -0.201342603997
    H           -0.152228473477     0.653791474668    -1.127231313631
    H           -0.213965704262     0.678438558404     0.618216618862
    C            2.406279741610    -0.056127649221    -0.258670092200
    H            1.054279425876    -1.528027988377    -1.041568456967
    H            1.069106642516    -1.452558080891     0.696906570338
    C            2.698948711784     0.803090545123     0.970837403064
    H            3.218898249627    -0.764227103524    -0.388578031749
    H            2.411910369390     0.572146859315    -1.146332419535
    C            4.061032837467     1.485507147369     0.899343299226
    H            2.654170563880     0.180165081926     1.860182279770
    H            1.931395139845     1.560719337286     1.089496514823
    H            4.860682054504     0.756163485885     0.824806779827
    H            4.244042152768     2.088545277516     1.780998919212
    H            4.127180684538     2.136685808926     0.034128491046

  Mulliken Charges: (a.u.)
   Center  Symbol    Alpha    Beta     Spin     Total
       1     O     4.20255  4.20255  0.00000 -0.40511
       2     C     2.81539  2.81539  0.00000  0.36922
       3     C     3.13953  3.13953  0.00000 -0.27907
       4     O     4.14544  4.14544  0.00000 -0.29089
       5     H     0.44213  0.44213  0.00000  0.11574
       6     H     0.44186  0.44186  0.00000  0.11628
       7     H     0.44223  0.44223  0.00000  0.11555
       8     C     2.97635  2.97635  0.00000  0.04730
       9     C     3.09109  3.09109  0.00000 -0.18218
      10     H     0.45415  0.45415  0.00000  0.09169
      11     H     0.45251  0.45251  0.00000  0.09498
      12     C     3.10531  3.10531  0.00000 -0.21063
      13     H     0.44459  0.44459  0.00000  0.11082
      14     H     0.45073  0.45073  0.00000  0.09853
      15     C     3.08769  3.08769  0.00000 -0.17537
      16     H     0.44638  0.44638  0.00000  0.10724
      17     H     0.45209  0.45209  0.00000  0.09582
      18     C     3.14903  3.14903  0.00000 -0.29805
      19     H     0.45305  0.45305  0.00000  0.09390
      20     H     0.45197  0.45197  0.00000  0.09607
      21     H     0.45443  0.45443  0.00000  0.09114
      22     H     0.44729  0.44729  0.00000  0.10543
      23     H     0.45420  0.45420  0.00000  0.09159

   Total alpha = 36.00000, Total beta = 36.00000, Total charge =  0.00000

*** Psi4 exiting successfully. Buy a developer a beer!
