                              Psi4 1.0.54 Driver

  ==> Input File <==

--------------------------------------------------------------------------
set {
	reference rhf
	basis cc-pvtz
}

set_num_threads( 4 )
memory 2 gb

molecule MOL {
0 1

H	 -3.079475	 0.171455	 3.114033
C	 -2.207053	 0.202672	 2.489469
C	 -1.920698	 1.342988	 1.760551
C	 -1.372970	 -0.896819	 2.415930
H	 -2.568559	 2.196019	 1.818126
C	 -0.799453	 1.382348	 0.958208
H	 -1.595921	 -1.780662	 2.981603
C	 -0.249876	 -0.858948	 1.612984
H	 -0.562780	 2.256990	 0.387204
C	 0.040025	 0.281775	 0.881398
H	 0.398142	 -1.708712	 1.553784
C	 1.238974	 0.374429	 0.000004
O	 1.968286	 -0.725612	 -0.000027
O	 1.515516	 1.334200	 -0.638389
C	 3.373556	 -0.568203	 0.000011
H	 3.695416	 -0.031588	 -0.879663
H	 3.782700	 -1.565294	 -0.000152
H	 3.695405	 -0.031851	 0.879862

	symmetry c1
}
set optking {
	frozen_dihedral = ("
		10 12 13 15
	")
}

ee,wfn = optimize('scf', return_wfn=True)
oeprop( wfn, 'DIPOLE', 'QUADRUPOLE', 'MULLIKEN_CHARGES')
f=open( 'psi4out.xyz', 'w' )
f.write( "18  " )
f.write( str(ee) + "\n" )
f.write( MOL.save_string_xyz() )
f.close()
--------------------------------------------------------------------------

    Molecular point group: c1
  Charge       = 0
  Multiplicity = 1
  Basis Set: CC-PVTZ
  Basis Set:
  @DF-RHF Final Energy:  -457.50238212138072
    Total Energy =                       -457.5023821213806059
    Molecular point group: c1
  Basis Set: CC-PVTZ
  Basis Set:
  Basis Set: CC-PVTZ
  Basis Set:
  @DF-RHF Final Energy:  -457.49924729116623
    Total Energy =                       -457.4992472911659434
  Basis Set: CC-PVTZ
  Basis Set:
  Basis Set: CC-PVTZ
  Basis Set:
  @DF-RHF Final Energy:  -457.50229224661149
    Total Energy =                       -457.5022922466118871
  Basis Set: CC-PVTZ
  Basis Set:
  Basis Set: CC-PVTZ
  Basis Set:
  @DF-RHF Final Energy:  -457.50281010647035
    Total Energy =                       -457.5028101064701787
  Basis Set: CC-PVTZ
  Basis Set:
  Basis Set: CC-PVTZ
  Basis Set:
  @DF-RHF Final Energy:  -457.50283874463844
    Total Energy =                       -457.5028387446386660
  Basis Set: CC-PVTZ
  Basis Set:
  Basis Set: CC-PVTZ
  Basis Set:
  @DF-RHF Final Energy:  -457.50284101782881
    Total Energy =                       -457.5028410178288141
  Basis Set: CC-PVTZ
  Basis Set:
  Charge       = 0
  Multiplicity = 1
  Basis Set: CC-PVTZ
  Basis Set:

    Orbital Energies (a.u.)
    -----------------------

    Doubly Occupied:

       1A    -20.592356     2A    -20.537970     3A    -11.372711
       4A    -11.283528     5A    -11.245885     6A    -11.245019
       7A    -11.244011     8A    -11.241369     9A    -11.237164
      10A    -11.236471    11A     -1.471556    12A     -1.368880
      13A     -1.171760    14A     -1.050898    15A     -1.030251
      16A     -0.978375    17A     -0.866360    18A     -0.839824
      19A     -0.780653    20A     -0.743916    21A     -0.687949
      22A     -0.678783    23A     -0.673300    24A     -0.635984
      25A     -0.631216    26A     -0.603428    27A     -0.595019
      28A     -0.561821    29A     -0.531635    30A     -0.521098
      31A     -0.508310    32A     -0.502948    33A     -0.463060
      34A     -0.447825    35A     -0.351508    36A     -0.347418

  @DF-RHF Final Energy:  -457.50284128195472

   => Energetics <=

    Nuclear Repulsion Energy =            494.4461181823675133
    One-Electron Energy =               -1603.3373995338388340
    Two-Electron Energy =                 651.3884400695166050
    DFT Exchange-Correlation Energy =       0.0000000000000000
    Empirical Dispersion Energy =           0.0000000000000000
    PCM Polarization Energy =               0.0000000000000000
    EFP Energy =                            0.0000000000000000
    Total Energy =                       -457.5028412819546020
    Molecular point group: c1
  Basis Set: CC-PVTZ
  Basis Set:

  -Total Gradient:
     Atom            X                  Y                   Z
    ------   -----------------  -----------------  -----------------
       1        0.000000830369     0.000001434790    -0.000002032989
       2       -0.000007383084     0.000039761719    -0.000012595218
       3       -0.000023058892    -0.000009760993     0.000028192963
       4        0.000037455957    -0.000012641864    -0.000020768037
       5       -0.000002979686    -0.000000981951    -0.000004722601
       6        0.000027288988    -0.000023188255    -0.000020166116
       7        0.000003366628     0.000003168882     0.000000738393
       8       -0.000011761467    -0.000027427032     0.000020816202
       9        0.000002704040     0.000009222545     0.000005113755
      10        0.003672550522     0.002095825438     0.005284443586
      11        0.000001749011     0.000001975525    -0.000004613762
      12       -0.005225208310    -0.003137737371    -0.004163560675
      13        0.001607842691     0.001477496437    -0.008466247325
      14       -0.000094361043    -0.000002067664     0.000023066244
      15        0.000015175001    -0.000385828588     0.007323836343
      16        0.000001121445    -0.000006383904     0.000017180066
      17        0.000006869960    -0.000007881132     0.000007620857
      18       -0.000012202128    -0.000014986583    -0.000016301689

  **** Optimization is complete! (in 6 steps) ****
    Final optimized geometry and variables:
    Molecular point group: c1

    Geometry (in Angstrom), charge = 0, multiplicity = 1:

    H           -3.335597047805    -0.047956448532     2.246496749999
    C           -2.470705071051    -0.006212954220     1.612089688224
    C           -2.181399944933     1.154510509350     0.915615338051
    C           -1.650239956909    -1.111164022746     1.492867839883
    H           -2.819946618530     2.011507265885     1.008353618071
    C           -1.070668455366     1.207861099362     0.100961681693
    H           -1.876167633544    -2.010696731961     2.032017663117
    C           -0.535983243334    -1.058918858151     0.677254256442
    H           -0.831657178383     2.098243583251    -0.444314877163
    C           -0.240933753189     0.102212874028    -0.018532932203
    H            0.101211775891    -1.913298932120     0.580526872118
    C            0.963197912190     0.215623580278    -0.890166575921
    O            1.683786627886    -0.899676214231    -0.951547968567
    O            1.289871434675     1.219002755229    -1.425298352733
    C            3.091190870964    -0.755866469496    -0.942065008841
    H            3.434791277795    -0.233595684768    -1.821458908193
    H            3.494576487458    -1.755171157001    -0.923274858446
    H            3.403590247580    -0.216999839155    -0.057690450148

  Mulliken Charges: (a.u.)
   Center  Symbol    Alpha    Beta     Spin     Total
       1     H     0.42007  0.42007  0.00000  0.15987
       2     C     3.06902  3.06902  0.00000 -0.13803
       3     C     3.07581  3.07581  0.00000 -0.15162
       4     C     3.07590  3.07590  0.00000 -0.15179
       5     H     0.42034  0.42034  0.00000  0.15932
       6     C     3.07612  3.07612  0.00000 -0.15224
       7     H     0.42155  0.42155  0.00000  0.15690
       8     C     3.08683  3.08683  0.00000 -0.17366
       9     H     0.40669  0.40669  0.00000  0.18662
      10     C     3.01279  3.01279  0.00000 -0.02558
      11     H     0.41019  0.41019  0.00000  0.17962
      12     C     2.77908  2.77908  0.00000  0.44183
      13     O     4.15855  4.15855  0.00000 -0.31711
      14     O     4.20015  4.20015  0.00000 -0.40031
      15     C     3.03868  3.03868  0.00000 -0.07735
      16     H     0.44343  0.44343  0.00000  0.11313
      17     H     0.44481  0.44481  0.00000  0.11038
      18     H     0.45999  0.45999  0.00000  0.08002

   Total alpha = 36.00000, Total beta = 36.00000, Total charge = -0.00000

*** Psi4 exiting successfully. Buy a developer a beer!
