  ==> Input File <==

--------------------------------------------------------------------------
set {
	reference rhf
	basis 6-31G*
}

set_num_threads( 1 )
memory 2 gb

molecule MOL {
0 1

H	 3.463771	 0.168298	 -0.756243
C	 2.752674	 -0.045734	 0.033351
C	 1.322923	 0.120767	 -0.479465
H	 2.934561	 -1.059086	 0.377456
H	 2.958358	 0.631174	 0.856809
C	 0.306652	 -0.176050	 0.621399
H	 1.144658	 -0.551717	 -1.312180
H	 1.166477	 1.131798	 -0.836680
N	 -1.068537	 -0.011044	 0.085269
H	 0.372515	 -1.192590	 0.973735
H	 0.391664	 0.520566	 1.441230
O	 -1.949920	 0.154369	 0.870874
O	 -1.200619	 -0.087895	 -1.098231

	symmetry c1
}
set optking {
	frozen_dihedral = ("
		7 3 6 9
	")
}

ee = energy('scf')
oeprop('DIPOLE', 'QUADRUPOLE', 'MULLIKEN_CHARGES')
f=open( 'psi4out.xyz', 'w' )
f.write( "13  " )
f.write( str(ee) + "\n" )
f.write( MOL.save_string_xyz() )
f.close()
--------------------------------------------------------------------------

    Molecular point group: c1

    Geometry (in Angstrom), charge = 0, multiplicity = 1:

       Center              X                  Y                   Z               Mass
    ------------   -----------------  -----------------  -----------------  -----------------
           H          3.466456439672     0.175686355890    -0.760856732091     1.007825032070
           C          2.755359439672    -0.038345644110     0.028737267909    12.000000000000
           C          1.325608439672     0.128155355890    -0.484078732091    12.000000000000
           H          2.937246439672    -1.051697644110     0.372842267909     1.007825032070
           H          2.961043439672     0.638562355890     0.852195267909     1.007825032070
           C          0.309337439672    -0.168661644110     0.616785267909    12.000000000000
           H          1.147343439672    -0.544328644110    -1.316793732091     1.007825032070
           H          1.169162439672     1.139186355890    -0.841293732091     1.007825032070
           N         -1.065851560328    -0.003655644110     0.080655267909    14.003074004780
           H          0.375200439672    -1.185201644110     0.969121267909     1.007825032070
           H          0.394349439672     0.527954355890     1.436616267909     1.007825032070
           O         -1.947234560328     0.161757355890     0.866260267909    15.994914619560
           O         -1.197933560328    -0.080506644110    -1.102844732091    15.994914619560

  Charge       = 0
  Multiplicity = 1
  Basis Set: 6-31G*
  Basis Set:

    Orbital Energies (a.u.)
    -----------------------

    Doubly Occupied:

       1A    -20.602416     2A    -20.601327     3A    -15.848811
       4A    -11.300498     5A    -11.247406     6A    -11.235071
       7A     -1.632195     8A     -1.418035     9A     -1.133581
      10A     -1.025818    11A     -0.882660    12A     -0.824162
      13A     -0.762356    14A     -0.749405    15A     -0.726598
      16A     -0.657555    17A     -0.604604    18A     -0.580417
      19A     -0.550475    20A     -0.518939    21A     -0.510113
      22A     -0.483752    23A     -0.473241    24A     -0.449272

  @DF-RHF Final Energy:  -321.73342437838824

   => Energetics <=

    Nuclear Repulsion Energy =            248.1823701959499431
    One-Electron Energy =                -930.1942225443794996
    Two-Electron Energy =                 360.2784279700408661
    DFT Exchange-Correlation Energy =       0.0000000000000000
    Empirical Dispersion Energy =           0.0000000000000000
    PCM Polarization Energy =               0.0000000000000000
    EFP Energy =                            0.0000000000000000
    Total Energy =                       -321.7334243783886905

  Mulliken Charges: (a.u.)
   Center  Symbol    Alpha    Beta     Spin     Total
       1     H     0.40825  0.40825  0.00000  0.18350
       2     C     3.24872  3.24872  0.00000 -0.49745
       3     C     3.16700  3.16700  0.00000 -0.33399
       4     H     0.41728  0.41728  0.00000  0.16544
       5     H     0.41768  0.41768  0.00000  0.16464
       6     C     3.09093  3.09093  0.00000 -0.18186
       7     H     0.39565  0.39565  0.00000  0.20870
       8     H     0.40541  0.40541  0.00000  0.18918
       9     N     3.22249  3.22249  0.00000  0.55503
      10     H     0.38400  0.38400  0.00000  0.23199
      11     H     0.38638  0.38638  0.00000  0.22724
      12     O     4.22899  4.22899  0.00000 -0.45798
      13     O     4.22722  4.22722  0.00000 -0.45444

   Total alpha = 24.00000, Total beta = 24.00000, Total charge = -0.00000
