  ==> Input File <==

--------------------------------------------------------------------------
set {
	reference rhf
	basis 6-31G*
}

set_num_threads( 4 )
memory 2 gb

molecule MOL {
0 1

H	 3.367425	 -0.369889	 -1.024208
N	 3.092854	 -0.246221	 -0.068770
C	 1.865559	 0.531981	 0.018834
H	 3.845394	 0.232304	 0.388971
C	 0.645745	 -0.382037	 -0.029944
H	 1.841966	 1.207024	 -0.831236
H	 1.815756	 1.155410	 0.915079
C	 -0.679275	 0.379305	 0.025956
H	 0.698998	 -0.976915	 -0.937203
H	 0.693479	 -1.083846	 0.802235
C	 -1.903357	 -0.536963	 -0.023547
H	 -0.726309	 1.082987	 -0.803784
H	 -0.717680	 0.977832	 0.934877
C	 -3.225172	 0.228290	 0.028445
H	 -1.867824	 -1.134999	 -0.931459
H	 -1.860449	 -1.239604	 0.805977
H	 -3.313397	 0.915643	 -0.808262
H	 -4.073500	 -0.448134	 -0.008893
H	 -3.306061	 0.809945	 0.942516

	symmetry c1
}
set optking {
	frozen_dihedral = ("
		1 2 3 6
	")
}

ee = optimize('scf')
oeprop('DIPOLE', 'QUADRUPOLE', 'MULLIKEN_CHARGES')
f=open( 'psi4out.xyz', 'w' )
f.write( "19  " )
f.write( str(ee) + "\n" )
f.write( MOL.save_string_xyz() )
f.close()
--------------------------------------------------------------------------

    Molecular point group: c1
  Charge       = 0
  Multiplicity = 1
  Basis Set: 6-31G*
  Basis Set:
  @DF-RHF Final Energy:  -251.34844736784007
    Total Energy =                       -251.3484473678401514
    Molecular point group: c1
  Basis Set: 6-31G*
  Basis Set:
  Basis Set: 6-31G*
  Basis Set:
  @DF-RHF Final Energy:  -251.34989873091004
    Total Energy =                       -251.3498987309099562
  Basis Set: 6-31G*
  Basis Set:
  Basis Set: 6-31G*
  Basis Set:
  @DF-RHF Final Energy:  -251.35017794010540
    Total Energy =                       -251.3501779401054819
  Basis Set: 6-31G*
  Basis Set:
  Basis Set: 6-31G*
  Basis Set:
  @DF-RHF Final Energy:  -251.35018097440545
    Total Energy =                       -251.3501809744054185
  Basis Set: 6-31G*
  Basis Set:
  Basis Set: 6-31G*
  Basis Set:
  @DF-RHF Final Energy:  -251.35018334661478
    Total Energy =                       -251.3501833466146991
  Basis Set: 6-31G*
  Basis Set:
  Charge       = 0
  Multiplicity = 1
  Basis Set: 6-31G*
  Basis Set:

    Orbital Energies (a.u.)
    -----------------------

    Doubly Occupied:

       1A    -15.532924     2A    -11.240508     3A    -11.212351
       4A    -11.210587     5A    -11.206380     6A    -11.204760
       7A     -1.175462     8A     -1.071152     9A     -0.997196
      10A     -0.899782    11A     -0.810616    12A     -0.786128
      13A     -0.671964    14A     -0.635786    15A     -0.615288
      16A     -0.581756    17A     -0.566507    18A     -0.551201
      19A     -0.522111    20A     -0.502074    21A     -0.475386
      22A     -0.462944    23A     -0.458473    24A     -0.452787
      25A     -0.380403

  @DF-RHF Final Energy:  -251.35018344406609

   => Energetics <=

    Nuclear Repulsion Energy =            245.3362704010075390
    One-Electron Energy =                -824.9238535891029187
    Two-Electron Energy =                 328.2373997440292328
    DFT Exchange-Correlation Energy =       0.0000000000000000
    Empirical Dispersion Energy =           0.0000000000000000
    PCM Polarization Energy =               0.0000000000000000
    EFP Energy =                            0.0000000000000000
    Total Energy =                       -251.3501834440660900
    Molecular point group: c1
  Basis Set: 6-31G*
  Basis Set:

  -Total Gradient:
     Atom            X                  Y                   Z
    ------   -----------------  -----------------  -----------------
       1        0.001604745771     0.002533048560     0.000214246542
       2       -0.002382732772    -0.003678171131    -0.000710857413
       3        0.002058844847     0.003076010267     0.002058335909
       4       -0.000002087754    -0.000002047065     0.000003542412
       5        0.000009102702    -0.000001082659    -0.000007359731
       6       -0.001288436067    -0.001927239389    -0.001564041643
       7        0.000001576633     0.000003169463     0.000003731051
       8        0.000001295023     0.000002691909    -0.000002036221
       9       -0.000003679311    -0.000001577993     0.000001468053
      10       -0.000003102353    -0.000002117243     0.000002052514
      11        0.000000304040    -0.000002216873     0.000001753238
      12        0.000008960979    -0.000002503463    -0.000002686585
      13       -0.000006826058     0.000001361525    -0.000002656322
      14        0.000001149362     0.000000601173     0.000005734711
      15       -0.000000639181     0.000004477456    -0.000001375350
      16        0.000000827862    -0.000004259552    -0.000001893302
      17        0.000000660333    -0.000001424630    -0.000000129576
      18        0.000000992434    -0.000000437044     0.000001839893
      19       -0.000000956485     0.000001716688     0.000000331820

  **** Optimization is complete! (in 6 steps) ****
    Final optimized geometry and variables:
    Molecular point group: c1

    Geometry (in Angstrom), charge = 0, multiplicity = 1:

    H            3.400859940176    -0.367009158876    -0.987427332717
    N            3.097575927362    -0.252860825126    -0.039654812469
    C            1.864363741545     0.528449559904     0.016594727905
    H            3.839794020999     0.229022679225     0.429089980557
    C            0.642503006088    -0.386109661298    -0.021069807292
    H            1.788723205325     1.244748113065    -0.802854112646
    H            1.858526138259     1.098258875675     0.940251873095
    C           -0.682253973841     0.375908909474     0.029758281350
    H            0.682921527747    -0.988693802580    -0.926924943310
    H            0.708994711468    -1.081459981216     0.810771361632
    C           -1.907274016854    -0.539866834939    -0.004620285885
    H           -0.734633690264     1.073065667028    -0.805573647591
    H           -0.716452723295     0.983072132239     0.933565800785
    C           -3.228671405211     0.225910260077     0.050315159884
    H           -1.878160642711    -1.144979075722    -0.908232937260
    H           -1.858532808706    -1.236165585149     0.829625533701
    H           -3.322773476192     0.906845780450    -0.791078661869
    H           -4.077485504488    -0.450566095649     0.024301660124
    H           -3.303115058131     0.814724702612     0.960339489000

  Mulliken Charges: (a.u.)
   Center  Symbol    Alpha    Beta     Spin     Total
       1     H     0.33392  0.33392  0.00000  0.33217
       2     N     3.92209  3.92209  0.00000 -0.84418
       3     C     3.06707  3.06707  0.00000 -0.13415
       4     H     0.33228  0.33228  0.00000  0.33545
       5     C     3.14291  3.14291  0.00000 -0.28582
       6     H     0.43150  0.43150  0.00000  0.13701
       7     H     0.42235  0.42235  0.00000  0.15530
       8     C     3.15624  3.15624  0.00000 -0.31249
       9     H     0.42555  0.42555  0.00000  0.14889
      10     H     0.41608  0.41608  0.00000  0.16783
      11     C     3.15035  3.15035  0.00000 -0.30070
      12     H     0.42580  0.42580  0.00000  0.14840
      13     H     0.42517  0.42517  0.00000  0.14966
      14     C     3.23915  3.23915  0.00000 -0.47830
      15     H     0.42309  0.42309  0.00000  0.15382
      16     H     0.42215  0.42215  0.00000  0.15570
      17     H     0.42249  0.42249  0.00000  0.15502
      18     H     0.41962  0.41962  0.00000  0.16077
      19     H     0.42218  0.42218  0.00000  0.15564

   Total alpha = 25.00000, Total beta = 25.00000, Total charge =  0.00000
