                              Psi4 1.0.54 Driver

  ==> Input File <==

--------------------------------------------------------------------------
set {
	reference rhf
	basis cc-pvtz
}

set_num_threads( 4 )
memory 2 gb

molecule MOL {
0 1

H	 -2.123894	 -0.667238	 -0.609809
O	 -2.041679	 -0.058866	 0.103463
C	 -0.959304	 0.780994	 -0.094939
C	 0.354905	 0.037902	 -0.006215
H	 -0.985899	 1.279578	 -1.057596
H	 -0.969809	 1.529522	 0.682889
F	 0.871310	 -0.155142	 -1.206986
F	 1.226554	 0.732358	 0.694896
F	 0.229343	 -1.138348	 0.560037

	symmetry c1
}
set optking {
	frozen_dihedral = ("
		7 4 3 5
	")
}

ee,wfn = optimize('scf', return_wfn=True)
oeprop( wfn, 'DIPOLE', 'QUADRUPOLE', 'MULLIKEN_CHARGES')
f=open( 'psi4out.xyz', 'w' )
f.write( "9  " )
f.write( str(ee) + "\n" )
f.write( MOL.save_string_xyz() )
f.close()
--------------------------------------------------------------------------

    Molecular point group: c1
  Charge       = 0
  Multiplicity = 1
  Basis Set: CC-PVTZ
  Basis Set:
  @DF-RHF Final Energy:  -450.84029004265255
    Total Energy =                       -450.8402900426526685
    Molecular point group: c1
  Basis Set: CC-PVTZ
  Basis Set:
  Basis Set: CC-PVTZ
  Basis Set:
  @DF-RHF Final Energy:  -450.84064172068150
    Total Energy =                       -450.8406417206819583
  Basis Set: CC-PVTZ
  Basis Set:
  Basis Set: CC-PVTZ
  Basis Set:
  @DF-RHF Final Energy:  -450.84094754846603
    Total Energy =                       -450.8409475484662039
  Basis Set: CC-PVTZ
  Basis Set:
  Basis Set: CC-PVTZ
  Basis Set:
  @DF-RHF Final Energy:  -450.84095595112609
    Total Energy =                       -450.8409559511261477
  Basis Set: CC-PVTZ
  Basis Set:
  Basis Set: CC-PVTZ
  Basis Set:
  @DF-RHF Final Energy:  -450.84095720725549
    Total Energy =                       -450.8409572072554283
  Basis Set: CC-PVTZ
  Basis Set:
  Charge       = 0
  Multiplicity = 1
  Basis Set: CC-PVTZ
  Basis Set:

    Orbital Energies (a.u.)
    -----------------------

    Doubly Occupied:

       1A    -26.337691     2A    -26.335915     3A    -26.335210
       4A    -20.582663     5A    -11.494043     6A    -11.310256
       7A     -1.746733     8A     -1.643835     9A     -1.639952
      10A     -1.405396    11A     -1.045406    12A     -0.929377
      13A     -0.835806    14A     -0.833905    15A     -0.809935
      16A     -0.732795    17A     -0.718439    18A     -0.703548
      19A     -0.669253    20A     -0.664517    21A     -0.647024
      22A     -0.630911    23A     -0.614208    24A     -0.531241
      25A     -0.484076

  @DF-RHF Final Energy:  -450.84095744459131

   => Energetics <=

    Nuclear Repulsion Energy =            276.5573955117595801
    One-Electron Energy =               -1175.4324393102456270
    Two-Electron Energy =                 448.0340863538945086
    DFT Exchange-Correlation Energy =       0.0000000000000000
    Empirical Dispersion Energy =           0.0000000000000000
    PCM Polarization Energy =               0.0000000000000000
    EFP Energy =                            0.0000000000000000
    Total Energy =                       -450.8409574445915950
    Molecular point group: c1
  Basis Set: CC-PVTZ
  Basis Set:

  -Total Gradient:
     Atom            X                  Y                   Z
    ------   -----------------  -----------------  -----------------
       1        0.000011075900    -0.000006311328     0.000004074636
       2       -0.000002285254     0.000009959147     0.000013534145
       3        0.002680949025     0.005001050574     0.002055936067
       4       -0.002548383263    -0.004689559183    -0.000632256381
       5       -0.001771741075    -0.003367549855    -0.001659971615
       6        0.000006918188    -0.000003701574    -0.000000013771
       7        0.001663981229     0.003047560659     0.000242806124
       8       -0.000028226441    -0.000014113795    -0.000000105646
       9       -0.000012288316     0.000022665353    -0.000024003566

  **** Optimization is complete! (in 6 steps) ****
    Final optimized geometry and variables:
    Molecular point group: c1

    Geometry (in Angstrom), charge = 0, multiplicity = 1:

    H           -2.178427094745    -0.643761986068    -0.642876705455
    O           -2.077635217212    -0.055770818050     0.084429959499
    C           -0.979723322391     0.771837131631    -0.090516807235
    C            0.356260708528     0.027499345784    -0.004517089301
    H           -1.008852075071     1.263745139171    -1.054979860147
    H           -1.002524980884     1.509056697369     0.695147172312
    F            0.873247088666    -0.170313071214    -1.205216814902
    F            1.238720942825     0.739115254386     0.669340000221
    F            0.253269628168    -1.139675839432     0.578012586931

  Mulliken Charges: (a.u.)
   Center  Symbol    Alpha    Beta     Spin     Total
       1     H     0.38976  0.38976  0.00000  0.22047
       2     O     4.18544  4.18544  0.00000 -0.37088
       3     C     3.00356  3.00356  0.00000 -0.00713
       4     C     2.68272  2.68272  0.00000  0.63457
       5     H     0.46016  0.46016  0.00000  0.07968
       6     H     0.44661  0.44661  0.00000  0.10677
       7     F     4.61491  4.61491  0.00000 -0.22981
       8     F     4.61246  4.61246  0.00000 -0.22492
       9     F     4.60437  4.60437  0.00000 -0.20874

   Total alpha = 25.00000, Total beta = 25.00000, Total charge =  0.00000

*** Psi4 exiting successfully. Buy a developer a beer!
