                              Psi4 1.0.54 Driver

  ==> Input File <==

--------------------------------------------------------------------------
set {
	reference rhf
	basis cc-pvtz
}

set_num_threads( 4 )
memory 2 gb

molecule MOL {
0 1

H	 -2.123894	 -0.667238	 -0.609809
O	 -2.041679	 -0.058866	 0.103463
C	 -0.959304	 0.780994	 -0.094939
C	 0.354905	 0.037902	 -0.006215
H	 -0.985899	 1.279578	 -1.057596
H	 -0.969809	 1.529522	 0.682889
F	 1.339982	 0.856003	 0.319552
F	 0.290620	 -0.896075	 0.919610
F	 0.682706	 -0.539210	 -1.137347

	symmetry c1
}
set optking {
	frozen_dihedral = ("
		7 4 3 5
	")
}

ee,wfn = optimize('scf', return_wfn=True)
oeprop( wfn, 'DIPOLE', 'QUADRUPOLE', 'MULLIKEN_CHARGES')
f=open( 'psi4out.xyz', 'w' )
f.write( "9  " )
f.write( str(ee) + "\n" )
f.write( MOL.save_string_xyz() )
f.close()
--------------------------------------------------------------------------

    Molecular point group: c1
  Charge       = 0
  Multiplicity = 1
  Basis Set: CC-PVTZ
  Basis Set:
  @DF-RHF Final Energy:  -450.84382856999764
    Total Energy =                       -450.8438285699976404
    Molecular point group: c1
  Basis Set: CC-PVTZ
  Basis Set:
  Basis Set: CC-PVTZ
  Basis Set:
  @DF-RHF Final Energy:  -450.84427345220712
    Total Energy =                       -450.8442734522071191
  Basis Set: CC-PVTZ
  Basis Set:
  Basis Set: CC-PVTZ
  Basis Set:
  @DF-RHF Final Energy:  -450.84438356807516
    Total Energy =                       -450.8443835680754432
  Basis Set: CC-PVTZ
  Basis Set:
  Basis Set: CC-PVTZ
  Basis Set:
  @DF-RHF Final Energy:  -450.84439580863358
    Total Energy =                       -450.8443958086330667
  Basis Set: CC-PVTZ
  Basis Set:
  Basis Set: CC-PVTZ
  Basis Set:
  @DF-RHF Final Energy:  -450.84439757032339
    Total Energy =                       -450.8443975703233946
  Basis Set: CC-PVTZ
  Basis Set:
  Charge       = 0
  Multiplicity = 1
  Basis Set: CC-PVTZ
  Basis Set:

    Orbital Energies (a.u.)
    -----------------------

    Doubly Occupied:

       1A    -26.339052     2A    -26.337757     3A    -26.333270
       4A    -20.582841     5A    -11.493087     6A    -11.310355
       7A     -1.746669     8A     -1.644111     9A     -1.640577
      10A     -1.405775    11A     -1.048194    12A     -0.929080
      13A     -0.837142    14A     -0.833958    15A     -0.808781
      16A     -0.733895    17A     -0.718740    18A     -0.702564
      19A     -0.671007    20A     -0.663693    21A     -0.647539
      22A     -0.632529    23A     -0.614618    24A     -0.534016
      25A     -0.484060

  @DF-RHF Final Energy:  -450.84439771726881

   => Energetics <=

    Nuclear Repulsion Energy =            277.2399953305989015
    One-Electron Energy =               -1176.7821677983879454
    Two-Electron Energy =                 448.6977747505202956
    DFT Exchange-Correlation Energy =       0.0000000000000000
    Empirical Dispersion Energy =           0.0000000000000000
    PCM Polarization Energy =               0.0000000000000000
    EFP Energy =                            0.0000000000000000
    Total Energy =                       -450.8443977172686914
    Molecular point group: c1
  Basis Set: CC-PVTZ
  Basis Set:

  -Total Gradient:
     Atom            X                  Y                   Z
    ------   -----------------  -----------------  -----------------
       1        0.000012853285    -0.000006084286    -0.000002831327
       2       -0.000021934565     0.000008785479     0.000009776886
       3        0.002724919457     0.005254051654     0.003937985118
       4        0.000490539462     0.000062654764    -0.006269054266
       5       -0.002427681591    -0.004532588440    -0.002130889894
       6       -0.000006178012     0.000002729413    -0.000000457688
       7       -0.000762586179    -0.000762718600     0.004543702183
       8       -0.000011057538     0.000012156048    -0.000032400620
       9        0.000001125675    -0.000038986035    -0.000055830394

  **** Optimization is complete! (in 6 steps) ****
    Final optimized geometry and variables:
    Molecular point group: c1

    Geometry (in Angstrom), charge = 0, multiplicity = 1:

    H           -2.163599759183    -0.627189787739    -0.666816112205
    O           -2.053377566114    -0.060563799016     0.076111303656
    C           -0.964856480087     0.780407285063    -0.101132183595
    C            0.356834583567     0.035841132250    -0.007754164871
    H           -0.996704191315     1.256292071924    -1.074426324865
    H           -0.989700427370     1.525396080529     0.677778795969
    F            1.332742884756     0.868671195004     0.290656266401
    F            0.338634747271    -0.892218958398     0.918688300610
    F            0.661573162974    -0.555323285257    -1.148232712371

  Mulliken Charges: (a.u.)
   Center  Symbol    Alpha    Beta     Spin     Total
       1     H     0.38887  0.38887  0.00000  0.22227
       2     O     4.18938  4.18938  0.00000 -0.37876
       3     C     2.99458  2.99458  0.00000  0.01084
       4     C     2.68598  2.68598  0.00000  0.62804
       5     H     0.46119  0.46119  0.00000  0.07763
       6     H     0.44611  0.44611  0.00000  0.10778
       7     F     4.61226  4.61226  0.00000 -0.22451
       8     F     4.60625  4.60625  0.00000 -0.21249
       9     F     4.61539  4.61539  0.00000 -0.23079

   Total alpha = 25.00000, Total beta = 25.00000, Total charge = -0.00000

*** Psi4 exiting successfully. Buy a developer a beer!
