  ==> Input File <==

--------------------------------------------------------------------------
set {
	reference rhf
	basis 6-31G*
}

set_num_threads( 4 )
memory 2 gb

molecule MOL {
0 1

H	 -2.098997	 -0.674324	 -0.616650
O	 -2.035884	 -0.060112	 0.102722
C	 -0.955155	 0.788182	 -0.092531
C	 0.353668	 0.040312	 -0.004810
H	 -0.985057	 1.290372	 -1.054184
H	 -0.974469	 1.533190	 0.688632
F	 0.864928	 -0.150823	 -1.215865
F	 1.235580	 0.731853	 0.698896
F	 0.222095	 -1.142459	 0.560249

	symmetry c1
}
set optking {
	frozen_dihedral = ("
		7 4 3 5
	")
}

ee = optimize('scf')
oeprop('DIPOLE', 'QUADRUPOLE', 'MULLIKEN_CHARGES')
f=open( 'psi4out.xyz', 'w' )
f.write( "9  " )
f.write( str(ee) + "\n" )
f.write( MOL.save_string_xyz() )
f.close()
--------------------------------------------------------------------------

    Molecular point group: c1
  Charge       = 0
  Multiplicity = 1
  Basis Set: 6-31G*
  Basis Set:
  @DF-RHF Final Energy:  -450.65562860539580
    Total Energy =                       -450.6556286053959184
    Molecular point group: c1
  Basis Set: 6-31G*
  Basis Set:
  Basis Set: 6-31G*
  Basis Set:
  @DF-RHF Final Energy:  -450.65598600585412
    Total Energy =                       -450.6559860058541744
  Basis Set: 6-31G*
  Basis Set:
  Basis Set: 6-31G*
  Basis Set:
  @DF-RHF Final Energy:  -450.65631250106054
    Total Energy =                       -450.6563125010603699
  Basis Set: 6-31G*
  Basis Set:
  Basis Set: 6-31G*
  Basis Set:
  @DF-RHF Final Energy:  -450.65631963736206
    Total Energy =                       -450.6563196373621167
  Basis Set: 6-31G*
  Basis Set:
  Charge       = 0
  Multiplicity = 1
  Basis Set: 6-31G*
  Basis Set:

    Orbital Energies (a.u.)
    -----------------------

    Doubly Occupied:

       1A    -26.341116     2A    -26.339248     3A    -26.338551
       4A    -20.589459     5A    -11.500081     6A    -11.309965
       7A     -1.738820     8A     -1.637367     9A     -1.633647
      10A     -1.400794    11A     -1.043043    12A     -0.923039
      13A     -0.828099    14A     -0.826114    15A     -0.803855
      16A     -0.727303    17A     -0.710954    18A     -0.696932
      19A     -0.661848    20A     -0.657058    21A     -0.640011
      22A     -0.626654    23A     -0.609723    24A     -0.527948
      25A     -0.479882

  @DF-RHF Final Energy:  -450.65632063332492

   => Energetics <=

    Nuclear Repulsion Energy =            275.9047413284351364
    One-Electron Energy =               -1173.9391075509024631
    Two-Electron Energy =                 447.3780455891421184
    DFT Exchange-Correlation Energy =       0.0000000000000000
    Empirical Dispersion Energy =           0.0000000000000000
    PCM Polarization Energy =               0.0000000000000000
    EFP Energy =                            0.0000000000000000
    Total Energy =                       -450.6563206333251514
    Molecular point group: c1
  Basis Set: 6-31G*
  Basis Set:

  -Total Gradient:
     Atom            X                  Y                   Z
    ------   -----------------  -----------------  -----------------
       1        0.000002619575    -0.000024401303     0.000007813194
       2        0.000049453576     0.000056248483    -0.000025365698
       3        0.002601701533     0.004931346011     0.002085192852
       4       -0.002474971974    -0.004467533686    -0.000628675734
       5       -0.001773032780    -0.003324314706    -0.001659864747
       6        0.000017549311    -0.000007972479     0.000002924325
       7        0.001651778507     0.002981918983     0.000235652510
       8       -0.000075163569    -0.000087824713    -0.000043035326
       9        0.000000065824    -0.000057466595     0.000025358623

  **** Optimization is complete! (in 5 steps) ****
    Final optimized geometry and variables:
    Molecular point group: c1

    Geometry (in Angstrom), charge = 0, multiplicity = 1:

    H           -2.159765215996    -0.653917923045    -0.643834861288
    O           -2.074271402849    -0.056344695021     0.086703630590
    C           -0.976599713332     0.776545548981    -0.089309328306
    C            0.354695345720     0.029182275261    -0.004650474702
    H           -1.009667423602     1.273094398748    -1.052555441420
    H           -1.004110165368     1.510550655910     0.700059739273
    F            0.872719658724    -0.168435269485    -1.212009857411
    F            1.243741769307     0.739201106811     0.673916632037
    F            0.244097339998    -1.145229779943     0.577297959629

  Mulliken Charges: (a.u.)
   Center  Symbol    Alpha    Beta     Spin     Total
       1     H     0.27452  0.27452  0.00000  0.45096
       2     O     4.35905  4.35905  0.00000 -0.71810
       3     C     3.06671  3.06671  0.00000 -0.13342
       4     C     2.45965  2.45965  0.00000  1.08070
       5     H     0.40561  0.40561  0.00000  0.18879
       6     H     0.39179  0.39179  0.00000  0.21643
       7     F     4.68545  4.68545  0.00000 -0.37091
       8     F     4.68366  4.68366  0.00000 -0.36733
       9     F     4.67356  4.67356  0.00000 -0.34712

   Total alpha = 25.00000, Total beta = 25.00000, Total charge = -0.00000
