                              Psi4 1.0.54 Driver

  ==> Input File <==

--------------------------------------------------------------------------
set {
	reference rhf
	basis cc-pvtz
}

set_num_threads( 4 )
memory 2 gb

molecule MOL {
0 1

H	 1.128311	 0.207724	 1.465118
C	 1.134565	 0.093781	 0.372499
C	 0.062554	 0.862911	 -0.350953
O	 1.948932	 -0.587720	 -0.146651
C	 0.342743	 2.368386	 -0.391628
H	 -0.890102	 0.648566	 0.115950
H	 0.032894	 0.476958	 -1.367434
C	 0.272713	 3.036110	 0.978734
H	 -0.375665	 2.832663	 -1.057143
H	 1.320050	 2.540773	 -0.833894
H	 -0.708163	 2.908808	 1.422842
H	 0.467796	 4.098803	 0.899575
H	 0.999247	 2.617846	 1.666658

	symmetry c1
}
set optking {
	frozen_dihedral = ("
		6 3 2 4
	")
}

ee,wfn = optimize('scf', return_wfn=True)
oeprop( wfn, 'DIPOLE', 'QUADRUPOLE', 'MULLIKEN_CHARGES')
f=open( 'psi4out.xyz', 'w' )
f.write( "13  " )
f.write( str(ee) + "\n" )
f.write( MOL.save_string_xyz() )
f.close()
--------------------------------------------------------------------------

    Molecular point group: c1
  Charge       = 0
  Multiplicity = 1
  Basis Set: CC-PVTZ
  Basis Set:
  @DF-RHF Final Energy:  -231.06857436355423
    Total Energy =                       -231.0685743635542337
    Molecular point group: c1
  Basis Set: CC-PVTZ
  Basis Set:
  Basis Set: CC-PVTZ
  Basis Set:
  @DF-RHF Final Energy:  -231.06892625606631
    Total Energy =                       -231.0689262560662769
  Basis Set: CC-PVTZ
  Basis Set:
  Basis Set: CC-PVTZ
  Basis Set:
  @DF-RHF Final Energy:  -231.06897015790295
    Total Energy =                       -231.0689701579030668
  Basis Set: CC-PVTZ
  Basis Set:
  Basis Set: CC-PVTZ
  Basis Set:
  @DF-RHF Final Energy:  -231.06902808200076
    Total Energy =                       -231.0690280820007274
  Basis Set: CC-PVTZ
  Basis Set:
  Basis Set: CC-PVTZ
  Basis Set:
  @DF-RHF Final Energy:  -231.06904218546501
    Total Energy =                       -231.0690421854649799
  Basis Set: CC-PVTZ
  Basis Set:
  Basis Set: CC-PVTZ
  Basis Set:
  @DF-RHF Final Energy:  -231.06904355316669
    Total Energy =                       -231.0690435531666367
  Basis Set: CC-PVTZ
  Basis Set:
  Basis Set: CC-PVTZ
  Basis Set:
  @DF-RHF Final Energy:  -231.06904681625420
    Total Energy =                       -231.0690468162542004
  Basis Set: CC-PVTZ
  Basis Set:
  Charge       = 0
  Multiplicity = 1
  Basis Set: CC-PVTZ
  Basis Set:

    Orbital Energies (a.u.)
    -----------------------

    Doubly Occupied:

       1A    -20.552197     2A    -11.320768     3A    -11.237329
       4A    -11.234281     5A    -11.223395     6A     -1.406538
       7A     -1.086518     8A     -0.974563     9A     -0.855111
      10A     -0.781187    11A     -0.682840    12A     -0.649284
      13A     -0.607127    14A     -0.603598    15A     -0.572075
      16A     -0.535586    17A     -0.507925    18A     -0.495669
      19A     -0.483647    20A     -0.411188

  @DF-RHF Final Energy:  -231.06904713879163

   => Energetics <=

    Nuclear Repulsion Energy =            173.3415263061775136
    One-Electron Energy =                -656.3794941496499860
    Two-Electron Energy =                 251.9689207046807837
    DFT Exchange-Correlation Energy =       0.0000000000000000
    Empirical Dispersion Energy =           0.0000000000000000
    PCM Polarization Energy =               0.0000000000000000
    EFP Energy =                            0.0000000000000000
    Total Energy =                       -231.0690471387916887
    Molecular point group: c1
  Basis Set: CC-PVTZ
  Basis Set:

  -Total Gradient:
     Atom            X                  Y                   Z
    ------   -----------------  -----------------  -----------------
       1       -0.000004414349    -0.000001222904     0.000004895743
       2       -0.000058907255    -0.000053053471     0.000024117365
       3        0.000000711404    -0.000051515598    -0.000036320380
       4        0.000042232895     0.000054791118    -0.000013880053
       5       -0.000000595060     0.000004183833    -0.000005549081
       6        0.000025506852     0.000057695648     0.000037617986
       7       -0.000001347490     0.000001109121    -0.000016579122
       8        0.000004609250    -0.000002996309     0.000004175574
       9       -0.000005392813    -0.000002496598    -0.000005663426
      10       -0.000002471164    -0.000008337473     0.000004117985
      11       -0.000003710079    -0.000000098235    -0.000000729038
      12        0.000001668435     0.000005535698    -0.000001614332
      13        0.000002109374    -0.000003594834     0.000005410777

  **** Optimization is complete! (in 8 steps) ****
    Final optimized geometry and variables:
    Molecular point group: c1

    Geometry (in Angstrom), charge = 0, multiplicity = 1:

    H            0.372419150670    -0.955321318758     1.361879387389
    C            0.365730937479    -1.071164839824     0.272272814116
    C           -0.682842202761    -0.287696218514    -0.471572057967
    O            1.159543706049    -1.777476394213    -0.248124803315
    C           -0.407795163440     1.223916537395    -0.482606489894
    H           -1.644881938655    -0.475469246254    -0.001224428644
    H           -0.717561518256    -0.665915543827    -1.484375888452
    C           -0.479694717433     1.897656623579     0.885801156160
    H           -1.134558037236     1.684861080253    -1.141637428469
    H            0.565035770080     1.401797562478    -0.928951212287
    H           -1.443348404639     1.729174523728     1.354886615417
    H           -0.342948188081     2.967789114501     0.788393002193
    H            0.286022570440     1.534613062118     1.561202777125

  Mulliken Charges: (a.u.)
   Center  Symbol    Alpha    Beta     Spin     Total
       1     H     0.46198  0.46198  0.00000  0.07604
       2     C     2.90534  2.90534  0.00000  0.18932
       3     C     3.08843  3.08843  0.00000 -0.17685
       4     O     4.16580  4.16580  0.00000 -0.33159
       5     C     3.09657  3.09657  0.00000 -0.19314
       6     H     0.45141  0.45141  0.00000  0.09718
       7     H     0.43817  0.43817  0.00000  0.12367
       8     C     3.15198  3.15198  0.00000 -0.30396
       9     H     0.44547  0.44547  0.00000  0.10906
      10     H     0.44523  0.44523  0.00000  0.10954
      11     H     0.45348  0.45348  0.00000  0.09305
      12     H     0.44351  0.44351  0.00000  0.11299
      13     H     0.45265  0.45265  0.00000  0.09470

   Total alpha = 20.00000, Total beta = 20.00000, Total charge =  0.00000

*** Psi4 exiting successfully. Buy a developer a beer!
