                              Psi4 1.0.54 Driver

  ==> Input File <==

--------------------------------------------------------------------------
set {
	reference rhf
	basis cc-pvtz
}

set_num_threads( 4 )
memory 2 gb

molecule MOL {
0 1

H	 -4.230259	 0.539112	 0.036360
O	 -3.515113	 -0.019339	 -0.206321
C	 -2.302264	 0.528872	 0.237390
C	 -1.175688	 -0.398187	 -0.171891
H	 -2.148018	 1.514076	 -0.197759
H	 -2.310727	 0.646384	 1.319032
C	 0.196029	 0.106276	 0.266738
H	 -1.201873	 -0.515469	 -1.250677
H	 -1.365975	 -1.378728	 0.252664
C	 1.330220	 -0.826136	 -0.155230
H	 0.359542	 1.097229	 -0.145561
H	 0.212134	 0.218135	 1.348778
C	 2.719700	 -0.407669	 0.328325
H	 1.339388	 -0.911200	 -1.239363
H	 1.119001	 -1.821953	 0.224128
C	 3.487894	 -1.492214	 1.079989
H	 2.610270	 0.454552	 0.978945
H	 3.308809	 -0.071935	 -0.521185
H	 2.919618	 -1.852499	 1.931646
H	 3.711805	 -2.343364	 0.448250
H	 4.430497	 -1.107434	 1.452301

	symmetry c1
}
set optking {
	frozen_dihedral = ("
		16 13 10 14
	")
}

ee,wfn = optimize('scf', return_wfn=True)
oeprop( wfn, 'DIPOLE', 'QUADRUPOLE', 'MULLIKEN_CHARGES')
f=open( 'psi4out.xyz', 'w' )
f.write( "21  " )
f.write( str(ee) + "\n" )
f.write( MOL.save_string_xyz() )
f.close()
--------------------------------------------------------------------------

    Molecular point group: c1
  Charge       = 0
  Multiplicity = 1
  Basis Set: CC-PVTZ
  Basis Set:
  @DF-RHF Final Energy:  -310.32891725426174
    Total Energy =                       -310.3289172542620236
    Molecular point group: c1
  Basis Set: CC-PVTZ
  Basis Set:
  Basis Set: CC-PVTZ
  Basis Set:
  @DF-RHF Final Energy:  -310.32940870993855
    Total Energy =                       -310.3294087099387752
  Basis Set: CC-PVTZ
  Basis Set:
  Basis Set: CC-PVTZ
  Basis Set:
  @DF-RHF Final Energy:  -310.32947801624772
    Total Energy =                       -310.3294780162476059
  Basis Set: CC-PVTZ
  Basis Set:
  Basis Set: CC-PVTZ
  Basis Set:
  @DF-RHF Final Energy:  -310.32947664151322
    Total Energy =                       -310.3294766415128265
  Basis Set: CC-PVTZ
  Basis Set:
  Basis Set: CC-PVTZ
  Basis Set:
  @DF-RHF Final Energy:  -310.32948156099695
    Total Energy =                       -310.3294815609971238
  Basis Set: CC-PVTZ
  Basis Set:
  Charge       = 0
  Multiplicity = 1
  Basis Set: CC-PVTZ
  Basis Set:

    Orbital Energies (a.u.)
    -----------------------

    Doubly Occupied:

       1A    -20.545423     2A    -11.265077     3A    -11.214020
       4A    -11.212448     5A    -11.210800     6A    -11.208801
       7A    -11.206479     8A     -1.363280     9A     -1.086086
      10A     -1.034620    11A     -0.957660    12A     -0.868275
      13A     -0.803655    14A     -0.790307    15A     -0.696119
      16A     -0.663356    17A     -0.626952    18A     -0.601516
      19A     -0.586935    20A     -0.565675    21A     -0.544223
      22A     -0.523065    23A     -0.507965    24A     -0.486879
      25A     -0.478093    26A     -0.462699    27A     -0.455702
      28A     -0.442847    29A     -0.437419

  @DF-RHF Final Energy:  -310.32948159613335

   => Energetics <=

    Nuclear Repulsion Energy =            309.8839972230676381
    One-Electron Energy =               -1034.7342185914735637
    Two-Electron Energy =                 414.5207397722726910
    DFT Exchange-Correlation Energy =       0.0000000000000000
    Empirical Dispersion Energy =           0.0000000000000000
    PCM Polarization Energy =               0.0000000000000000
    EFP Energy =                            0.0000000000000000
    Total Energy =                       -310.3294815961332915
    Molecular point group: c1
  Basis Set: CC-PVTZ
  Basis Set:

  -Total Gradient:
     Atom            X                  Y                   Z
    ------   -----------------  -----------------  -----------------
       1       -0.000001309177     0.000000716289     0.000000266896
       2        0.000000727783    -0.000002371951    -0.000000137033
       3        0.000004622570     0.000001140348     0.000001953945
       4        0.000003251900     0.000004797702    -0.000008935955
       5       -0.000000456522    -0.000001454885    -0.000000215366
       6       -0.000000853727     0.000002436441     0.000003076585
       7       -0.000006260851     0.000007707663     0.000006376734
       8       -0.000001427193    -0.000001063820    -0.000003772334
       9        0.000002229289    -0.000000810906     0.000000348514
      10        0.000491257570    -0.002160147575     0.000803661518
      11       -0.000002492307     0.000001624196     0.000001486605
      12       -0.000004149331    -0.000003232131     0.000000598909
      13        0.000641097451    -0.000272631680    -0.001805794232
      14       -0.000562217849     0.001915888922    -0.000244360443
      15        0.000012787046     0.000001258276     0.000002963375
      16       -0.000565163158     0.000510084484     0.001249940124
      17       -0.000010284661    -0.000003084664    -0.000003133605
      18       -0.000000600473    -0.000001503095    -0.000007955378
      19       -0.000000631226     0.000002642810     0.000007155184
      20        0.000002055808    -0.000001319609     0.000002361061
      21       -0.000002182947    -0.000000676814    -0.000005885105

  **** Optimization is complete! (in 6 steps) ****
    Final optimized geometry and variables:
    Molecular point group: c1

    Geometry (in Angstrom), charge = 0, multiplicity = 1:

    H           -4.241107054570     1.004873546169    -0.238807794651
    O           -3.542385642963     0.418627032663    -0.462916446988
    C           -2.318692403624     0.927095544352    -0.002081827555
    C           -1.219044624977    -0.043898585712    -0.381788517298
    H           -2.120877335423     1.901619761751    -0.443595469515
    H           -2.342504169524     1.055782255981     1.078028485891
    C            0.161486125483     0.416116790553     0.074350677808
    H           -1.231650083685    -0.173179711495    -1.459395038990
    H           -1.450851268021    -1.012141350192     0.050631336034
    C            1.274800718745    -0.560907246064    -0.300154137120
    H            0.382120906298     1.389226077376    -0.358530027338
    H            0.160623223367     0.556650732562     1.152960749719
    C            2.676200836355    -0.091199412788     0.138294245467
    H            1.254572964768    -0.702492384138    -1.376092333286
    H            1.055384739669    -1.528320543460     0.140814112935
    C            3.453679441063    -1.142854166550     0.924513985523
    H            2.581875828606     0.797939133424     0.754087516037
    H            3.253766269199     0.208728981562    -0.729360436869
    H            2.923484968666    -1.419628472511     1.829816352116
    H            3.596809471251    -2.045193108612     0.339039287517
    H            4.432755357025    -0.776194892944     1.211829213396

  Mulliken Charges: (a.u.)
   Center  Symbol    Alpha    Beta     Spin     Total
       1     H     0.39760  0.39760  0.00000  0.20480
       2     O     4.19432  4.19432  0.00000 -0.38864
       3     C     2.96314  2.96314  0.00000  0.07371
       4     C     3.08565  3.08565  0.00000 -0.17129
       5     H     0.47496  0.47496  0.00000  0.05008
       6     H     0.47493  0.47493  0.00000  0.05015
       7     C     3.10131  3.10131  0.00000 -0.20261
       8     H     0.45108  0.45108  0.00000  0.09784
       9     H     0.45077  0.45077  0.00000  0.09845
      10     C     3.09209  3.09209  0.00000 -0.18417
      11     H     0.45416  0.45416  0.00000  0.09169
      12     H     0.45521  0.45521  0.00000  0.08959
      13     C     3.08788  3.08788  0.00000 -0.17575
      14     H     0.45044  0.45044  0.00000  0.09912
      15     H     0.45322  0.45322  0.00000  0.09356
      16     C     3.14747  3.14747  0.00000 -0.29495
      17     H     0.45531  0.45531  0.00000  0.08939
      18     H     0.45060  0.45060  0.00000  0.09881
      19     H     0.45571  0.45571  0.00000  0.08858
      20     H     0.45427  0.45427  0.00000  0.09146
      21     H     0.44990  0.44990  0.00000  0.10020

   Total alpha = 29.00000, Total beta = 29.00000, Total charge =  0.00000

*** Psi4 exiting successfully. Buy a developer a beer!
