                              Psi4 1.0.54 Driver

  ==> Input File <==

--------------------------------------------------------------------------
set {
	reference rhf
	basis cc-pvtz
}

set_num_threads( 4 )
memory 2 gb

molecule MOL {
0 1

H	 1.486304	 1.236844	 0.401984
C	 0.848385	 0.440008	 0.000011
C	 -0.623497	 0.751021	 0.000090
O	 1.330006	 -0.566408	 -0.390388
C	 -1.523725	 -0.474323	 -0.000013
H	 -0.813143	 1.382932	 -0.864897
H	 -0.813071	 1.382716	 0.865253
H	 -1.342980	 -1.087348	 -0.873016
H	 -2.565269	 -0.177464	 0.000070
H	 -1.342898	 -1.087564	 0.872820

	symmetry c1
}
set optking {
	frozen_dihedral = ("
		4 2 3 6
	")
}

ee,wfn = optimize('scf', return_wfn=True)
oeprop( wfn, 'DIPOLE', 'QUADRUPOLE', 'MULLIKEN_CHARGES')
f=open( 'psi4out.xyz', 'w' )
f.write( "10  " )
f.write( str(ee) + "\n" )
f.write( MOL.save_string_xyz() )
f.close()
--------------------------------------------------------------------------

    Molecular point group: c1
  Charge       = 0
  Multiplicity = 1
  Basis Set: CC-PVTZ
  Basis Set:
  @DF-RHF Final Energy:  -192.02359405607459
    Total Energy =                       -192.0235940560746144
    Molecular point group: c1
  Basis Set: CC-PVTZ
  Basis Set:
  Basis Set: CC-PVTZ
  Basis Set:
  @DF-RHF Final Energy:  -192.02232702219169
    Total Energy =                       -192.0223270221916607
  Basis Set: CC-PVTZ
  Basis Set:
  Basis Set: CC-PVTZ
  Basis Set:
  @DF-RHF Final Energy:  -192.02373268242525
    Total Energy =                       -192.0237326824250204
  Basis Set: CC-PVTZ
  Basis Set:
  Basis Set: CC-PVTZ
  Basis Set:
  @DF-RHF Final Energy:  -192.02390518493925
    Total Energy =                       -192.0239051849391956
  Basis Set: CC-PVTZ
  Basis Set:
  Charge       = 0
  Multiplicity = 1
  Basis Set: CC-PVTZ
  Basis Set:

    Orbital Energies (a.u.)
    -----------------------

    Doubly Occupied:

       1A    -20.553611     2A    -11.323608     3A    -11.239454
       4A    -11.218795     5A     -1.409273     6A     -1.061323
       7A     -0.910487     8A     -0.775504     9A     -0.686009
      10A     -0.639312    11A     -0.629579    12A     -0.547928
      13A     -0.535847    14A     -0.517970    15A     -0.495349
      16A     -0.416256

  @DF-RHF Final Energy:  -192.02390724480591

   => Energetics <=

    Nuclear Repulsion Energy =            119.2844403317030384
    One-Electron Energy =                -496.6960843842154532
    Two-Electron Energy =                 185.3877368077066023
    DFT Exchange-Correlation Energy =       0.0000000000000000
    Empirical Dispersion Energy =           0.0000000000000000
    PCM Polarization Energy =               0.0000000000000000
    EFP Energy =                            0.0000000000000000
    Total Energy =                       -192.0239072448058266
    Molecular point group: c1
  Basis Set: CC-PVTZ
  Basis Set:

  -Total Gradient:
     Atom            X                  Y                   Z
    ------   -----------------  -----------------  -----------------
       1        0.000050613470     0.000101725025     0.000045360822
       2       -0.000264267451    -0.001683437372     0.002730175129
       3        0.000453413380     0.002382642383     0.000403868602
       4        0.000127276675     0.000889411477    -0.002054122354
       5       -0.000033844148     0.000042717366     0.000039562465
       6       -0.000336469443    -0.001682374278    -0.001133908935
       7        0.000017403087    -0.000024337101    -0.000026372761
       8        0.000004532812     0.000007187240    -0.000005864202
       9       -0.000014474013    -0.000020039684    -0.000003499911
      10       -0.000004184370    -0.000013495057     0.000004801145

  **** Optimization is complete! (in 5 steps) ****
    Final optimized geometry and variables:
    Molecular point group: c1

    Geometry (in Angstrom), charge = 0, multiplicity = 1:

    H            1.473434768497     1.260901571037     0.460712906450
    C            0.838264933893     0.437273131147     0.112048183025
    C           -0.641191407170     0.723194401362     0.115574807703
    O            1.328983078995    -0.567365953722    -0.271679904044
    C           -1.513190633150    -0.524119949780     0.064298516594
    H           -0.824279342835     1.342476955519    -0.761087554580
    H           -0.871979736718     1.339327073089     0.978461910943
    H           -1.285768913315    -1.117329552134    -0.810197874454
    H           -2.560682045349    -0.251021630856     0.032372990264
    H           -1.351869699268    -1.146726654606     0.935635475037

  Mulliken Charges: (a.u.)
   Center  Symbol    Alpha    Beta     Spin     Total
       1     H     0.45366  0.45366  0.00000  0.09268
       2     C     2.91619  2.91619  0.00000  0.16761
       3     C     3.08342  3.08342  0.00000 -0.16684
       4     O     4.16523  4.16523  0.00000 -0.33045
       5     C     3.14141  3.14141  0.00000 -0.28282
       6     H     0.44771  0.44771  0.00000  0.10457
       7     H     0.44838  0.44838  0.00000  0.10325
       8     H     0.44377  0.44377  0.00000  0.11246
       9     H     0.44937  0.44937  0.00000  0.10125
      10     H     0.45086  0.45086  0.00000  0.09827

   Total alpha = 16.00000, Total beta = 16.00000, Total charge = -0.00000

*** Psi4 exiting successfully. Buy a developer a beer!
