                              Psi4 1.0.54 Driver

  ==> Input File <==

--------------------------------------------------------------------------
set {
	reference rhf
	basis cc-pvtz
}

set_num_threads( 4 )
memory 2 gb

molecule MOL {
0 1

H	 -0.380860	 -1.354051	 0.664688
N	 -0.625934	 -0.663929	 -0.000707
C	 -1.978635	 -0.158664	 0.001017
C	 0.327854	 -0.244544	 -0.861513
H	 -2.519057	 -0.493535	 -0.876362
H	 -1.938890	 0.917202	 -0.004137
H	 -2.514266	 -0.485137	 0.884506
C	 1.675762	 -0.907136	 -0.680030
O	 0.136024	 0.586720	 -1.698936
H	 1.592438	 -1.978553	 -0.820460
H	 2.364454	 -0.502792	 -1.403410
H	 2.054899	 -0.727635	 0.319296

	symmetry c1
}
set optking {
	frozen_dihedral = ("
		4 2 3 5
	")
}

ee,wfn = optimize('scf', return_wfn=True)
oeprop( wfn, 'DIPOLE', 'QUADRUPOLE', 'MULLIKEN_CHARGES')
f=open( 'psi4out.xyz', 'w' )
f.write( "12  " )
f.write( str(ee) + "\n" )
f.write( MOL.save_string_xyz() )
f.close()
--------------------------------------------------------------------------

    Molecular point group: c1
  Charge       = 0
  Multiplicity = 1
  Basis Set: CC-PVTZ
  Basis Set:
  @DF-RHF Final Energy:  -247.10067180417147
    Total Energy =                       -247.1006718041716113
    Molecular point group: c1
  Basis Set: CC-PVTZ
  Basis Set:
  Basis Set: CC-PVTZ
  Basis Set:
  @DF-RHF Final Energy:  -247.10117697453046
    Total Energy =                       -247.1011769745304036
  Basis Set: CC-PVTZ
  Basis Set:
  Basis Set: CC-PVTZ
  Basis Set:
  @DF-RHF Final Energy:  -247.10105241548115
    Total Energy =                       -247.1010524154811492
  Basis Set: CC-PVTZ
  Basis Set:
  Basis Set: CC-PVTZ
  Basis Set:
  @DF-RHF Final Energy:  -247.10126165057673
    Total Energy =                       -247.1012616505767028
  Basis Set: CC-PVTZ
  Basis Set:
  @DF-RHF Final Energy:  -247.10126534347731
    Total Energy =                       -247.1012653434772233
  @DF-RHF Final Energy:  -247.10127331581523
    Total Energy =                       -247.1012733158152059
  @DF-RHF Final Energy:  -247.10128270076132
    Total Energy =                       -247.1012827007613168
  @DF-RHF Final Energy:  -247.10128868754512
    Total Energy =                       -247.1012886875451500
  @DF-RHF Final Energy:  -247.10129119846283
    Total Energy =                       -247.1012911984627181
  @DF-RHF Final Energy:  -247.10129746617739
    Total Energy =                       -247.1012974661774706
  @DF-RHF Final Energy:  -247.10100554671359
    Total Energy =                       -247.1010055467136226
  @DF-RHF Final Energy:  -247.10132985218448
    Total Energy =                       -247.1013298521844490
  @DF-RHF Final Energy:  -247.10096899432054
    Total Energy =                       -247.1009689943205672
  @DF-RHF Final Energy:  -247.10062562241717
    Total Energy =                       -247.1006256224171693
  @DF-RHF Final Energy:  -247.10138101907262
    Total Energy =                       -247.1013810190728464
  @DF-RHF Final Energy:  -247.10142599233566
    Total Energy =                       -247.1014259923355212
  @DF-RHF Final Energy:  -247.10144122106149
    Total Energy =                       -247.1014412210615774
  Basis Set: CC-PVTZ
  Basis Set:
  @DF-RHF Final Energy:  -247.10146183576967
    Total Energy =                       -247.1014618357696691
  Basis Set: CC-PVTZ
  Basis Set:
  Basis Set: CC-PVTZ
  Basis Set:
  @DF-RHF Final Energy:  -247.10146719737384
    Total Energy =                       -247.1014671973737791
  Basis Set: CC-PVTZ
  Basis Set:
  Basis Set: CC-PVTZ
  Basis Set:
  @DF-RHF Final Energy:  -247.10146869538522
    Total Energy =                       -247.1014686953852788
  Basis Set: CC-PVTZ
  Basis Set:
  Charge       = 0
  Multiplicity = 1
  Basis Set: CC-PVTZ
  Basis Set:

    Orbital Energies (a.u.)
    -----------------------

    Doubly Occupied:

       1A    -20.504360     2A    -15.576821     3A    -11.335279
       4A    -11.254259     5A    -11.228491     6A     -1.387612
       7A     -1.231580     8A     -1.015938     9A     -0.934296
      10A     -0.790477    11A     -0.690726    12A     -0.651849
      13A     -0.636001    14A     -0.585264    15A     -0.582822
      16A     -0.556445    17A     -0.548346    18A     -0.505002
      19A     -0.416700    20A     -0.391180

  @DF-RHF Final Energy:  -247.10146951196836

   => Energetics <=

    Nuclear Repulsion Energy =            181.8940820863851116
    One-Electron Energy =                -696.3442105417479979
    Two-Electron Energy =                 267.3486589433944118
    DFT Exchange-Correlation Energy =       0.0000000000000000
    Empirical Dispersion Energy =           0.0000000000000000
    PCM Polarization Energy =               0.0000000000000000
    EFP Energy =                            0.0000000000000000
    Total Energy =                       -247.1014695119685030
    Molecular point group: c1
  Basis Set: CC-PVTZ
  Basis Set:

  -Total Gradient:
     Atom            X                  Y                   Z
    ------   -----------------  -----------------  -----------------
       1        0.000003024243    -0.000008290079     0.000006172229
       2       -0.000027644860    -0.000081816141    -0.000017151682
       3        0.000018720107     0.000091402342    -0.000041357701
       4       -0.000012119233     0.000035349520     0.000023001907
       5       -0.000013238097    -0.000044796053     0.000042103392
       6        0.000002897069    -0.000002275479    -0.000002656329
       7        0.000004903344    -0.000002996807    -0.000001590386
       8       -0.000030549158     0.000014509041    -0.000003365485
       9        0.000010255585     0.000007634537    -0.000001852155
      10        0.000002965721    -0.000045393912    -0.000031513937
      11        0.000041491698     0.000045301339    -0.000011509759
      12       -0.000000706418    -0.000008628304     0.000039719905

  **** Optimization is complete! (in 21 steps) ****
    Final optimized geometry and variables:
    Molecular point group: c1

    Geometry (in Angstrom), charge = 0, multiplicity = 1:

    H           -0.210608514245    -0.833801851744     1.506653554684
    N           -0.469766408542    -0.241003950124     0.759743499516
    C           -1.840150901351     0.207964451458     0.668471963528
    C            0.422840187425    -0.001817041084    -0.221717320150
    H           -2.394737178426    -0.343438035060    -0.081007886320
    H           -1.872019818654     1.255227849099     0.408477572829
    H           -2.316075738036     0.069397721917     1.629032266911
    C            1.797367234609    -0.601402249234    -0.030257604616
    O            0.149776580859     0.639451631263    -1.194043969453
    H            1.909406112141    -1.427236589925    -0.721850669446
    H            2.536191866921     0.145342179925    -0.281985430870
    H            1.972611384551    -0.959227749192     0.975723699613

  Mulliken Charges: (a.u.)
   Center  Symbol    Alpha    Beta     Spin     Total
       1     H     0.41096  0.41096  0.00000  0.17808
       2     N     3.61310  3.61310  0.00000 -0.22619
       3     C     3.07619  3.07619  0.00000 -0.15238
       4     C     2.84287  2.84287  0.00000  0.31426
       5     H     0.45453  0.45453  0.00000  0.09094
       6     H     0.44270  0.44270  0.00000  0.11461
       7     H     0.45586  0.45586  0.00000  0.08829
       8     C     3.14344  3.14344  0.00000 -0.28688
       9     O     4.22038  4.22038  0.00000 -0.44076
      10     H     0.44326  0.44326  0.00000  0.11348
      11     H     0.43827  0.43827  0.00000  0.12346
      12     H     0.45845  0.45845  0.00000  0.08310

   Total alpha = 20.00000, Total beta = 20.00000, Total charge = -0.00000

*** Psi4 exiting successfully. Buy a developer a beer!
