  ==> Input File <==

--------------------------------------------------------------------------
set {
	reference rhf
	basis cc-pvtz
}

set_num_threads( 4 )
memory 2 gb

molecule MOL {
0 1

O	 -0.294688	 1.318815	 -0.000872
C	 -0.448732	 0.145721	 -0.000187
C	 -1.780748	 -0.548101	 0.000195
O	 0.550743	 -0.719877	 0.000412
H	 -1.859389	 -1.183260	 -0.872613
H	 -2.570236	 0.185547	 -0.001342
H	 -1.860233	 -1.180337	 0.875064
C	 0.410158	 -1.871254	 0.808888
H	 0.293465	 -1.595786	 1.846448
H	 1.314829	 -2.441425	 0.674141
H	 -0.446417	 -2.451361	 0.499413

	symmetry c1
}
set optking {
	frozen_dihedral = ("
		8 4 2 1
	")
}

ee = optimize('scf')
oeprop('DIPOLE', 'QUADRUPOLE', 'MULLIKEN_CHARGES')
f=open( 'psi4out.xyz', 'w' )
f.write( "11  " )
f.write( str(ee) + "\n" )
f.write( MOL.save_string_xyz() )
f.close()
--------------------------------------------------------------------------

    Molecular point group: c1
  Charge       = 0
  Multiplicity = 1
  Basis Set: CC-PVTZ
  Basis Set:
  @DF-RHF Final Energy:  -266.91583657184333
    Total Energy =                       -266.9158365718432719
    Molecular point group: c1
  Basis Set: CC-PVTZ
  Basis Set:
  Basis Set: CC-PVTZ
  Basis Set:
  @DF-RHF Final Energy:  -266.91671165592857
    Total Energy =                       -266.9167116559284523
  Basis Set: CC-PVTZ
  Basis Set:
  Basis Set: CC-PVTZ
  Basis Set:
  @DF-RHF Final Energy:  -266.92149394378686
    Total Energy =                       -266.9214939437870271
  Basis Set: CC-PVTZ
  Basis Set:
  Basis Set: CC-PVTZ
  Basis Set:
  @DF-RHF Final Energy:  -266.92197810081188
    Total Energy =                       -266.9219781008118844
  Basis Set: CC-PVTZ
  Basis Set:
  @DF-RHF Final Energy:  -266.92223459086409
    Total Energy =                       -266.9222345908638090
  @DF-RHF Final Energy:  -266.92229716335453
    Total Energy =                       -266.9222971633543011
  @DF-RHF Final Energy:  -266.92231416291310
    Total Energy =                       -266.9223141629129827
  @DF-RHF Final Energy:  -266.92232660535069
    Total Energy =                       -266.9223266053508041
  @DF-RHF Final Energy:  -266.92233521202161
    Total Energy =                       -266.9223352120217214
  @DF-RHF Final Energy:  -266.92234039791401
    Total Energy =                       -266.9223403979142972
  @DF-RHF Final Energy:  -266.92234215169873
    Total Energy =                       -266.9223421516990129
  @DF-RHF Final Energy:  -266.92234324015982
    Total Energy =                       -266.9223432401598188
  @DF-RHF Final Energy:  -266.92234338071785
    Total Energy =                       -266.9223433807179049
  @DF-RHF Final Energy:  -266.92234331676730
    Total Energy =                       -266.9223433167672965
  @DF-RHF Final Energy:  -266.92234322911656
    Total Energy =                       -266.9223432291165068
  @DF-RHF Final Energy:  -266.92232413407828
    Total Energy =                       -266.9223241340783943
  @DF-RHF Final Energy:  -266.92234348838235
    Total Energy =                       -266.9223434883822392
  @DF-RHF Final Energy:  -266.92234356011465
    Total Energy =                       -266.9223435601145979
  @DF-RHF Final Energy:  -266.92234360871390
    Total Energy =                       -266.9223436087138452
  @DF-RHF Final Energy:  -266.92234363522590
    Total Energy =                       -266.9223436352259569
  @DF-RHF Final Energy:  -266.92234328184009
    Total Energy =                       -266.9223432818401989
  @DF-RHF Final Energy:  -266.92234351616162
    Total Energy =                       -266.9223435161614475
  @DF-RHF Final Energy:  -266.92234368614663
    Total Energy =                       -266.9223436861465757
  @DF-RHF Final Energy:  -266.92234370162134
    Total Energy =                       -266.9223437016215712
  @DF-RHF Final Energy:  -266.92234370518702
    Total Energy =                       -266.9223437051869041
  @DF-RHF Final Energy:  -266.92234370878231
    Total Energy =                       -266.9223437087822504
  @DF-RHF Final Energy:  -266.92234371289601
    Total Energy =                       -266.9223437128961223
  @DF-RHF Final Energy:  -266.92234371741949
    Total Energy =                       -266.9223437174194942
  @DF-RHF Final Energy:  -266.92234372261794
    Total Energy =                       -266.9223437226180522
  @DF-RHF Final Energy:  -266.92234372840306
    Total Energy =                       -266.9223437284031775
  @DF-RHF Final Energy:  -266.92234373463430
    Total Energy =                       -266.9223437346341257
  @DF-RHF Final Energy:  -266.92234374121688
    Total Energy =                       -266.9223437412168778
  @DF-RHF Final Energy:  -266.92234374832003
    Total Energy =                       -266.9223437483200314
  @DF-RHF Final Energy:  -266.92234375579039
    Total Energy =                       -266.9223437557907346
  @DF-RHF Final Energy:  -266.92234376357749
    Total Energy =                       -266.9223437635772598
  @DF-RHF Final Energy:  -266.92234377164448
    Total Energy =                       -266.9223437716444209
  Basis Set: CC-PVTZ
  Basis Set:
  @DF-RHF Final Energy:  -266.92234378026171
    Total Energy =                       -266.9223437802616559
  Basis Set: CC-PVTZ
  Basis Set:
  Basis Set: CC-PVTZ
  Basis Set:
  @DF-RHF Final Energy:  -266.92234378911616
    Total Energy =                       -266.9223437891160415
  Basis Set: CC-PVTZ
  Basis Set:
  Basis Set: CC-PVTZ
  Basis Set:
  @DF-RHF Final Energy:  -266.92234379824401
    Total Energy =                       -266.9223437982436735
  Basis Set: CC-PVTZ
  Basis Set:
  Charge       = 0
  Multiplicity = 1
  Basis Set: CC-PVTZ
  Basis Set:

    Orbital Energies (a.u.)
    -----------------------

    Doubly Occupied:

       1A    -20.591071     2A    -20.536965     3A    -11.371296
       4A    -11.294901     5A    -11.241510     6A     -1.466488
       7A     -1.372010     8A     -1.023453     9A     -0.980580
      10A     -0.784011    11A     -0.699237    12A     -0.687477
      13A     -0.679972    14A     -0.612321    15A     -0.593008
      16A     -0.579394    17A     -0.547410    18A     -0.507341
      19A     -0.459612    20A     -0.441568

  @DF-RHF Final Energy:  -266.92234380776966

   => Energetics <=

    Nuclear Repulsion Energy =            183.1570024715027785
    One-Electron Energy =                -727.2194445945024199
    Two-Electron Energy =                 277.1400983152301478
    DFT Exchange-Correlation Energy =       0.0000000000000000
    Empirical Dispersion Energy =           0.0000000000000000
    PCM Polarization Energy =               0.0000000000000000
    EFP Energy =                            0.0000000000000000
    Total Energy =                       -266.9223438077694937
    Molecular point group: c1
  Basis Set: CC-PVTZ
  Basis Set:

  -Total Gradient:
     Atom            X                  Y                   Z
    ------   -----------------  -----------------  -----------------
       1        0.000036148340    -0.000015612505     0.003532975455
       2        0.000680946102     0.000902316453    -0.003286096605
       3        0.000006279849    -0.000000523854    -0.000315317523
       4       -0.002110119055    -0.002522916919    -0.002478521667
       5       -0.000002972677     0.000004220199    -0.000013389114
       6        0.000003850963     0.000002230465     0.000025398294
       7        0.000002855678    -0.000014759853    -0.000007303466
       8        0.001381924794     0.001630114099     0.002547347695
       9        0.000000444213     0.000014641342    -0.000005738519
      10        0.000001651074     0.000002048412    -0.000003841407
      11       -0.000001009280    -0.000001757836     0.000004486858

    Molecular point group: c1

    Geometry (in Angstrom), charge = 0, multiplicity = 1:

    O            0.030331896958     1.645643127755    -0.155821102890
    C           -0.171025499383     0.486288724091    -0.157677145308
    C           -1.555486986381    -0.111309696430    -0.191600123840
    O            0.855814414286    -0.370736017642    -0.160362241094
    H           -1.627113849520    -0.860246612958    -0.969944436744
    H           -2.265813208790     0.678649737595    -0.370469114601
    H           -1.788248456646    -0.587241974232     0.753156707036
    C            0.814061659303    -1.543460718763     0.615073142460
    H            0.627253972664    -1.313648184433     1.656865019606
    H            1.787288457385    -1.997477386443     0.526061047169
    H            0.067243737890    -2.240825278326     0.257603966800

  Mulliken Charges: (a.u.)
   Center  Symbol    Alpha    Beta     Spin     Total
       1     O     4.17239  4.17239  0.00000 -0.34478
       2     C     2.80963  2.80963  0.00000  0.38073
       3     C     3.16294  3.16294  0.00000 -0.32587
       4     O     4.13825  4.13825  0.00000 -0.27650
       5     H     0.44312  0.44312  0.00000  0.11375
       6     H     0.42821  0.42821  0.00000  0.14358
       7     H     0.44858  0.44858  0.00000  0.10284
       8     C     3.04273  3.04273  0.00000 -0.08547
       9     H     0.45746  0.45746  0.00000  0.08509
      10     H     0.43502  0.43502  0.00000  0.12997
      11     H     0.46168  0.46168  0.00000  0.07665

   Total alpha = 20.00000, Total beta = 20.00000, Total charge = -0.00000
