  ==> Input File <==

--------------------------------------------------------------------------
set {
	reference rhf
	basis 6-31G*
}

set_num_threads( 4 )
memory 2 gb

molecule MOL {
0 1

H	 -3.420663	 1.227371	 -1.044276
O	 -3.452007	 0.283848	 -0.965577
C	 -3.181085	 -0.079926	 0.364119
C	 -1.765924	 0.277073	 0.805136
H	 -3.327791	 -1.152017	 0.410903
H	 -3.905698	 0.375695	 1.036898
C	 -0.677594	 -0.417312	 -0.014550
H	 -1.637766	 1.358238	 0.744969
H	 -1.659588	 0.017670	 1.857098
C	 0.738335	 -0.034840	 0.421385
H	 -0.814977	 -0.178223	 -1.064632
H	 -0.802730	 -1.495410	 0.071702
C	 1.822265	 -0.738362	 -0.399735
H	 0.853533	 1.043532	 0.342250
H	 0.871597	 -0.279636	 1.474438
C	 1.608949	 -2.244896	 -0.586837
H	 2.792297	 -0.568776	 0.064995
H	 1.871916	 -0.272583	 -1.381774
C	 1.699519	 -3.064814	 0.701549
H	 2.354475	 -2.613712	 -1.287162
H	 0.642171	 -2.415622	 -1.056301
H	 2.651886	 -2.904181	 1.199878
H	 1.613477	 -4.126236	 0.489847
H	 0.911981	 -2.808800	 1.402551

	symmetry c1
}
set optking {
	frozen_dihedral = ("
		17 13 10 7
	")
}

ee = optimize('scf')
oeprop('DIPOLE', 'QUADRUPOLE', 'MULLIKEN_CHARGES')
f=open( 'psi4out.xyz', 'w' )
f.write( "24  " )
f.write( str(ee) + "\n" )
f.write( MOL.save_string_xyz() )
f.close()
--------------------------------------------------------------------------

    Molecular point group: c1
  Charge       = 0
  Multiplicity = 1
  Basis Set: 6-31G*
  Basis Set:
  @DF-RHF Final Energy:  -349.24366809726115
    Total Energy =                       -349.2436680972615477
    Molecular point group: c1
  Basis Set: 6-31G*
  Basis Set:
  Basis Set: 6-31G*
  Basis Set:
  @DF-RHF Final Energy:  -349.24452360941325
    Total Energy =                       -349.2445236094133065
  Basis Set: 6-31G*
  Basis Set:
  Basis Set: 6-31G*
  Basis Set:
  @DF-RHF Final Energy:  -349.24512424556832
    Total Energy =                       -349.2451242455682632
  Basis Set: 6-31G*
  Basis Set:
  Basis Set: 6-31G*
  Basis Set:
  @DF-RHF Final Energy:  -349.24520186608385
    Total Energy =                       -349.2452018660840167
  Basis Set: 6-31G*
  Basis Set:
  Basis Set: 6-31G*
  Basis Set:
  @DF-RHF Final Energy:  -349.24521097397337
    Total Energy =                       -349.2452109739733714
  Basis Set: 6-31G*
  Basis Set:
  Basis Set: 6-31G*
  Basis Set:
  @DF-RHF Final Energy:  -349.24521361702671
    Total Energy =                       -349.2452136170263657
  Basis Set: 6-31G*
  Basis Set:
  Basis Set: 6-31G*
  Basis Set:
  @DF-RHF Final Energy:  -349.24521466007280
    Total Energy =                       -349.2452146600727474
  Basis Set: 6-31G*
  Basis Set:
  Charge       = 0
  Multiplicity = 1
  Basis Set: 6-31G*
  Basis Set:

    Orbital Energies (a.u.)
    -----------------------

    Doubly Occupied:

       1A    -20.553683     2A    -11.267837     3A    -11.217691
       4A    -11.212917     5A    -11.212436     6A    -11.211879
       7A    -11.211044     8A    -11.207013     9A     -1.360290
      10A     -1.088685    11A     -1.046054    12A     -0.983613
      13A     -0.917080    14A     -0.853107    15A     -0.810185
      16A     -0.760185    17A     -0.680190    18A     -0.653073
      19A     -0.622213    20A     -0.619515    21A     -0.610488
      22A     -0.574357    23A     -0.554180    24A     -0.544790
      25A     -0.521324    26A     -0.510570    27A     -0.493615
      28A     -0.476669    29A     -0.469243    30A     -0.460331
      31A     -0.449957    32A     -0.444414    33A     -0.420535

  @DF-RHF Final Energy:  -349.24521466955224

   => Energetics <=

    Nuclear Repulsion Energy =            392.9781423265156377
    One-Electron Energy =               -1252.4083913604272311
    Two-Electron Energy =                 510.1850343643594670
    DFT Exchange-Correlation Energy =       0.0000000000000000
    Empirical Dispersion Energy =           0.0000000000000000
    PCM Polarization Energy =               0.0000000000000000
    EFP Energy =                            0.0000000000000000
    Total Energy =                       -349.2452146695521833
    Molecular point group: c1
  Basis Set: 6-31G*
  Basis Set:

  -Total Gradient:
     Atom            X                  Y                   Z
    ------   -----------------  -----------------  -----------------
       1       -0.000000450222     0.000000423067    -0.000000013693
       2       -0.000000061254     0.000001389231     0.000003121023
       3        0.000001071205    -0.000010362218     0.000001587059
       4        0.000010806661    -0.000007496372     0.000007764986
       5       -0.000002584118    -0.000000320903    -0.000001071451
       6        0.000001612614    -0.000000320152    -0.000001831342
       7        0.000011646692    -0.002267084343     0.001780758413
       8       -0.000005274925    -0.000001245541    -0.000004675051
       9        0.000000481577     0.000007196592     0.000004244757
      10       -0.000137986931     0.002462306475    -0.002092113269
      11       -0.000001201103     0.000012500913    -0.000002253427
      12       -0.000020561176     0.000015430309    -0.000003850026
      13        0.000535523911     0.003046574050    -0.001675372201
      14        0.000035039159    -0.000007364831    -0.000011272588
      15       -0.000002891238     0.000011180375    -0.000002170627
      16       -0.000010896770    -0.000003649975     0.000010849725
      17       -0.000426309257    -0.003277582128     0.001995065346
      18       -0.000003921388    -0.000004097000    -0.000006088863
      19       -0.000003222672     0.000010808083    -0.000001700301
      20        0.000004243519     0.000014500552     0.000004588062
      21        0.000010425311    -0.000006296128    -0.000001364114
      22       -0.000002308286     0.000000834331    -0.000000657023
      23        0.000001832327     0.000002734434    -0.000004213839
      24        0.000004986371    -0.000000058827     0.000000668444

  **** Optimization is complete! (in 8 steps) ****
    Final optimized geometry and variables:
    Molecular point group: c1

    Geometry (in Angstrom), charge = 0, multiplicity = 1:

    H           -2.960506401948     1.952011438375    -1.128299700842
    O           -3.024763190094     1.017904430475    -0.984515907037
    C           -2.752076177561     0.736483332067     0.364652171802
    C           -1.320932081615     1.073223372233     0.768244006665
    H           -2.934934527886    -0.324098220424     0.485841288823
    H           -3.453382281243     1.261692538778     1.010831018115
    C           -0.265242725009     0.291893342757    -0.016042664804
    H           -1.158027739134     2.143432602794     0.638764486842
    H           -1.210932183302     0.877150084477     1.833619164519
    C            1.162555857325     0.647038766242     0.407721949304
    H           -0.396827046567     0.483201481491    -1.077222192402
    H           -0.442436983230    -0.770584643476     0.126364753244
    C            2.276354450822    -0.003041366236    -0.428398672409
    H            1.292159005297     1.726298655271     0.361068067131
    H            1.292421396779     0.379200512715     1.454445436120
    C            2.160741385317    -1.517427676412    -0.651302773664
    H            3.225347982854     0.177956105888     0.072687533518
    H            2.327931255834     0.487498296838    -1.397467363211
    C            2.221943094295    -2.344657315631     0.633970127096
    H            2.977440573505    -1.823331704706    -1.300793813109
    H            1.247798358384    -1.750036538486    -1.191709092202
    H            3.136317056031    -2.141419160930     1.185104611380
    H            2.200374362426    -3.407203485918     0.412011415934
    H            1.386866100005    -2.132824023832     1.294123877499

  Mulliken Charges: (a.u.)
   Center  Symbol    Alpha    Beta     Spin     Total
       1     H     0.28337  0.28337  0.00000  0.43327
       2     O     4.36830  4.36830  0.00000 -0.73661
       3     C     2.99603  2.99603  0.00000  0.00794
       4     C     3.16891  3.16891  0.00000 -0.33782
       5     H     0.41648  0.41648  0.00000  0.16704
       6     H     0.42814  0.42814  0.00000  0.14372
       7     C     3.15482  3.15482  0.00000 -0.30965
       8     H     0.42812  0.42812  0.00000  0.14376
       9     H     0.42248  0.42248  0.00000  0.15504
      10     C     3.15518  3.15518  0.00000 -0.31036
      11     H     0.41285  0.41285  0.00000  0.17430
      12     H     0.42088  0.42088  0.00000  0.15825
      13     C     3.15188  3.15188  0.00000 -0.30377
      14     H     0.42278  0.42278  0.00000  0.15444
      15     H     0.42376  0.42376  0.00000  0.15248
      16     C     3.15636  3.15636  0.00000 -0.31273
      17     H     0.42343  0.42343  0.00000  0.15314
      18     H     0.42191  0.42191  0.00000  0.15619
      19     C     3.24109  3.24109  0.00000 -0.48219
      20     H     0.42114  0.42114  0.00000  0.15771
      21     H     0.41912  0.41912  0.00000  0.16176
      22     H     0.42257  0.42257  0.00000  0.15487
      23     H     0.41920  0.41920  0.00000  0.16161
      24     H     0.42120  0.42120  0.00000  0.15760

   Total alpha = 33.00000, Total beta = 33.00000, Total charge = -0.00000
