                              Psi4 1.0.54 Driver

  ==> Input File <==

--------------------------------------------------------------------------
set {
	reference rhf
	basis cc-pvtz
}

set_num_threads( 4 )
memory 2 gb

molecule MOL {
0 1

H	 2.614283	 2.028610	 0.296620
O	 3.358864	 1.662087	 -0.142800
C	 3.565468	 0.338079	 0.273842
C	 2.533667	 -0.637565	 -0.272227
H	 4.548038	 0.064914	 -0.086598
H	 3.593945	 0.282242	 1.360360
C	 1.336401	 -0.864536	 0.648039
H	 2.190418	 -0.273708	 -1.236045
H	 3.033565	 -1.586224	 -0.452633
C	 0.338815	 -1.874130	 0.082019
H	 0.833897	 0.081005	 0.822526
H	 1.688168	 -1.215504	 1.616733
C	 -0.844503	 -2.195834	 0.996633
H	 -0.033954	 -1.510780	 -0.872574
H	 0.867790	 -2.798540	 -0.132734
C	 -1.816301	 -1.039935	 1.227387
H	 -1.393651	 -3.027441	 0.563743
H	 -0.470993	 -2.548423	 1.955448
C	 -3.029922	 -1.437771	 2.063606
H	 -2.154132	 -0.659116	 0.265974
H	 -1.307386	 -0.216348	 1.719031
C	 -4.000373	 -0.285089	 2.299067
H	 -3.552717	 -2.253394	 1.571649
H	 -2.693767	 -1.826367	 3.021236
H	 -4.379802	 0.104997	 1.360396
H	 -4.850312	 -0.601833	 2.892687
H	 -3.517431	 0.532692	 2.823809

	symmetry c1
}
set optking {
	frozen_dihedral = ("
		8 4 3 2
	")
}

ee,wfn = optimize('scf', return_wfn=True)
oeprop( wfn, 'DIPOLE', 'QUADRUPOLE', 'MULLIKEN_CHARGES')
f=open( 'psi4out.xyz', 'w' )
f.write( "27  " )
f.write( str(ee) + "\n" )
f.write( MOL.save_string_xyz() )
f.close()
--------------------------------------------------------------------------

    Molecular point group: c1
  Charge       = 0
  Multiplicity = 1
  Basis Set: CC-PVTZ
  Basis Set:
  @DF-RHF Final Energy:  -388.42486522367886
    Total Energy =                       -388.4248652236796033
    Molecular point group: c1
  Basis Set: CC-PVTZ
  Basis Set:
  Basis Set: CC-PVTZ
  Basis Set:
  @DF-RHF Final Energy:  -388.42515547655285
    Total Energy =                       -388.4251554765530727
  Basis Set: CC-PVTZ
  Basis Set:
  Basis Set: CC-PVTZ
  Basis Set:
  @DF-RHF Final Energy:  -388.42524881818775
    Total Energy =                       -388.4252488181874696
  Basis Set: CC-PVTZ
  Basis Set:
  Basis Set: CC-PVTZ
  Basis Set:
  @DF-RHF Final Energy:  -388.42525140073997
    Total Energy =                       -388.4252514007399668
  Basis Set: CC-PVTZ
  Basis Set:
  Charge       = 0
  Multiplicity = 1
  Basis Set: CC-PVTZ
  Basis Set:

    Orbital Energies (a.u.)
    -----------------------

    Doubly Occupied:

       1A    -20.545394     2A    -11.264629     3A    -11.217059
       4A    -11.214608     5A    -11.214249     6A    -11.213421
       7A    -11.212823     8A    -11.212324     9A    -11.207737
      10A     -1.362589    11A     -1.096418    12A     -1.062712
      13A     -1.012123    14A     -0.948066    15A     -0.887508
      16A     -0.822076    17A     -0.803700    18A     -0.779018
      19A     -0.692525    20A     -0.655343    21A     -0.642295
      22A     -0.611928    23A     -0.601798    24A     -0.584045
      25A     -0.578697    26A     -0.553780    27A     -0.539749
      28A     -0.533943    29A     -0.507004    30A     -0.499764
      31A     -0.485451    32A     -0.474100    33A     -0.466415
      34A     -0.461075    35A     -0.453785    36A     -0.441819
      37A     -0.425592

  @DF-RHF Final Energy:  -388.42525185186844

   => Energetics <=

    Nuclear Repulsion Energy =            458.3230065822295956
    One-Electron Energy =               -1434.9253978093786372
    Two-Electron Energy =                 588.1771393752806034
    DFT Exchange-Correlation Energy =       0.0000000000000000
    Empirical Dispersion Energy =           0.0000000000000000
    PCM Polarization Energy =               0.0000000000000000
    EFP Energy =                            0.0000000000000000
    Total Energy =                       -388.4252518518684383
    Molecular point group: c1
  Basis Set: CC-PVTZ
  Basis Set:

  -Total Gradient:
     Atom            X                  Y                   Z
    ------   -----------------  -----------------  -----------------
       1        0.000121418666    -0.000024111783    -0.000056268490
       2        0.002055406539    -0.000450701851    -0.002860816454
       3       -0.003704193227     0.001187180495     0.004420600050
       4        0.005101876285    -0.002954742152    -0.003572063747
       5       -0.000026632229    -0.000002934936     0.000036524632
       6        0.000015687890     0.000006777638    -0.000037701712
       7       -0.000016348694    -0.000020564504    -0.000016837595
       8       -0.003480918596     0.002234273327     0.002058218099
       9       -0.000049316676     0.000017823514     0.000013993935
      10       -0.000023588420     0.000021349969     0.000028170168
      11        0.000007210192    -0.000017740566    -0.000013242385
      12        0.000003706270     0.000017375235    -0.000007306273
      13        0.000015553130    -0.000019329722     0.000012745374
      14        0.000003323637     0.000003802304     0.000013823895
      15       -0.000004785743     0.000001548941    -0.000006359789
      16       -0.000013291783     0.000008018817    -0.000011993572
      17        0.000009639355    -0.000002753536     0.000002525460
      18        0.000001645445    -0.000001231543     0.000000376048
      19       -0.000003454523    -0.000007510832     0.000000147478
      20       -0.000007577829     0.000007265588    -0.000002880707
      21       -0.000016546382    -0.000012419109    -0.000000403561
      22        0.000007632148     0.000009973764    -0.000003492191
      23        0.000003554522     0.000003547797     0.000000297805
      24        0.000003019931    -0.000004381322    -0.000001913995
      25       -0.000001271067    -0.000000004191     0.000003025829
      26        0.000002299428    -0.000001293966     0.000000195999
      27       -0.000004048279     0.000000782627     0.000000635698

  **** Optimization is complete! (in 5 steps) ****
    Final optimized geometry and variables:
    Molecular point group: c1

    Geometry (in Angstrom), charge = 0, multiplicity = 1:

    H            2.282143238872     2.636479610411    -0.569590788956
    O            3.077942682362     2.318885355187    -0.955233427139
    C            3.354975026499     1.018670506627    -0.502608174086
    C            2.375507829375    -0.025496260761    -1.036706924246
    H            4.351945164706     0.803298844941    -0.861752656986
    H            3.392419011183     0.989156560961     0.583654089979
    C            1.154547360786    -0.234076143940    -0.139111974773
    H            2.033469466970     0.313236154737    -2.008883417375
    H            2.888203746721    -0.972196229683    -1.172659256667
    C            0.146740530773    -1.221019290958    -0.724818447594
    H            0.671143187147     0.723630996310     0.034869361899
    H            1.481745660067    -0.591406330798     0.834649369311
    C           -1.042900738622    -1.546203238403     0.180261996310
    H           -0.218739031265    -0.838264223392    -1.674712271517
    H            0.666624783355    -2.147292215544    -0.953988017602
    C           -1.996762717388    -0.380998996062     0.437281528900
    H           -1.604222986137    -2.358713914322    -0.272671524233
    H           -0.676355770904    -1.926777115799     1.130898605630
    C           -3.218264239632    -0.779237333817     1.261617056669
    H           -2.326770778075     0.028210048092    -0.515217733457
    H           -1.475524644419     0.421880904022     0.949833756453
    C           -4.169467382459     0.383279466172     1.525245264225
    H           -3.753915671089    -1.573136324541     0.748509152149
    H           -2.890137493760    -1.197556525882     2.209367064288
    H           -4.541290576956     0.803130946462     0.596429082590
    H           -5.025285466061     0.066101149213     2.110021836320
    H           -3.673518637963     1.179310108147     2.070846553157

  Mulliken Charges: (a.u.)
   Center  Symbol    Alpha    Beta     Spin     Total
       1     H     0.39410  0.39410  0.00000  0.21179
       2     O     4.20362  4.20362  0.00000 -0.40723
       3     C     2.97425  2.97425  0.00000  0.05151
       4     C     3.10015  3.10015  0.00000 -0.20029
       5     H     0.44985  0.44985  0.00000  0.10029
       6     H     0.47126  0.47126  0.00000  0.05748
       7     C     3.09376  3.09376  0.00000 -0.18751
       8     H     0.44857  0.44857  0.00000  0.10286
       9     H     0.45253  0.45253  0.00000  0.09493
      10     C     3.09951  3.09951  0.00000 -0.19902
      11     H     0.46118  0.46118  0.00000  0.07763
      12     H     0.45376  0.45376  0.00000  0.09248
      13     C     3.09779  3.09779  0.00000 -0.19558
      14     H     0.45184  0.45184  0.00000  0.09631
      15     H     0.44767  0.44767  0.00000  0.10465
      16     C     3.08811  3.08811  0.00000 -0.17621
      17     H     0.44795  0.44795  0.00000  0.10410
      18     H     0.45355  0.45355  0.00000  0.09290
      19     C     3.08403  3.08403  0.00000 -0.16806
      20     H     0.45465  0.45465  0.00000  0.09070
      21     H     0.45499  0.45499  0.00000  0.09003
      22     C     3.14972  3.14972  0.00000 -0.29944
      23     H     0.45367  0.45367  0.00000  0.09266
      24     H     0.45450  0.45450  0.00000  0.09099
      25     H     0.45503  0.45503  0.00000  0.08993
      26     H     0.44815  0.44815  0.00000  0.10369
      27     H     0.45580  0.45580  0.00000  0.08840

   Total alpha = 37.00000, Total beta = 37.00000, Total charge =  0.00000

*** Psi4 exiting successfully. Buy a developer a beer!
