  ==> Input File <==

--------------------------------------------------------------------------
set {
	reference rhf
	basis 6-31G*
}

set_num_threads( 4 )
memory 2 gb

molecule MOL {
0 1

O	 -2.439739	 -0.935931	 -0.423848
C	 -1.921153	 0.064240	 -0.045697
C	 -2.624470	 1.379923	 0.150949
O	 -0.632575	 0.154573	 0.251549
H	 -2.168117	 2.136577	 -0.476876
H	 -3.669540	 1.273223	 -0.098610
H	 -2.519365	 1.700893	 1.180846
C	 0.160891	 -1.019931	 0.106212
C	 1.589627	 -0.672828	 0.480843
H	 0.089836	 -1.367806	 -0.916050
H	 -0.238459	 -1.792301	 0.749618
C	 2.643941	 -1.496290	 -0.261271
H	 1.693211	 -0.827976	 1.552819
H	 1.752335	 0.386590	 0.300795
C	 4.069040	 -1.139765	 0.159424
H	 2.466698	 -2.554157	 -0.077960
H	 2.531369	 -1.344313	 -1.329722
H	 4.797412	 -1.735924	 -0.381041
H	 4.221655	 -1.313572	 1.220922
H	 4.285962	 -0.093870	 -0.038379

	symmetry c1
}
set optking {
	frozen_dihedral = ("
		12 9 8 10
	")
}

ee = optimize('scf')
oeprop('DIPOLE', 'QUADRUPOLE', 'MULLIKEN_CHARGES')
f=open( 'psi4out.xyz', 'w' )
f.write( "20  " )
f.write( str(ee) + "\n" )
f.write( MOL.save_string_xyz() )
f.close()
--------------------------------------------------------------------------

    Molecular point group: c1
  Charge       = 0
  Multiplicity = 1
  Basis Set: 6-31G*
  Basis Set:
  @DF-RHF Final Energy:  -383.94225806616504
    Total Energy =                       -383.9422580661649818
    Molecular point group: c1
  Basis Set: 6-31G*
  Basis Set:
  Basis Set: 6-31G*
  Basis Set:
  @DF-RHF Final Energy:  -383.94270402409256
    Total Energy =                       -383.9427040240926203
  Basis Set: 6-31G*
  Basis Set:
  Basis Set: 6-31G*
  Basis Set:
  @DF-RHF Final Energy:  -383.94259776154416
    Total Energy =                       -383.9425977615440502
  Basis Set: 6-31G*
  Basis Set:
  Basis Set: 6-31G*
  Basis Set:
  @DF-RHF Final Energy:  -383.94281786590216
    Total Energy =                       -383.9428178659021000
  Basis Set: 6-31G*
  Basis Set:
  Basis Set: 6-31G*
  Basis Set:
  @DF-RHF Final Energy:  -383.94281947183686
    Total Energy =                       -383.9428194718366854
  Basis Set: 6-31G*
  Basis Set:
  Basis Set: 6-31G*
  Basis Set:
  @DF-RHF Final Energy:  -383.94282560666954
    Total Energy =                       -383.9428256066694303
  Basis Set: 6-31G*
  Basis Set:
  Charge       = 0
  Multiplicity = 1
  Basis Set: 6-31G*
  Basis Set:

    Orbital Energies (a.u.)
    -----------------------

    Doubly Occupied:

       1A    -20.601927     2A    -20.543931     3A    -11.374217
       4A    -11.281497     5A    -11.233091     6A    -11.226117
       7A    -11.224102     8A    -11.215620     9A     -1.468050
      10A     -1.362186    11A     -1.086951    12A     -1.029662
      13A     -0.980177    14A     -0.881613    15A     -0.808409
      16A     -0.778152    17A     -0.690391    18A     -0.684753
      19A     -0.668734    20A     -0.636989    21A     -0.595781
      22A     -0.593731    23A     -0.570510    24A     -0.558980
      25A     -0.545198    26A     -0.520153    27A     -0.508733
      28A     -0.483778    29A     -0.481951    30A     -0.474741
      31A     -0.450263    32A     -0.437180

  @DF-RHF Final Energy:  -383.94282611770109

   => Energetics <=

    Nuclear Repulsion Energy =            378.8962095182239409
    One-Electron Energy =               -1273.6829400308608911
    Two-Electron Energy =                 510.8439043949359757
    DFT Exchange-Correlation Energy =       0.0000000000000000
    Empirical Dispersion Energy =           0.0000000000000000
    PCM Polarization Energy =               0.0000000000000000
    EFP Energy =                            0.0000000000000000
    Total Energy =                       -383.9428261177009745
    Molecular point group: c1
  Basis Set: 6-31G*
  Basis Set:

  -Total Gradient:
     Atom            X                  Y                   Z
    ------   -----------------  -----------------  -----------------
       1        0.000004593824    -0.000008703532     0.000000365720
       2        0.000025145141     0.000006811639     0.000023414469
       3       -0.000004673547     0.000002601425     0.000003196222
       4       -0.000035089953     0.000027400750    -0.000014653954
       5       -0.000001112369     0.000002506073    -0.000001925025
       6        0.000000789279    -0.000000643901    -0.000000772676
       7        0.000001534182     0.000000645215    -0.000002303325
       8       -0.000726815664     0.006131675113    -0.002762626804
       9       -0.000015759752    -0.004095661286     0.003632025897
      10        0.000642868878    -0.004213561805     0.001456587385
      11       -0.000006688362     0.000005861267     0.000003147593
      12        0.000123767778     0.002168915854    -0.002361928775
      13       -0.000014699353    -0.000022602939    -0.000003787105
      14        0.000004591073     0.000003522247     0.000019804532
      15        0.000001784889     0.000010896214    -0.000008631506
      16        0.000013305953    -0.000002053551     0.000018864451
      17       -0.000011544579    -0.000018059184     0.000000362290
      18       -0.000001088706     0.000002015815    -0.000001819261
      19       -0.000000711990    -0.000003141639    -0.000001729185
      20       -0.000000196716     0.000001576223     0.000002409055

  **** Optimization is complete! (in 7 steps) ****
    Final optimized geometry and variables:
    Molecular point group: c1

    Geometry (in Angstrom), charge = 0, multiplicity = 1:

    O           -2.533745730248    -0.500942303208    -0.450650701935
    C           -2.022867302471     0.511112876550    -0.094118654803
    C           -2.743460306877     1.816148048865     0.111108748539
    O           -0.729527398296     0.625618788962     0.172893391898
    H           -2.315018925636     2.575875662634    -0.532399329539
    H           -3.792191053826     1.690022429307    -0.112742469044
    H           -2.619082709630     2.145821852175     1.136112836153
    C            0.077034266798    -0.535984071724     0.025030260227
    C            1.505359189346    -0.184839871495     0.424278604063
    H            0.022738551241    -0.896114344055    -0.994255402021
    H           -0.326134740026    -1.321919205912     0.650099379304
    C            2.543944942549    -1.037999755485    -0.307568634535
    H            1.623083412508    -0.280408941683     1.499790797479
    H            1.677437351803     0.860333580617     0.184705053215
    C            3.974987845094    -0.724103604821     0.125409380721
    H            2.341118043984    -2.093914511282    -0.138179691215
    H            2.444324598411    -0.875603466963    -1.377906025305
    H            4.690787745991    -1.331414269766    -0.419165648448
    H            4.115473188504    -0.916638608422     1.185030444209
    H            4.218719785019     0.318746414909    -0.056082651269

  Mulliken Charges: (a.u.)
   Center  Symbol    Alpha    Beta     Spin     Total
       1     O     4.28323  4.28323  0.00000 -0.56646
       2     C     2.62006  2.62006  0.00000  0.75988
       3     C     3.28156  3.28156  0.00000 -0.56312
       4     O     4.30952  4.30952  0.00000 -0.61903
       5     H     0.40060  0.40060  0.00000  0.19880
       6     H     0.39698  0.39698  0.00000  0.20604
       7     H     0.40051  0.40051  0.00000  0.19898
       8     C     2.99829  2.99829  0.00000  0.00342
       9     C     3.16627  3.16627  0.00000 -0.33253
      10     H     0.41047  0.41047  0.00000  0.17906
      11     H     0.40991  0.40991  0.00000  0.18018
      12     C     3.16067  3.16067  0.00000 -0.32135
      13     H     0.41545  0.41545  0.00000  0.16910
      14     H     0.41038  0.41038  0.00000  0.17924
      15     C     3.23987  3.23987  0.00000 -0.47975
      16     H     0.42038  0.42038  0.00000  0.15923
      17     H     0.41879  0.41879  0.00000  0.16242
      18     H     0.41699  0.41699  0.00000  0.16602
      19     H     0.42008  0.42008  0.00000  0.15983
      20     H     0.41998  0.41998  0.00000  0.16005

   Total alpha = 32.00000, Total beta = 32.00000, Total charge = -0.00000
