  ==> Input File <==

--------------------------------------------------------------------------
set {
	reference rhf
	basis 6-31G*
}

set_num_threads( 4 )
memory 2 gb

molecule MOL {
0 1

O	 1.353883	 0.861577	 0.899000
C	 0.861134	 0.272526	 -0.014869
C	 -0.623889	 -0.118271	 -0.003699
C	 1.713798	 -0.106208	 -1.213005
C	 -0.895332	 -1.256461	 -1.002431
C	 -1.473649	 1.103340	 -0.370799
C	 -0.983900	 -0.581483	 1.422328
H	 -0.615301	 -0.972064	 -2.012700
H	 -1.954261	 -1.493213	 -1.010207
H	 -0.360539	 -2.164946	 -0.747760
H	 -1.227476	 1.468527	 -1.361691
H	 -2.526716	 0.838935	 -0.358521
H	 -1.314819	 1.915855	 0.325860
H	 -2.039679	 -0.828001	 1.472951
H	 -0.427637	 -1.464071	 1.720694
H	 -0.789023	 0.202493	 2.147048
H	 1.531186	 0.594211	 -2.022651
H	 2.755686	 -0.041792	 -0.931159
H	 1.495299	 -1.099385	 -1.585937

	symmetry c1
}
set optking {
	frozen_dihedral = ("
		1 2 3 5
	")
}

ee = optimize('scf')
oeprop('DIPOLE', 'QUADRUPOLE', 'MULLIKEN_CHARGES')
f=open( 'psi4out.xyz', 'w' )
f.write( "19  " )
f.write( str(ee) + "\n" )
f.write( MOL.save_string_xyz() )
f.close()
--------------------------------------------------------------------------

    Molecular point group: c1
  Charge       = 0
  Multiplicity = 1
  Basis Set: 6-31G*
  Basis Set:
  @DF-RHF Final Energy:  -309.05943425795709
    Total Energy =                       -309.0594342579572640
    Molecular point group: c1
  Basis Set: 6-31G*
  Basis Set:
  Basis Set: 6-31G*
  Basis Set:
  @DF-RHF Final Energy:  -309.06012259431623
    Total Energy =                       -309.0601225943162262
  Basis Set: 6-31G*
  Basis Set:
  Basis Set: 6-31G*
  Basis Set:
  @DF-RHF Final Energy:  -309.06113695241345
    Total Energy =                       -309.0611369524133352
  Basis Set: 6-31G*
  Basis Set:
  Basis Set: 6-31G*
  Basis Set:
  @DF-RHF Final Energy:  -309.06166039866611
    Total Energy =                       -309.0616603986661062
  Basis Set: 6-31G*
  Basis Set:
  Basis Set: 6-31G*
  Basis Set:
  @DF-RHF Final Energy:  -309.06230175607919
    Total Energy =                       -309.0623017560791368
  Basis Set: 6-31G*
  Basis Set:
  Basis Set: 6-31G*
  Basis Set:
  @DF-RHF Final Energy:  -309.06240559184147
    Total Energy =                       -309.0624055918415820
  Basis Set: 6-31G*
  Basis Set:
  Basis Set: 6-31G*
  Basis Set:
  @DF-RHF Final Energy:  -309.06242457467630
    Total Energy =                       -309.0624245746765837
  Basis Set: 6-31G*
  Basis Set:
  Charge       = 0
  Multiplicity = 1
  Basis Set: 6-31G*
  Basis Set:

    Orbital Energies (a.u.)
    -----------------------

    Doubly Occupied:

       1A    -20.547631     2A    -11.323284     3A    -11.246366
       4A    -11.227423     5A    -11.222692     6A    -11.221924
       7A    -11.211200     8A     -1.394500     9A     -1.108610
      10A     -1.003139    11A     -0.944147    12A     -0.936905
      13A     -0.833989    14A     -0.703820    15A     -0.664681
      16A     -0.631419    17A     -0.621695    18A     -0.590630
      19A     -0.587763    20A     -0.569664    21A     -0.549219
      22A     -0.545946    23A     -0.524507    24A     -0.512725
      25A     -0.500145    26A     -0.472021    27A     -0.461798
      28A     -0.391840

  @DF-RHF Final Energy:  -309.06242532490370

   => Energetics <=

    Nuclear Repulsion Energy =            326.2667557042697695
    One-Electron Energy =               -1065.5589945116394119
    Two-Electron Energy =                 430.2298134824658291
    DFT Exchange-Correlation Energy =       0.0000000000000000
    Empirical Dispersion Energy =           0.0000000000000000
    PCM Polarization Energy =               0.0000000000000000
    EFP Energy =                            0.0000000000000000
    Total Energy =                       -309.0624253249037565
    Molecular point group: c1
  Basis Set: 6-31G*
  Basis Set:

  -Total Gradient:
     Atom            X                  Y                   Z
    ------   -----------------  -----------------  -----------------
       1       -0.000329623758     0.001141518075    -0.000608476292
       2        0.000462376182    -0.001379645822     0.000485201059
       3        0.000072675998    -0.000594448356     0.000747741008
       4       -0.000013731648     0.000089633196    -0.000009816835
       5       -0.000193094541     0.000739497531    -0.000738920828
       6       -0.000003397041     0.000039799220    -0.000033995081
       7        0.000015861865     0.000043829198     0.000034033735
       8       -0.000054646846    -0.000048424825     0.000032732038
       9       -0.000013762035     0.000013944968     0.000010004637
      10        0.000037120302     0.000001279875     0.000023362587
      11        0.000037444046     0.000030413123     0.000005850497
      12        0.000042318541    -0.000020314305    -0.000039426642
      13       -0.000064874741    -0.000004366651     0.000052897120
      14        0.000000423843    -0.000018980620    -0.000003582107
      15        0.000012539057     0.000006407525    -0.000000614123
      16       -0.000017968246    -0.000000971195     0.000008618445
      17        0.000021060621     0.000009587417    -0.000001879282
      18        0.000003165570    -0.000009833122     0.000006830881
      19       -0.000013887166    -0.000038925232     0.000029439179

  **** Optimization is complete! (in 8 steps) ****
    Final optimized geometry and variables:
    Molecular point group: c1

    Geometry (in Angstrom), charge = 0, multiplicity = 1:

    O            1.352260181279     0.778966419531     0.979386126398
    C            0.879208031332     0.214246148044     0.039595028172
    C           -0.611987162118    -0.166109043166     0.037436824352
    C            1.729953262823    -0.064772680191    -1.183775564848
    C           -0.945929582682    -1.276339138893    -0.969915454665
    C           -1.382963867307     1.115044109092    -0.340744516983
    C           -1.015825880598    -0.610676689666     1.449826836030
    H           -0.731126110351    -0.986234466668    -1.992459192232
    H           -2.003987261681    -1.510623784791    -0.915213728968
    H           -0.399527770153    -2.190616441120    -0.757024605128
    H           -1.104277157799     1.475464605916    -1.327293253777
    H           -2.450250268247     0.917214988173    -0.352583140951
    H           -1.189528725582     1.905419388152     0.374977944492
    H           -2.080191271278    -0.822904908715     1.483371633074
    H           -0.486525642012    -1.512466967665     1.742818438237
    H           -0.792662339408     0.157321058418     2.177349632396
    H            1.282473216800     0.359372202609    -2.076936526818
    H            2.708699068598     0.367566577184    -1.030903199778
    H            1.830543695871    -1.132462653780    -1.348900782733

  Mulliken Charges: (a.u.)
   Center  Symbol    Alpha    Beta     Spin     Total
       1     O     4.26671  4.26671  0.00000 -0.53342
       2     C     2.72636  2.72636  0.00000  0.54728
       3     C     3.06335  3.06335  0.00000 -0.12671
       4     C     3.29003  3.29003  0.00000 -0.58006
       5     C     3.24080  3.24080  0.00000 -0.48161
       6     C     3.23968  3.23968  0.00000 -0.47937
       7     C     3.23229  3.23229  0.00000 -0.46459
       8     H     0.41784  0.41784  0.00000  0.16431
       9     H     0.41403  0.41403  0.00000  0.17194
      10     H     0.41747  0.41747  0.00000  0.16505
      11     H     0.41987  0.41987  0.00000  0.16025
      12     H     0.41472  0.41472  0.00000  0.17057
      13     H     0.40497  0.40497  0.00000  0.19006
      14     H     0.42132  0.42132  0.00000  0.15736
      15     H     0.41922  0.41922  0.00000  0.16155
      16     H     0.40114  0.40114  0.00000  0.19773
      17     H     0.40858  0.40858  0.00000  0.18283
      18     H     0.39553  0.39553  0.00000  0.20893
      19     H     0.40606  0.40606  0.00000  0.18787

   Total alpha = 28.00000, Total beta = 28.00000, Total charge =  0.00000
