  ==> Input File <==

--------------------------------------------------------------------------
set {
	reference rhf
	basis 6-31G*
}

set_num_threads( 4 )
memory 2 gb

molecule MOL {
0 1

H	 -1.070890	 -1.366565	 0.180696
O	 -1.422729	 -0.573567	 -0.196946
C	 -0.731407	 0.539437	 0.309156
C	 0.680193	 0.672443	 -0.251532
H	 -1.319765	 1.404033	 0.030086
H	 -0.700012	 0.506517	 1.397677
C	 1.062053	 2.107132	 -0.616983
H	 1.381369	 0.282752	 0.480683
H	 0.757215	 0.040695	 -1.133860
H	 1.066123	 2.751388	 0.257152
H	 2.056350	 2.147753	 -1.049060
H	 0.370504	 2.527374	 -1.343220

	symmetry c1
}
set optking {
	frozen_dihedral = ("
		8 4 3 2
	")
}

ee = optimize('scf')
oeprop('DIPOLE', 'QUADRUPOLE', 'MULLIKEN_CHARGES')
f=open( 'psi4out.xyz', 'w' )
f.write( "12  " )
f.write( str(ee) + "\n" )
f.write( MOL.save_string_xyz() )
f.close()
--------------------------------------------------------------------------

    Molecular point group: c1
  Charge       = 0
  Multiplicity = 1
  Basis Set: 6-31G*
  Basis Set:
  @DF-RHF Final Energy:  -193.10509996742306
    Total Energy =                       -193.1050999674230297
    Molecular point group: c1
  Basis Set: 6-31G*
  Basis Set:
  Basis Set: 6-31G*
  Basis Set:
  @DF-RHF Final Energy:  -193.10560786228032
    Total Energy =                       -193.1056078622802374
  Basis Set: 6-31G*
  Basis Set:
  Basis Set: 6-31G*
  Basis Set:
  @DF-RHF Final Energy:  -193.10568703808750
    Total Energy =                       -193.1056870380874386
  Basis Set: 6-31G*
  Basis Set:
  Basis Set: 6-31G*
  Basis Set:
  @DF-RHF Final Energy:  -193.10569028077262
    Total Energy =                       -193.1056902807725919
  Basis Set: 6-31G*
  Basis Set:
  Charge       = 0
  Multiplicity = 1
  Basis Set: 6-31G*
  Basis Set:

    Orbital Energies (a.u.)
    -----------------------

    Doubly Occupied:

       1A    -20.552601     2A    -11.267449     3A    -11.218508
       4A    -11.214920     5A     -1.358776     6A     -1.050581
       7A     -0.916756     8A     -0.819072     9A     -0.690267
      10A     -0.629739    11A     -0.607155    12A     -0.584671
      13A     -0.535415    14A     -0.508476    15A     -0.492674
      16A     -0.466424    17A     -0.428028

  @DF-RHF Final Energy:  -193.10569061220241

   => Energetics <=

    Nuclear Repulsion Energy =            130.8045039995714660
    One-Electron Energy =                -521.1373684612904071
    Two-Electron Energy =                 197.2271738495165891
    DFT Exchange-Correlation Energy =       0.0000000000000000
    Empirical Dispersion Energy =           0.0000000000000000
    PCM Polarization Energy =               0.0000000000000000
    EFP Energy =                            0.0000000000000000
    Total Energy =                       -193.1056906122023520
    Molecular point group: c1
  Basis Set: 6-31G*
  Basis Set:

  -Total Gradient:
     Atom            X                  Y                   Z
    ------   -----------------  -----------------  -----------------
       1        0.000006727756    -0.000000694431     0.000005715736
       2       -0.001297154612     0.002001538353    -0.002688753545
       3        0.001912544430    -0.001676266275     0.004120674405
       4       -0.001049003990    -0.004458616709    -0.003176726911
       5        0.000027832808    -0.000011142045    -0.000010540970
       6        0.000002506318    -0.000050784261     0.000008118899
       7        0.000019940332     0.000003278538    -0.000020470515
       8        0.000375415271     0.004182993679     0.001787879488
       9       -0.000008713072     0.000002603666    -0.000011586624
      10       -0.000005073265    -0.000021472146     0.000007354139
      11       -0.000000576581     0.000023220015     0.000013224835
      12        0.000015554603     0.000005341616    -0.000034888939

  **** Optimization is complete! (in 5 steps) ****
    Final optimized geometry and variables:
    Molecular point group: c1

    Geometry (in Angstrom), charge = 0, multiplicity = 1:

    H           -0.894305424100    -2.010237123089     0.327011595423
    O           -1.308348408543    -1.214070699101     0.023679966594
    C           -0.591154852292    -0.101596626803     0.494950550913
    C            0.821448275351     0.007334779618    -0.098806714128
    H           -1.181960091122     0.755013354249     0.195829483355
    H           -0.553549583306    -0.098645436424     1.582245795902
    C            1.203339153359     1.449948658630    -0.439785079400
    H            1.554865886374    -0.372605516260     0.608870895408
    H            0.866489580991    -0.605653988443    -0.992565055807
    H            1.137953700297     2.091091394406     0.435357171809
    H            2.220477651728     1.508191514228    -0.813263510937
    H            0.544449484982     1.859098212855    -1.199675829772

  Mulliken Charges: (a.u.)
   Center  Symbol    Alpha    Beta     Spin     Total
       1     H     0.28357  0.28357  0.00000  0.43287
       2     O     4.36982  4.36982  0.00000 -0.73963
       3     C     2.99316  2.99316  0.00000  0.01368
       4     C     3.17382  3.17382  0.00000 -0.34763
       5     H     0.41505  0.41505  0.00000  0.16989
       6     H     0.42934  0.42934  0.00000  0.14132
       7     C     3.24543  3.24543  0.00000 -0.49087
       8     H     0.42286  0.42286  0.00000  0.15428
       9     H     0.41082  0.41082  0.00000  0.17837
      10     H     0.42133  0.42133  0.00000  0.15734
      11     H     0.41759  0.41759  0.00000  0.16482
      12     H     0.41722  0.41722  0.00000  0.16556

   Total alpha = 17.00000, Total beta = 17.00000, Total charge = -0.00000
