                              Psi4 1.0.54 Driver

  ==> Input File <==

--------------------------------------------------------------------------
set {
	reference rhf
	basis cc-pvtz
}

set_num_threads( 4 )
memory 2 gb

molecule MOL {
0 1

H	 1.093097	 -0.623953	 0.107599
C	 0.848385	 0.440008	 0.000011
C	 -0.623497	 0.751021	 0.000090
O	 1.711827	 1.240500	 -0.104512
C	 -1.523725	 -0.474323	 -0.000013
H	 -0.813143	 1.382932	 -0.864897
H	 -0.813071	 1.382716	 0.865253
H	 -1.342980	 -1.087348	 -0.873016
H	 -2.565269	 -0.177464	 0.000070
H	 -1.342898	 -1.087564	 0.872820

	symmetry c1
}
set optking {
	frozen_dihedral = ("
		4 2 3 6
	")
}

ee,wfn = optimize('scf', return_wfn=True)
oeprop( wfn, 'DIPOLE', 'QUADRUPOLE', 'MULLIKEN_CHARGES')
f=open( 'psi4out.xyz', 'w' )
f.write( "10  " )
f.write( str(ee) + "\n" )
f.write( MOL.save_string_xyz() )
f.close()
--------------------------------------------------------------------------

    Molecular point group: c1
  Charge       = 0
  Multiplicity = 1
  Basis Set: CC-PVTZ
  Basis Set:
  @DF-RHF Final Energy:  -192.02177827285800
    Total Energy =                       -192.0217782728580005
    Molecular point group: c1
  Basis Set: CC-PVTZ
  Basis Set:
  Basis Set: CC-PVTZ
  Basis Set:
  @DF-RHF Final Energy:  -192.02197274997900
    Total Energy =                       -192.0219727499790565
  Basis Set: CC-PVTZ
  Basis Set:
  Basis Set: CC-PVTZ
  Basis Set:
  @DF-RHF Final Energy:  -192.02190020055517
    Total Energy =                       -192.0219002005551943
  Basis Set: CC-PVTZ
  Basis Set:
  Basis Set: CC-PVTZ
  Basis Set:
  @DF-RHF Final Energy:  -192.02203642168979
    Total Energy =                       -192.0220364216897053
  Basis Set: CC-PVTZ
  Basis Set:
  Charge       = 0
  Multiplicity = 1
  Basis Set: CC-PVTZ
  Basis Set:

    Orbital Energies (a.u.)
    -----------------------

    Doubly Occupied:

       1A    -20.552787     2A    -11.323891     3A    -11.238263
       4A    -11.230109     5A     -1.408818     6A     -1.067547
       7A     -0.902485     8A     -0.799006     9A     -0.662596
      10A     -0.643093    11A     -0.639334    12A     -0.554249
      13A     -0.547241    14A     -0.526494    15A     -0.492280
      16A     -0.415154

  @DF-RHF Final Energy:  -192.02203683964882

   => Energetics <=

    Nuclear Repulsion Energy =            117.1246376770078683
    One-Electron Energy =                -492.2866567723405069
    Two-Electron Energy =                 183.1399822556838330
    DFT Exchange-Correlation Energy =       0.0000000000000000
    Empirical Dispersion Energy =           0.0000000000000000
    PCM Polarization Energy =               0.0000000000000000
    EFP Energy =                            0.0000000000000000
    Total Energy =                       -192.0220368396488198
    Molecular point group: c1
  Basis Set: CC-PVTZ
  Basis Set:

  -Total Gradient:
     Atom            X                  Y                   Z
    ------   -----------------  -----------------  -----------------
       1       -0.000012633285    -0.000003272852    -0.000001751810
       2       -0.000029840299    -0.000108485883    -0.000678839941
       3        0.000105684653     0.000407955933     0.000482086341
       4       -0.000028845114     0.000023840110     0.000441976662
       5        0.000032658039     0.000018411570    -0.000007476400
       6       -0.000077292952    -0.000346871237    -0.000237081024
       7        0.000008346621    -0.000000124576     0.000002984696
       8       -0.000001401334    -0.000003542291    -0.000002761048
       9       -0.000000047130     0.000008236924    -0.000000136524
      10        0.000003370797     0.000003852301     0.000000999048

  **** Optimization is complete! (in 5 steps) ****
    Final optimized geometry and variables:
    Molecular point group: c1

    Geometry (in Angstrom), charge = 0, multiplicity = 1:

    H            1.006041002169    -1.120752252981     0.129123349007
    C            0.749808839897    -0.058818517917     0.019338938491
    C           -0.724387834628     0.275382542161     0.039615654455
    O            1.605358092481     0.747800125036    -0.095131668409
    C           -1.627806089058    -0.951171663786     0.038432573714
    H           -0.923508498573     0.910891335056    -0.815378751606
    H           -0.898046526681     0.882770459781     0.921944613221
    H           -1.471147521863    -1.555141392136    -0.848589098030
    H           -2.670092700495    -0.660670949888     0.059698222250
    H           -1.442118983914    -1.578380535569     0.903437968753

  Mulliken Charges: (a.u.)
   Center  Symbol    Alpha    Beta     Spin     Total
       1     H     0.46275  0.46275  0.00000  0.07450
       2     C     2.90661  2.90661  0.00000  0.18678
       3     C     3.08243  3.08243  0.00000 -0.16486
       4     O     4.16519  4.16519  0.00000 -0.33039
       5     C     3.15454  3.15454  0.00000 -0.30908
       6     H     0.43949  0.43949  0.00000  0.12102
       7     H     0.44106  0.44106  0.00000  0.11788
       8     H     0.45116  0.45116  0.00000  0.09768
       9     H     0.44425  0.44425  0.00000  0.11150
      10     H     0.45252  0.45252  0.00000  0.09497

   Total alpha = 16.00000, Total beta = 16.00000, Total charge =  0.00000

*** Psi4 exiting successfully. Buy a developer a beer!
