  ==> Input File <==

--------------------------------------------------------------------------
set {
	reference rhf
	basis 6-31G*
}

set_num_threads( 4 )
memory 2 gb

molecule MOL {
0 1

O	 -2.439739	 -0.935931	 -0.423848
C	 -1.921153	 0.064240	 -0.045697
C	 -2.624470	 1.379923	 0.150949
O	 -0.632575	 0.154573	 0.251549
H	 -2.168117	 2.136577	 -0.476876
H	 -3.669540	 1.273223	 -0.098610
H	 -2.519365	 1.700893	 1.180846
C	 0.160891	 -1.019931	 0.106212
C	 1.589627	 -0.672828	 0.480843
H	 0.089836	 -1.367806	 -0.916050
H	 -0.238459	 -1.792301	 0.749618
C	 2.246377	 0.346236	 -0.452210
H	 2.163194	 -1.597435	 0.473358
H	 1.604769	 -0.303424	 1.502885
C	 2.645651	 1.631475	 0.271489
H	 3.127581	 -0.100922	 -0.907874
H	 1.564787	 0.582057	 -1.262878
H	 3.107769	 2.337596	 -0.411060
H	 3.354938	 1.430284	 1.069431
H	 1.780409	 2.117231	 0.713615

	symmetry c1
}
set optking {
	frozen_dihedral = ("
		16 12 9 8
	")
}

ee = optimize('scf')
oeprop('DIPOLE', 'QUADRUPOLE', 'MULLIKEN_CHARGES')
f=open( 'psi4out.xyz', 'w' )
f.write( "20  " )
f.write( str(ee) + "\n" )
f.write( MOL.save_string_xyz() )
f.close()
--------------------------------------------------------------------------

    Molecular point group: c1
  Charge       = 0
  Multiplicity = 1
  Basis Set: 6-31G*
  Basis Set:
  @DF-RHF Final Energy:  -383.94032128591101
    Total Energy =                       -383.9403212859114092
    Molecular point group: c1
  Basis Set: 6-31G*
  Basis Set:
  Basis Set: 6-31G*
  Basis Set:
  @DF-RHF Final Energy:  -383.94047936399073
    Total Energy =                       -383.9404793639907894
  Basis Set: 6-31G*
  Basis Set:
  Basis Set: 6-31G*
  Basis Set:
  @DF-RHF Final Energy:  -383.94047256318413
    Total Energy =                       -383.9404725631839028
  Basis Set: 6-31G*
  Basis Set:
  Basis Set: 6-31G*
  Basis Set:
  @DF-RHF Final Energy:  -383.94066760800865
    Total Energy =                       -383.9406676080086527
  Basis Set: 6-31G*
  Basis Set:
  Basis Set: 6-31G*
  Basis Set:
  @DF-RHF Final Energy:  -383.94066656420495
    Total Energy =                       -383.9406665642048893
  Basis Set: 6-31G*
  Basis Set:
  Charge       = 0
  Multiplicity = 1
  Basis Set: 6-31G*
  Basis Set:

    Orbital Energies (a.u.)
    -----------------------

    Doubly Occupied:

       1A    -20.602235     2A    -20.544432     3A    -11.374853
       4A    -11.282521     5A    -11.233704     6A    -11.225223
       7A    -11.220985     8A    -11.211080     9A     -1.468225
      10A     -1.362545    11A     -1.083617    12A     -1.027114
      13A     -0.981064    14A     -0.880810    15A     -0.809019
      16A     -0.776782    17A     -0.690643    18A     -0.684238
      19A     -0.666817    20A     -0.620147    21A     -0.604978
      22A     -0.594891    23A     -0.574869    24A     -0.553367
      25A     -0.537531    26A     -0.532699    27A     -0.512267
      28A     -0.480121    29A     -0.475210    30A     -0.468358
      31A     -0.449771    32A     -0.438530

  @DF-RHF Final Energy:  -383.94066976215322

   => Energetics <=

    Nuclear Repulsion Energy =            390.0122259551183106
    One-Electron Energy =               -1295.9684958807833937
    Two-Electron Energy =                 522.0156001635118628
    DFT Exchange-Correlation Energy =       0.0000000000000000
    Empirical Dispersion Energy =           0.0000000000000000
    PCM Polarization Energy =               0.0000000000000000
    EFP Energy =                            0.0000000000000000
    Total Energy =                       -383.9406697621532203
    Molecular point group: c1
  Basis Set: 6-31G*
  Basis Set:

  -Total Gradient:
     Atom            X                  Y                   Z
    ------   -----------------  -----------------  -----------------
       1       -0.000005816982     0.000007100487    -0.000000903482
       2       -0.000016258349    -0.000002493256     0.000011662963
       3        0.000002884047    -0.000005842498     0.000006520046
       4        0.000000095490    -0.000013956744     0.000012565296
       5       -0.000000033544     0.000012279707    -0.000007463580
       6        0.000000591790    -0.000001700530    -0.000001378561
       7        0.000005623417    -0.000009597093    -0.000010784715
       8        0.000145483453    -0.000282009750    -0.000324775998
       9       -0.000262661440     0.000381615117     0.000272650773
      10       -0.000001602272    -0.000011057770     0.000005686417
      11        0.000004341155     0.000006897189     0.000013751195
      12        0.000497651633     0.000120153679     0.000458143054
      13        0.000002945146     0.000010270084     0.000007350393
      14        0.000008348466    -0.000001175619     0.000000004069
      15       -0.000006851576     0.000008699957     0.000024084547
      16       -0.000364091239    -0.000194115149    -0.000446962514
      17       -0.000015828801    -0.000006352364    -0.000014774275
      18       -0.000001452502    -0.000015957709    -0.000010728020
      19        0.000005982093     0.000004204239     0.000006769146
      20        0.000000650020    -0.000006961975    -0.000001416753

  **** Optimization is complete! (in 6 steps) ****
    Final optimized geometry and variables:
    Molecular point group: c1

    Geometry (in Angstrom), charge = 0, multiplicity = 1:

    O           -2.305475415262    -1.055560417037    -0.469785348667
    C           -1.777744537513    -0.059545335632    -0.093395165211
    C           -2.468518832010     1.263427480873     0.099099907537
    O           -0.490088837197     0.017059211189     0.212177884535
    H           -2.001381892171     2.015000952865    -0.526885464582
    H           -3.513371726776     1.167120671706    -0.155563832167
    H           -2.365198697968     1.583721797451     1.129409371172
    C            0.293110604542    -1.165605021281     0.073400362120
    C            1.723701245685    -0.818463378675     0.439080955260
    H            0.216196462884    -1.520387122449    -0.945786352043
    H           -0.108667976635    -1.929809059175     0.725237829125
    C            2.371356311775     0.230301354161    -0.492806863739
    H            2.292241105569    -1.744179283090     0.421378598475
    H            1.739692850995    -0.469977620018     1.467451456746
    C            2.762987072385     1.520359612919     0.227027405144
    H            3.249240237590    -0.195928929251    -0.969046083586
    H            1.684190007101     0.474153011367    -1.297497582200
    H            3.207326513107     2.233440549942    -0.460621732518
    H            3.485333955444     1.326168824837     1.014984477618
    H            1.893982758791     1.987167822399     0.679994552792

  Mulliken Charges: (a.u.)
   Center  Symbol    Alpha    Beta     Spin     Total
       1     O     4.28307  4.28307  0.00000 -0.56614
       2     C     2.61943  2.61943  0.00000  0.76115
       3     C     3.28175  3.28175  0.00000 -0.56351
       4     O     4.30837  4.30837  0.00000 -0.61674
       5     H     0.40073  0.40073  0.00000  0.19855
       6     H     0.39679  0.39679  0.00000  0.20642
       7     H     0.40055  0.40055  0.00000  0.19891
       8     C     3.00545  3.00545  0.00000 -0.01090
       9     C     3.16804  3.16804  0.00000 -0.33609
      10     H     0.41011  0.41011  0.00000  0.17978
      11     H     0.40921  0.40921  0.00000  0.18158
      12     C     3.15527  3.15527  0.00000 -0.31053
      13     H     0.41511  0.41511  0.00000  0.16977
      14     H     0.41176  0.41176  0.00000  0.17649
      15     C     3.24093  3.24093  0.00000 -0.48186
      16     H     0.41928  0.41928  0.00000  0.16143
      17     H     0.41568  0.41568  0.00000  0.16864
      18     H     0.42025  0.42025  0.00000  0.15950
      19     H     0.42209  0.42209  0.00000  0.15582
      20     H     0.41614  0.41614  0.00000  0.16772

   Total alpha = 32.00000, Total beta = 32.00000, Total charge = -0.00000
