                              Psi4 1.0.54 Driver

  ==> Input File <==

--------------------------------------------------------------------------
set {
	reference rhf
	basis cc-pvtz
}

set_num_threads( 4 )
memory 2 gb

molecule MOL {
0 1

H	 -2.334982	 -2.732363	 -0.064303
C	 -2.771126	 -1.806082	 -0.462633
C	 -2.634820	 -0.605089	 0.433428
O	 -3.305606	 -1.809707	 -1.516970
C	 -1.193618	 -0.371024	 0.895843
H	 -3.032941	 0.257906	 -0.084329
H	 -3.262583	 -0.793010	 1.301705
C	 -0.247837	 0.040196	 -0.230469
H	 -1.199530	 0.398243	 1.660390
H	 -0.819297	 -1.271442	 1.376805
C	 1.181757	 0.280428	 0.247371
H	 -0.628281	 0.942781	 -0.701329
H	 -0.243447	 -0.722894	 -1.004485
C	 2.151032	 -0.811012	 -0.202643
H	 1.515939	 1.247397	 -0.115449
H	 1.191514	 0.341223	 1.333422
C	 3.580021	 -0.656538	 0.320835
H	 2.170545	 -0.847575	 -1.289412
H	 1.766632	 -1.772905	 0.124928
C	 4.327657	 0.562694	 -0.213579
H	 4.138806	 -1.549270	 0.057813
H	 3.561991	 -0.620783	 1.406976
H	 4.355973	 0.557257	 -1.298551
H	 3.867136	 1.491650	 0.100501
H	 5.351524	 0.571613	 0.142204

	symmetry c1
}
set optking {
	frozen_dihedral = ("
		12 8 11 14
	")
}

ee,wfn = optimize('scf', return_wfn=True)
oeprop( wfn, 'DIPOLE', 'QUADRUPOLE', 'MULLIKEN_CHARGES')
f=open( 'psi4out.xyz', 'w' )
f.write( "25  " )
f.write( str(ee) + "\n" )
f.write( MOL.save_string_xyz() )
f.close()
--------------------------------------------------------------------------

    Molecular point group: c1
  Charge       = 0
  Multiplicity = 1
  Basis Set: CC-PVTZ
  Basis Set:
  @DF-RHF Final Energy:  -387.25517317589174
    Total Energy =                       -387.2551731758912865
    Molecular point group: c1
  Basis Set: CC-PVTZ
  Basis Set:
  Basis Set: CC-PVTZ
  Basis Set:
  @DF-RHF Final Energy:  -387.25540957520445
    Total Energy =                       -387.2554095752043395
  Basis Set: CC-PVTZ
  Basis Set:
  Basis Set: CC-PVTZ
  Basis Set:
  @DF-RHF Final Energy:  -387.25546931166673
    Total Energy =                       -387.2554693116671842
  Basis Set: CC-PVTZ
  Basis Set:
  Basis Set: CC-PVTZ
  Basis Set:
  @DF-RHF Final Energy:  -387.25546541048982
    Total Energy =                       -387.2554654104900465
  Basis Set: CC-PVTZ
  Basis Set:
  Basis Set: CC-PVTZ
  Basis Set:
  @DF-RHF Final Energy:  -387.25547558631649
    Total Energy =                       -387.2554755863162654
  Basis Set: CC-PVTZ
  Basis Set:
  Basis Set: CC-PVTZ
  Basis Set:
  @DF-RHF Final Energy:  -387.25547749106460
    Total Energy =                       -387.2554774910644255
  Basis Set: CC-PVTZ
  Basis Set:
  Charge       = 0
  Multiplicity = 1
  Basis Set: CC-PVTZ
  Basis Set:

    Orbital Energies (a.u.)
    -----------------------

    Doubly Occupied:

       1A    -20.551373     2A    -11.321026     3A    -11.233830
       4A    -11.233223     5A    -11.221464     6A    -11.217531
       7A    -11.216793     8A    -11.216188     9A    -11.208862
      10A     -1.406407    11A     -1.104371    12A     -1.070864
      13A     -1.013087    14A     -0.942962    15A     -0.878276
      16A     -0.821831    17A     -0.789313    18A     -0.782398
      19A     -0.668785    20A     -0.656109    21A     -0.632666
      22A     -0.626602    23A     -0.608484    24A     -0.594870
      25A     -0.578404    26A     -0.557594    27A     -0.530836
      28A     -0.526825    29A     -0.514365    30A     -0.498148
      31A     -0.489644    32A     -0.481291    33A     -0.464316
      34A     -0.452325    35A     -0.444601    36A     -0.411921

  @DF-RHF Final Energy:  -387.25547775420085

   => Energetics <=

    Nuclear Repulsion Energy =            442.3511671775518721
    One-Electron Energy =               -1401.2781141160289735
    Two-Electron Energy =                 571.6714691842764751
    DFT Exchange-Correlation Energy =       0.0000000000000000
    Empirical Dispersion Energy =           0.0000000000000000
    PCM Polarization Energy =               0.0000000000000000
    EFP Energy =                            0.0000000000000000
    Total Energy =                       -387.2554777542006832
    Molecular point group: c1
  Basis Set: CC-PVTZ
  Basis Set:

  -Total Gradient:
     Atom            X                  Y                   Z
    ------   -----------------  -----------------  -----------------
       1       -0.000012126662    -0.000019902332     0.000006437389
       2        0.000059167416    -0.000018312007     0.000013305266
       3       -0.000056903361     0.000051571761     0.000017744363
       4       -0.000012862351     0.000011396190     0.000012836816
       5       -0.000001626495    -0.000121596781    -0.000043673659
       6       -0.000003151400     0.000018219854    -0.000003061139
       7        0.000000463565     0.000009706328     0.000005612099
       8       -0.000830894320     0.001274606061     0.001971519857
       9       -0.000038715885    -0.000002623940    -0.000026626152
      10        0.000002931273    -0.000007432253     0.000022509348
      11       -0.000226362354    -0.001393257416     0.001447938086
      12        0.000761551337    -0.000732992354    -0.002071294206
      13       -0.000021940495     0.000027496799     0.000026643915
      14        0.000327180929     0.000883334019    -0.001368782955
      15        0.000022812704     0.000008343121     0.000005417345
      16        0.000046153884     0.000005373323     0.000005723239
      17        0.000005073195    -0.000004912381    -0.000023456721
      18        0.000015644798     0.000029247561     0.000000844016
      19        0.000001896549    -0.000010973181    -0.000014600458
      20       -0.000013642310    -0.000016096464    -0.000003367829
      21       -0.000004356287    -0.000021342078     0.000016809630
      22       -0.000012989524     0.000024321713    -0.000001464761
      23       -0.000007492608     0.000004810615    -0.000000726207
      24       -0.000003880566     0.000012826856     0.000003370010
      25        0.000004068974    -0.000011813017     0.000000342710

  **** Optimization is complete! (in 7 steps) ****
    Final optimized geometry and variables:
    Molecular point group: c1

    Geometry (in Angstrom), charge = 0, multiplicity = 1:

    H           -2.414001753479    -2.174324807032     0.047417941778
    C           -2.873850201013    -1.263358606866    -0.359537577773
    C           -2.767812286732    -0.050438026622     0.524618452125
    O           -3.409362550145    -1.290997275732    -1.412968937244
    C           -1.334408351323     0.222492485090     0.988331016088
    H           -3.184632116855     0.797954475918    -0.002660580580
    H           -3.393546409657    -0.244355286234     1.393074496342
    C           -0.396700388696     0.654411207840    -0.137686785180
    H           -1.360510543239     0.994765217409     1.749147262528
    H           -0.936695674640    -0.665706710861     1.473963062868
    C            1.054058063062     0.887611172244     0.326895943820
    H           -0.789082574723     1.550020626208    -0.607594735545
    H           -0.402881462727    -0.099939876974    -0.919400746841
    C            2.016299062104    -0.209367991680    -0.129558630681
    H            1.399786904048     1.843568957743    -0.047407677149
    H            1.084696268919     0.962288425634     1.410613177342
    C            3.442933398801    -0.077480996874     0.404956386309
    H            2.040429020145    -0.229033398599    -1.216311489508
    H            1.620615868903    -1.173485120285     0.180607101048
    C            4.203626847195     1.145301942471    -0.102503185159
    H            3.995747996604    -0.970064012673     0.128764528988
    H            3.418548965708    -0.061214747822     1.491498977604
    H            4.234353295268     1.162062327299    -1.187244305394
    H            3.751392181670     2.071937866552     0.229771571769
    H            5.226662595625     1.136512658642     0.255618965669

  Mulliken Charges: (a.u.)
   Center  Symbol    Alpha    Beta     Spin     Total
       1     H     0.46391  0.46391  0.00000  0.07217
       2     C     2.90588  2.90588  0.00000  0.18824
       3     C     3.08820  3.08820  0.00000 -0.17641
       4     O     4.16610  4.16610  0.00000 -0.33219
       5     C     3.11380  3.11380  0.00000 -0.22760
       6     H     0.44299  0.44299  0.00000  0.11402
       7     H     0.44068  0.44068  0.00000  0.11863
       8     C     3.10040  3.10040  0.00000 -0.20080
       9     H     0.44205  0.44205  0.00000  0.11590
      10     H     0.44929  0.44929  0.00000  0.10142
      11     C     3.10228  3.10228  0.00000 -0.20456
      12     H     0.44249  0.44249  0.00000  0.11502
      13     H     0.44791  0.44791  0.00000  0.10418
      14     C     3.09522  3.09522  0.00000 -0.19045
      15     H     0.44297  0.44297  0.00000  0.11406
      16     H     0.45468  0.45468  0.00000  0.09065
      17     C     3.09061  3.09061  0.00000 -0.18121
      18     H     0.45094  0.45094  0.00000  0.09811
      19     H     0.45003  0.45003  0.00000  0.09994
      20     C     3.15270  3.15270  0.00000 -0.30540
      21     H     0.44801  0.44801  0.00000  0.10399
      22     H     0.45472  0.45472  0.00000  0.09055
      23     H     0.45416  0.45416  0.00000  0.09169
      24     H     0.45393  0.45393  0.00000  0.09213
      25     H     0.44605  0.44605  0.00000  0.10791

   Total alpha = 36.00000, Total beta = 36.00000, Total charge = -0.00000

*** Psi4 exiting successfully. Buy a developer a beer!
