  ==> Input File <==

--------------------------------------------------------------------------
set {
	reference rhf
	basis 6-31G*
}

set_num_threads( 1 )
memory 2 gb

molecule MOL {
0 1

H	 2.253813	 -1.918868	 0.074608
O	 2.826016	 -1.159218	 0.122261
C	 2.077727	 -0.067559	 -0.035091
C	 0.624473	 -0.343591	 0.253101
O	 2.542965	 0.974826	 -0.363729
C	 -0.265902	 0.883932	 0.072916
H	 0.324016	 -1.163849	 -0.390541
H	 0.565024	 -0.726111	 1.268924
C	 -1.728698	 0.646073	 0.462102
H	 -0.209144	 1.219470	 -0.958188
H	 0.135059	 1.692851	 0.673903
C	 -2.482460	 -0.343073	 -0.431425
H	 -2.245265	 1.602650	 0.432430
H	 -1.779332	 0.308348	 1.496285
C	 -3.960546	 -0.461025	 -0.060175
H	 -2.395034	 -0.026811	 -1.468912
H	 -2.024850	 -1.327147	 -0.371646
H	 -4.472726	 -1.168004	 -0.705284
H	 -4.465146	 0.496508	 -0.151489
H	 -4.081218	 -0.800940	 0.964585

	symmetry c1
}
set optking {
	frozen_dihedral = ("
		16 12 9 6,
		7 4 6 10,
		12 9 6 10,
		5 3 4 7
	")
}

ee = energy('scf')
oeprop('DIPOLE', 'QUADRUPOLE', 'MULLIKEN_CHARGES')
f=open( 'psi4out.xyz', 'w' )
f.write( "20  " )
f.write( str(ee) + "\n" )
f.write( MOL.save_string_xyz() )
f.close()
--------------------------------------------------------------------------

    Molecular point group: c1

    Geometry (in Angstrom), charge = 0, multiplicity = 1:

       Center              X                  Y                   Z               Mass
    ------------   -----------------  -----------------  -----------------  -----------------
           H          2.266624633802    -1.910267901615     0.073347555778     1.007825032070
           O          2.838827633802    -1.150617901615     0.121000555778    15.994914619560
           C          2.090538633802    -0.058958901615    -0.036351444222    12.000000000000
           C          0.637284633802    -0.334990901615     0.251840555778    12.000000000000
           O          2.555776633802     0.983426098385    -0.364989444222    15.994914619560
           C         -0.253090366198     0.892532098385     0.071655555778    12.000000000000
           H          0.336827633802    -1.155248901615    -0.391801444222     1.007825032070
           H          0.577835633802    -0.717510901615     1.267663555778     1.007825032070
           C         -1.715886366198     0.654673098385     0.460841555778    12.000000000000
           H         -0.196332366198     1.228070098385    -0.959448444222     1.007825032070
           H          0.147870633802     1.701451098385     0.672642555778     1.007825032070
           C         -2.469648366198    -0.334472901615    -0.432685444222    12.000000000000
           H         -2.232453366198     1.611250098385     0.431169555778     1.007825032070
           H         -1.766520366198     0.316948098385     1.495024555778     1.007825032070
           C         -3.947734366198    -0.452424901615    -0.061435444222    12.000000000000
           H         -2.382222366198    -0.018210901615    -1.470172444222     1.007825032070
           H         -2.012038366198    -1.318546901615    -0.372906444222     1.007825032070
           H         -4.459914366198    -1.159403901615    -0.706544444222     1.007825032070
           H         -4.452334366198     0.505108098385    -0.152749444222     1.007825032070
           H         -4.068406366198    -0.792339901615     0.963324555778     1.007825032070

  Charge       = 0
  Multiplicity = 1
  Basis Set: 6-31G*
  Basis Set:

    Orbital Energies (a.u.)
    -----------------------

    Doubly Occupied:

       1A    -20.613636     2A    -20.550020     3A    -11.380824
       4A    -11.251812     5A    -11.229667     6A    -11.226698
       7A    -11.225854     8A    -11.217323     9A     -1.470513
      10A     -1.370457    11A     -1.102872    12A     -1.046314
      13A     -0.962996    14A     -0.866658    15A     -0.828982
      16A     -0.794602    17A     -0.721478    18A     -0.673248
      19A     -0.660747    20A     -0.639535    21A     -0.611219
      22A     -0.598810    23A     -0.577885    24A     -0.566222
      25A     -0.542848    26A     -0.519185    27A     -0.501480
      28A     -0.480308    29A     -0.475892    30A     -0.470922
      31A     -0.463444    32A     -0.440160

  @DF-RHF Final Energy:  -383.93472545453301

   => Energetics <=

    Nuclear Repulsion Energy =            376.6200542131182374
    One-Electron Energy =               -1268.9443093702550414
    Two-Electron Energy =                 508.3895297026029425
    DFT Exchange-Correlation Energy =       0.0000000000000000
    Empirical Dispersion Energy =           0.0000000000000000
    PCM Polarization Energy =               0.0000000000000000
    EFP Energy =                            0.0000000000000000
    Total Energy =                       -383.9347254545338615

  Mulliken Charges: (a.u.)
   Center  Symbol    Alpha    Beta     Spin     Total
       1     H     0.26811  0.26811  0.00000  0.46378
       2     O     4.34940  4.34940  0.00000 -0.69881
       3     C     2.60404  2.60404  0.00000  0.79191
       4     C     3.24163  3.24163  0.00000 -0.48326
       5     O     4.26730  4.26730  0.00000 -0.53460
       6     C     3.15328  3.15328  0.00000 -0.30656
       7     H     0.40813  0.40813  0.00000  0.18374
       8     H     0.39906  0.39906  0.00000  0.20189
       9     C     3.15637  3.15637  0.00000 -0.31274
      10     H     0.40980  0.40980  0.00000  0.18039
      11     H     0.40414  0.40414  0.00000  0.19172
      12     C     3.15454  3.15454  0.00000 -0.30908
      13     H     0.41623  0.41623  0.00000  0.16753
      14     H     0.42369  0.42369  0.00000  0.15262
      15     C     3.23930  3.23930  0.00000 -0.47861
      16     H     0.42045  0.42045  0.00000  0.15911
      17     H     0.42603  0.42603  0.00000  0.14794
      18     H     0.41789  0.41789  0.00000  0.16422
      19     H     0.41945  0.41945  0.00000  0.16111
      20     H     0.42115  0.42115  0.00000  0.15770

   Total alpha = 32.00000, Total beta = 32.00000, Total charge = -0.00000
