  ==> Input File <==

--------------------------------------------------------------------------
set {
	reference rhf
	basis 6-31G*
}

set_num_threads( 4 )
memory 2 gb

molecule MOL {
0 1

H	 -3.420663	 1.227371	 -1.044276
O	 -3.452007	 0.283848	 -0.965577
C	 -3.181085	 -0.079926	 0.364119
C	 -1.765924	 0.277073	 0.805136
H	 -3.327791	 -1.152017	 0.410903
H	 -3.905698	 0.375695	 1.036898
C	 -0.677594	 -0.417312	 -0.014550
H	 -1.637766	 1.358238	 0.744969
H	 -1.659588	 0.017670	 1.857098
C	 0.738335	 -0.034840	 0.421385
H	 -0.814977	 -0.178223	 -1.064632
H	 -0.802730	 -1.495410	 0.071702
C	 1.822265	 -0.738362	 -0.399735
H	 0.853533	 1.043532	 0.342250
H	 0.871597	 -0.279636	 1.474438
C	 3.258060	 -0.455774	 0.057203
H	 1.718003	 -0.459167	 -1.447053
H	 1.651028	 -1.811884	 -0.354513
C	 4.268873	 -0.301794	 -1.080757
H	 3.580763	 -1.270046	 0.701496
H	 3.269288	 0.440727	 0.673940
H	 4.270689	 -1.179167	 -1.722125
H	 5.274011	 -0.177839	 -0.689389
H	 4.053601	 0.561494	 -1.701687

	symmetry c1
}
set optking {
	frozen_dihedral = ("
		20 16 13 17
	")
}

ee = optimize('scf')
oeprop('DIPOLE', 'QUADRUPOLE', 'MULLIKEN_CHARGES')
f=open( 'psi4out.xyz', 'w' )
f.write( "24  " )
f.write( str(ee) + "\n" )
f.write( MOL.save_string_xyz() )
f.close()
--------------------------------------------------------------------------

    Molecular point group: c1
  Charge       = 0
  Multiplicity = 1
  Basis Set: 6-31G*
  Basis Set:
  @DF-RHF Final Energy:  -349.24475707494361
    Total Energy =                       -349.2447570749435499
    Molecular point group: c1
  Basis Set: 6-31G*
  Basis Set:
  Basis Set: 6-31G*
  Basis Set:
  @DF-RHF Final Energy:  -349.24516144380948
    Total Energy =                       -349.2451614438093657
  Basis Set: 6-31G*
  Basis Set:
  Basis Set: 6-31G*
  Basis Set:
  @DF-RHF Final Energy:  -349.24519701530659
    Total Energy =                       -349.2451970153068714
  Basis Set: 6-31G*
  Basis Set:
  Basis Set: 6-31G*
  Basis Set:
  @DF-RHF Final Energy:  -349.24520986729505
    Total Energy =                       -349.2452098672951593
  Basis Set: 6-31G*
  Basis Set:
  Basis Set: 6-31G*
  Basis Set:
  @DF-RHF Final Energy:  -349.24521633634856
    Total Energy =                       -349.2452163363485624
  Basis Set: 6-31G*
  Basis Set:
  Charge       = 0
  Multiplicity = 1
  Basis Set: 6-31G*
  Basis Set:

    Orbital Energies (a.u.)
    -----------------------

    Doubly Occupied:

       1A    -20.553604     2A    -11.267742     3A    -11.217543
       4A    -11.213524     5A    -11.213231     6A    -11.211115
       7A    -11.211016     8A    -11.207261     9A     -1.360205
      10A     -1.087681    11A     -1.048047    12A     -0.988045
      13A     -0.913248    14A     -0.842395    15A     -0.797973
      16A     -0.788143    17A     -0.679004    18A     -0.655143
      19A     -0.628252    20A     -0.614661    21A     -0.595374
      22A     -0.584549    23A     -0.550223    24A     -0.538499
      25A     -0.530174    26A     -0.503007    27A     -0.493912
      28A     -0.471522    29A     -0.469168    30A     -0.457626
      31A     -0.456479    32A     -0.453805    33A     -0.418221

  @DF-RHF Final Energy:  -349.24521642601729

   => Energetics <=

    Nuclear Repulsion Energy =            380.7354770282605045
    One-Electron Energy =               -1227.9206059420998827
    Two-Electron Energy =                 497.9399124878219709
    DFT Exchange-Correlation Energy =       0.0000000000000000
    Empirical Dispersion Energy =           0.0000000000000000
    PCM Polarization Energy =               0.0000000000000000
    EFP Energy =                            0.0000000000000000
    Total Energy =                       -349.2452164260174641
    Molecular point group: c1
  Basis Set: 6-31G*
  Basis Set:

  -Total Gradient:
     Atom            X                  Y                   Z
    ------   -----------------  -----------------  -----------------
       1       -0.000000103894     0.000000524377    -0.000000478836
       2       -0.000000269463     0.000000802324     0.000001918211
       3        0.000000445822    -0.000004813808    -0.000001003358
       4        0.000005713439     0.000002007139     0.000001828956
       5       -0.000000727046    -0.000000280625     0.000000112598
       6        0.000000345038     0.000000303768    -0.000000753410
       7        0.000003189316    -0.000001365259    -0.000008910764
       8       -0.000001313791    -0.000000052668    -0.000000113502
       9        0.000000341996     0.000001386578     0.000000382102
      10        0.000007493408     0.000005250950     0.000006307903
      11       -0.000002048451     0.000002684400     0.000000570455
      12        0.000002416870     0.000000043917    -0.000002433618
      13       -0.001082538871     0.004100536623     0.000544722544
      14        0.000001177358    -0.000000842410     0.000000262121
      15       -0.000003423201     0.000000323457     0.000002390472
      16       -0.001545705486     0.001578425089     0.003644462597
      17        0.001153962722    -0.003701615558    -0.001040573850
      18       -0.000005157912    -0.000001645934    -0.000000772148
      19       -0.000012281184    -0.000003430519     0.000002581201
      20        0.001477974089    -0.001982067078    -0.003161098625
      21        0.000004848873     0.000006257690     0.000005369098
      22       -0.000000060104    -0.000002652025    -0.000003001298
      23       -0.000005866464    -0.000001876035     0.000005973603
      24        0.000001586931     0.000002095606     0.000002257546

  **** Optimization is complete! (in 6 steps) ****
    Final optimized geometry and variables:
    Molecular point group: c1

    Geometry (in Angstrom), charge = 0, multiplicity = 1:

    H           -3.475831566410     1.425386740364    -0.909774639942
    O           -3.515390101392     0.481029752559    -0.846758182204
    C           -3.253532386334     0.093265533714     0.477970747766
    C           -1.837381868266     0.430939845597     0.930874144059
    H           -3.409337070120    -0.978095341751     0.506387051111
    H           -3.977293757968     0.543787839650     1.155014894794
    C           -0.751248049809    -0.257530630477     0.103268155209
    H           -1.700286725312     1.511898430324     0.890287711990
    H           -1.737376072529     0.152146799214     1.978488876979
    C            0.665094779805     0.107168542974     0.549938953513
    H           -0.883151110607    -0.000224975361    -0.943212561023
    H           -0.884136539513    -1.336026640860     0.171297856048
    C            1.754030137928    -0.578208060835    -0.275712016698
    H            0.797266170693     1.186375403195     0.488293874552
    H            0.794077337437    -0.154138068517     1.599444136830
    C            3.186441538236    -0.263429247802     0.197071996475
    H            1.646236216623    -0.316316217353    -1.326299011363
    H            1.598528958903    -1.654823536269    -0.240753997612
    C            4.182485428971    -0.143310990377    -0.958240005818
    H            3.532662842898    -1.055028673051     0.856141414009
    H            3.197638022484     0.657712352250     0.773832915866
    H            4.204354347025    -1.053567465609    -1.551263550651
    H            5.189352184765     0.038096675408    -0.594312649997
    H            3.916057486287     0.674848059120    -1.621452564526

  Mulliken Charges: (a.u.)
   Center  Symbol    Alpha    Beta     Spin     Total
       1     H     0.28338  0.28338  0.00000  0.43323
       2     O     4.36829  4.36829  0.00000 -0.73658
       3     C     2.99613  2.99613  0.00000  0.00774
       4     C     3.16911  3.16911  0.00000 -0.33821
       5     H     0.41633  0.41633  0.00000  0.16734
       6     H     0.42814  0.42814  0.00000  0.14372
       7     C     3.15268  3.15268  0.00000 -0.30537
       8     H     0.42823  0.42823  0.00000  0.14355
       9     H     0.42231  0.42231  0.00000  0.15538
      10     C     3.15290  3.15290  0.00000 -0.30581
      11     H     0.41194  0.41194  0.00000  0.17613
      12     H     0.42345  0.42345  0.00000  0.15311
      13     C     3.15393  3.15393  0.00000 -0.30786
      14     H     0.42486  0.42486  0.00000  0.15028
      15     H     0.42439  0.42439  0.00000  0.15121
      16     C     3.15314  3.15314  0.00000 -0.30629
      17     H     0.42128  0.42128  0.00000  0.15745
      18     H     0.42209  0.42209  0.00000  0.15582
      19     C     3.24003  3.24003  0.00000 -0.48005
      20     H     0.42123  0.42123  0.00000  0.15753
      21     H     0.42160  0.42160  0.00000  0.15680
      22     H     0.42163  0.42163  0.00000  0.15673
      23     H     0.42085  0.42085  0.00000  0.15830
      24     H     0.42208  0.42208  0.00000  0.15584

   Total alpha = 33.00000, Total beta = 33.00000, Total charge = -0.00000
