  ==> Input File <==

--------------------------------------------------------------------------
set {
	reference rhf
	basis 6-31G*
}

set_num_threads( 1 )
memory 2 gb

molecule MOL {
0 1

H	 3.416919	 -0.502134	 0.843938
N	 3.092854	 -0.246221	 -0.068770
C	 1.865559	 0.531981	 0.018834
H	 2.932210	 -1.100055	 -0.568761
C	 0.645745	 -0.382037	 -0.029944
H	 1.841966	 1.207024	 -0.831236
H	 1.815756	 1.155410	 0.915079
C	 -0.679275	 0.379305	 0.025956
H	 0.698998	 -0.976915	 -0.937203
H	 0.693479	 -1.083846	 0.802235
C	 -1.903357	 -0.536963	 -0.023547
H	 -0.726309	 1.082987	 -0.803784
H	 -0.717680	 0.977832	 0.934877
C	 -3.225172	 0.228290	 0.028445
H	 -1.867824	 -1.134999	 -0.931459
H	 -1.860449	 -1.239604	 0.805977
H	 -3.313397	 0.915643	 -0.808262
H	 -4.073500	 -0.448134	 -0.008893
H	 -3.306061	 0.809945	 0.942516

	symmetry c1
}
set optking {
	frozen_dihedral = ("
		6 3 5 9,
		12 8 5 9,
		12 8 11 15
	")
}

ee = energy('scf')
oeprop('DIPOLE', 'QUADRUPOLE', 'MULLIKEN_CHARGES')
f=open( 'psi4out.xyz', 'w' )
f.write( "19  " )
f.write( str(ee) + "\n" )
f.write( MOL.save_string_xyz() )
f.close()
--------------------------------------------------------------------------

    Molecular point group: c1

    Geometry (in Angstrom), charge = 0, multiplicity = 1:

       Center              X                  Y                   Z               Mass
    ------------   -----------------  -----------------  -----------------  -----------------
           H          3.425522134444    -0.489041487040     0.848165796029     1.007825032070
           N          3.101457134444    -0.233128487040    -0.064542203971    14.003074004780
           C          1.874162134444     0.545073512960     0.023061796029    12.000000000000
           H          2.940813134444    -1.086962487040    -0.564533203971     1.007825032070
           C          0.654348134444    -0.368944487040    -0.025716203971    12.000000000000
           H          1.850569134444     1.220116512960    -0.827008203971     1.007825032070
           H          1.824359134444     1.168502512960     0.919306796029     1.007825032070
           C         -0.670671865556     0.392397512960     0.030183796029    12.000000000000
           H          0.707601134444    -0.963822487040    -0.932975203971     1.007825032070
           H          0.702082134444    -1.070753487040     0.806462796029     1.007825032070
           C         -1.894753865556    -0.523870487040    -0.019319203971    12.000000000000
           H         -0.717705865556     1.096079512960    -0.799556203971     1.007825032070
           H         -0.709076865556     0.990924512960     0.939104796029     1.007825032070
           C         -3.216568865556     0.241382512960     0.032672796029    12.000000000000
           H         -1.859220865556    -1.121906487040    -0.927231203971     1.007825032070
           H         -1.851845865556    -1.226511487040     0.810204796029     1.007825032070
           H         -3.304793865556     0.928735512960    -0.804034203971     1.007825032070
           H         -4.064896865556    -0.435041487040    -0.004665203971     1.007825032070
           H         -3.297457865556     0.823037512960     0.946743796029     1.007825032070

  Charge       = 0
  Multiplicity = 1
  Basis Set: 6-31G*
  Basis Set:

    Orbital Energies (a.u.)
    -----------------------

    Doubly Occupied:

       1A    -15.530083     2A    -11.239930     3A    -11.216666
       4A    -11.215378     5A    -11.213703     6A    -11.209483
       7A     -1.177941     8A     -1.075273     9A     -0.999650
      10A     -0.901160    11A     -0.819463    12A     -0.793850
      13A     -0.675827    14A     -0.638520    15A     -0.599985
      16A     -0.592206    17A     -0.569633    18A     -0.557991
      19A     -0.524126    20A     -0.504073    21A     -0.485697
      22A     -0.469223    23A     -0.466256    24A     -0.462514
      25A     -0.372006

  @DF-RHF Final Energy:  -251.34764221848116

   => Energetics <=

    Nuclear Repulsion Energy =            246.2380800772686484
    One-Electron Energy =                -826.5500499072046523
    Two-Electron Energy =                 328.9643276114541663
    DFT Exchange-Correlation Energy =       0.0000000000000000
    Empirical Dispersion Energy =           0.0000000000000000
    PCM Polarization Energy =               0.0000000000000000
    EFP Energy =                            0.0000000000000000
    Total Energy =                       -251.3476422184818944

  Mulliken Charges: (a.u.)
   Center  Symbol    Alpha    Beta     Spin     Total
       1     H     0.33397  0.33397  0.00000  0.33206
       2     N     3.92274  3.92274  0.00000 -0.84549
       3     C     3.05647  3.05647  0.00000 -0.11293
       4     H     0.33268  0.33268  0.00000  0.33464
       5     C     3.16312  3.16312  0.00000 -0.32624
       6     H     0.41864  0.41864  0.00000  0.16272
       7     H     0.42130  0.42130  0.00000  0.15741
       8     C     3.15498  3.15498  0.00000 -0.30995
       9     H     0.42486  0.42486  0.00000  0.15027
      10     H     0.42589  0.42589  0.00000  0.14822
      11     C     3.15086  3.15086  0.00000 -0.30171
      12     H     0.42244  0.42244  0.00000  0.15511
      13     H     0.42392  0.42392  0.00000  0.15215
      14     C     3.23935  3.23935  0.00000 -0.47871
      15     H     0.42289  0.42289  0.00000  0.15422
      16     H     0.42337  0.42337  0.00000  0.15326
      17     H     0.42144  0.42144  0.00000  0.15712
      18     H     0.41923  0.41923  0.00000  0.16154
      19     H     0.42184  0.42184  0.00000  0.15632

   Total alpha = 25.00000, Total beta = 25.00000, Total charge =  0.00000
