  ==> Input File <==

--------------------------------------------------------------------------
set {
	reference rhf
	basis 6-31G*
}

set_num_threads( 4 )
memory 2 gb

molecule MOL {
0 1

H	 -2.735986	 0.553201	 0.763151
C	 -2.279855	 1.535387	 0.656396
O	 -0.898220	 1.443058	 0.522605
H	 -2.663618	 2.004059	 -0.239267
H	 -2.559489	 2.141057	 1.517440
C	 -0.257408	 0.860352	 1.613046
C	 1.215020	 0.715177	 1.307946
H	 -0.379948	 1.482620	 2.500437
H	 -0.676956	 -0.119883	 1.830122
O	 1.392611	 -0.295398	 0.366430
H	 1.599227	 1.662768	 0.935841
H	 1.749486	 0.473401	 2.227503
C	 2.706965	 -0.449871	 -0.062409
H	 2.756559	 -0.644779	 -1.131878
H	 3.305899	 0.433456	 0.155466
H	 3.125548	 -1.294566	 0.467107

	symmetry c1
}
set optking {
	frozen_dihedral = ("
		7 10 13 14
	")
}

ee = optimize('scf')
oeprop('DIPOLE', 'QUADRUPOLE', 'MULLIKEN_CHARGES')
f=open( 'psi4out.xyz', 'w' )
f.write( "16  " )
f.write( str(ee) + "\n" )
f.write( MOL.save_string_xyz() )
f.close()
--------------------------------------------------------------------------

    Molecular point group: c1
  Charge       = 0
  Multiplicity = 1
  Basis Set: 6-31G*
  Basis Set:
  @DF-RHF Final Energy:  -306.97377450696587
    Total Energy =                       -306.9737745069658672
    Molecular point group: c1
  Basis Set: 6-31G*
  Basis Set:
  Basis Set: 6-31G*
  Basis Set:
  @DF-RHF Final Energy:  -306.97456736230743
    Total Energy =                       -306.9745673623073117
  Basis Set: 6-31G*
  Basis Set:
  Basis Set: 6-31G*
  Basis Set:
  @DF-RHF Final Energy:  -306.97474653580019
    Total Energy =                       -306.9747465358003637
  Basis Set: 6-31G*
  Basis Set:
  Basis Set: 6-31G*
  Basis Set:
  @DF-RHF Final Energy:  -306.97474793162166
    Total Energy =                       -306.9747479316217778
  Basis Set: 6-31G*
  Basis Set:
  Charge       = 0
  Multiplicity = 1
  Basis Set: 6-31G*
  Basis Set:

    Orbital Energies (a.u.)
    -----------------------

    Doubly Occupied:

       1A    -20.553219     2A    -20.550534     3A    -11.269238
       4A    -11.268127     5A    -11.263309     6A    -11.263022
       7A     -1.386346     8A     -1.368098     9A     -1.030576
      10A     -0.936190    11A     -0.891870    12A     -0.823653
      13A     -0.682688    14A     -0.679277    15A     -0.655909
      16A     -0.634936    17A     -0.628183    18A     -0.596036
      19A     -0.553941    20A     -0.536653    21A     -0.507876
      22A     -0.476399    23A     -0.461595    24A     -0.418040
      25A     -0.408004

  @DF-RHF Final Energy:  -306.97474811623573

   => Energetics <=

    Nuclear Repulsion Energy =            258.6362077208140704
    One-Electron Energy =                -931.5344766346158849
    Two-Electron Energy =                 365.9235207975658568
    DFT Exchange-Correlation Energy =       0.0000000000000000
    Empirical Dispersion Energy =           0.0000000000000000
    PCM Polarization Energy =               0.0000000000000000
    EFP Energy =                            0.0000000000000000
    Total Energy =                       -306.9747481162359009
    Molecular point group: c1
  Basis Set: 6-31G*
  Basis Set:

  -Total Gradient:
     Atom            X                  Y                   Z
    ------   -----------------  -----------------  -----------------
       1        0.000000813349    -0.000000528636     0.000001127197
       2       -0.000000571415     0.000005580197    -0.000010187539
       3       -0.000008304600    -0.000000280603     0.000002376702
       4       -0.000005946852     0.000000340873     0.000000293075
       5        0.000001591720    -0.000001060057     0.000000623086
       6        0.000003966200     0.000011886230    -0.000006439612
       7       -0.000378012539     0.001441868086    -0.001589878124
       8       -0.000000321213     0.000000893283     0.000004403072
       9        0.000012080744    -0.000000636893     0.000001561121
      10        0.000563758758    -0.001440512009     0.002174466958
      11       -0.000004002038    -0.000005974956    -0.000002708218
      12        0.000004290902     0.000000317182     0.000003890667
      13       -0.000368391726    -0.002671426895    -0.000114621348
      14        0.000173484711     0.002638515906    -0.000465796664
      15        0.000009859077     0.000009388781     0.000002185848
      16       -0.000004295075     0.000011629512    -0.000001296219

  **** Optimization is complete! (in 5 steps) ****
    Final optimized geometry and variables:
    Molecular point group: c1

    Geometry (in Angstrom), charge = 0, multiplicity = 1:

    H           -3.043388555894    -0.082532136109     0.008803244686
    C           -2.587339187859     0.900282325884    -0.092434560140
    O           -1.204006632075     0.810026213949    -0.208952480320
    H           -2.960851732745     1.368393832545    -0.992724847499
    H           -2.878199679512     1.505457894914     0.765179268485
    C           -0.575911498856     0.228583445424     0.889630766072
    C            0.900345384224     0.083898431691     0.602929259936
    H           -0.709200020091     0.851778358492     1.774902393637
    H           -0.997987550128    -0.751297093109     1.102829387801
    O            1.085093505066    -0.922218588849    -0.342840046415
    H            1.287871663719     1.032114348832     0.238461316459
    H            1.419973206659    -0.159010650149     1.530581405743
    C            2.392279721281    -1.092976943052    -0.800867744842
    H            2.359947764254    -1.285124635318    -1.865891220033
    H            2.992620825077    -0.200690561422    -0.643790589676
    H            2.876012656848    -1.924801335695    -0.296261555988

  Mulliken Charges: (a.u.)
   Center  Symbol    Alpha    Beta     Spin     Total
       1     H     0.42808  0.42808  0.00000  0.14384
       2     C     3.07943  3.07943  0.00000 -0.15885
       3     O     4.30088  4.30088  0.00000 -0.60176
       4     H     0.41140  0.41140  0.00000  0.17719
       5     H     0.43196  0.43196  0.00000  0.13607
       6     C     2.99358  2.99358  0.00000  0.01285
       7     C     2.99288  2.99288  0.00000  0.01423
       8     H     0.43244  0.43244  0.00000  0.13513
       9     H     0.42275  0.42275  0.00000  0.15449
      10     O     4.30482  4.30482  0.00000 -0.60964
      11     H     0.42210  0.42210  0.00000  0.15579
      12     H     0.43267  0.43267  0.00000  0.13466
      13     C     3.07614  3.07614  0.00000 -0.15228
      14     H     0.41446  0.41446  0.00000  0.17109
      15     H     0.43076  0.43076  0.00000  0.13848
      16     H     0.42564  0.42564  0.00000  0.14872

   Total alpha = 25.00000, Total beta = 25.00000, Total charge = -0.00000
