  ==> Input File <==

--------------------------------------------------------------------------
set {
	reference rhf
	basis 6-31G*
}

set_num_threads( 1 )
memory 2 gb

molecule MOL {
0 1

H	 -2.245800	 1.656730	 -2.563260
C	 -2.653010	 0.746454	 -2.105877
C	 -1.775418	 -0.473578	 -2.224055
O	 -3.712686	 0.770482	 -1.568978
C	 -0.343761	 -0.218667	 -1.732493
H	 -2.244396	 -1.286187	 -1.681437
H	 -1.748704	 -0.747468	 -3.278059
C	 -0.252658	 0.041456	 -0.226725
H	 0.265867	 -1.080495	 -1.987229
H	 0.080536	 0.623566	 -2.276894
C	 1.180775	 0.282413	 0.250794
H	 -0.675597	 -0.806989	 0.307233
H	 -0.867527	 0.899776	 0.037400
C	 2.148627	 -0.814315	 -0.201312
H	 1.516199	 1.249228	 -0.115937
H	 1.192670	 0.346017	 1.338083
C	 3.580890	 -0.659131	 0.322722
H	 2.166869	 -0.852443	 -1.289387
H	 1.762857	 -1.776509	 0.128956
C	 4.324889	 0.564933	 -0.213704
H	 4.142010	 -1.551473	 0.056605
H	 3.564836	 -0.624694	 1.410140
H	 4.342616	 0.565491	 -1.300421
H	 3.866655	 1.493402	 0.110242
H	 5.353900	 0.572371	 0.132816

	symmetry c1
}
set optking {
	frozen_dihedral = ("
		6 3 5 8,
		6 3 2 4,
		3 5 8 12,
		8 11 14 18,
		20 17 14 18
	")
}

ee = energy('scf')
oeprop('DIPOLE', 'QUADRUPOLE', 'MULLIKEN_CHARGES')
f=open( 'psi4out.xyz', 'w' )
f.write( "25  " )
f.write( str(ee) + "\n" )
f.write( MOL.save_string_xyz() )
f.close()
--------------------------------------------------------------------------

    Molecular point group: c1

    Geometry (in Angstrom), charge = 0, multiplicity = 1:

       Center              X                  Y                   Z               Mass
    ------------   -----------------  -----------------  -----------------  -----------------
           H         -2.525015369069     1.620603195975    -1.706872479359     1.007825032070
           C         -2.932225369069     0.710327195975    -1.249489479359    12.000000000000
           C         -2.054633369069    -0.509704804025    -1.367667479359    12.000000000000
           O         -3.991901369069     0.734355195975    -0.712590479359    15.994914619560
           C         -0.622976369069    -0.254793804025    -0.876105479359    12.000000000000
           H         -2.523611369069    -1.322313804025    -0.825049479359     1.007825032070
           H         -2.027919369069    -0.783594804025    -2.421671479359     1.007825032070
           C         -0.531873369069     0.005329195975     0.629662520641    12.000000000000
           H         -0.013348369069    -1.116621804025    -1.130841479359     1.007825032070
           H         -0.198679369069     0.587439195975    -1.420506479359     1.007825032070
           C          0.901559630931     0.246286195975     1.107181520641    12.000000000000
           H         -0.954812369069    -0.843115804025     1.163620520641     1.007825032070
           H         -1.146742369069     0.863649195975     0.893787520641     1.007825032070
           C          1.869411630931    -0.850441804025     0.655075520641    12.000000000000
           H          1.236983630931     1.213101195975     0.740450520641     1.007825032070
           H          0.913454630931     0.309890195975     2.194470520641     1.007825032070
           C          3.301674630931    -0.695257804025     1.179109520641    12.000000000000
           H          1.887653630931    -0.888569804025    -0.432999479359     1.007825032070
           H          1.483641630931    -1.812635804025     0.985343520641     1.007825032070
           C          4.045673630931     0.528806195975     0.642683520641    12.000000000000
           H          3.862794630931    -1.587599804025     0.912992520641     1.007825032070
           H          3.285620630931    -0.660820804025     2.266527520641     1.007825032070
           H          4.063400630931     0.529364195975    -0.444033479359     1.007825032070
           H          3.587439630931     1.457275195975     0.966629520641     1.007825032070
           H          5.074684630931     0.536244195975     0.989203520641     1.007825032070

  Charge       = 0
  Multiplicity = 1
  Basis Set: 6-31G*
  Basis Set:

    Orbital Energies (a.u.)
    -----------------------

    Doubly Occupied:

       1A    -20.561673     2A    -11.325747     3A    -11.234535
       4A    -11.233829     5A    -11.223984     6A    -11.220036
       7A    -11.219283     8A    -11.218304     9A    -11.211886
      10A     -1.401669    11A     -1.106709    12A     -1.068222
      13A     -1.013683    14A     -0.939367    15A     -0.883707
      16A     -0.824355    17A     -0.791639    18A     -0.771369
      19A     -0.665099    20A     -0.655635    21A     -0.634973
      22A     -0.624144    23A     -0.603046    24A     -0.599888
      25A     -0.582853    26A     -0.545105    27A     -0.540522
      28A     -0.523848    29A     -0.515474    30A     -0.501481
      31A     -0.486152    32A     -0.476581    33A     -0.460093
      34A     -0.452791    35A     -0.449060    36A     -0.408541

  @DF-RHF Final Energy:  -387.11820105920884

   => Energetics <=

    Nuclear Repulsion Energy =            445.4484268030369662
    One-Electron Energy =               -1407.1825180251926213
    Two-Electron Energy =                 574.6158901629494267
    DFT Exchange-Correlation Energy =       0.0000000000000000
    Empirical Dispersion Energy =           0.0000000000000000
    PCM Polarization Energy =               0.0000000000000000
    EFP Energy =                            0.0000000000000000
    Total Energy =                       -387.1182010592062852

  Mulliken Charges: (a.u.)
   Center  Symbol    Alpha    Beta     Spin     Total
       1     H     0.43274  0.43274  0.00000  0.13452
       2     C     2.83105  2.83105  0.00000  0.33790
       3     C     3.20680  3.20680  0.00000 -0.41359
       4     O     4.23787  4.23787  0.00000 -0.47573
       5     C     3.17179  3.17179  0.00000 -0.34358
       6     H     0.39982  0.39982  0.00000  0.20036
       7     H     0.40699  0.40699  0.00000  0.18602
       8     C     3.15579  3.15579  0.00000 -0.31157
       9     H     0.40863  0.40863  0.00000  0.18274
      10     H     0.42015  0.42015  0.00000  0.15970
      11     C     3.15449  3.15449  0.00000 -0.30898
      12     H     0.41826  0.41826  0.00000  0.16348
      13     H     0.41612  0.41612  0.00000  0.16775
      14     C     3.15889  3.15889  0.00000 -0.31778
      15     H     0.42106  0.42106  0.00000  0.15789
      16     H     0.41879  0.41879  0.00000  0.16242
      17     C     3.15129  3.15129  0.00000 -0.30257
      18     H     0.42212  0.42212  0.00000  0.15577
      19     H     0.42181  0.42181  0.00000  0.15637
      20     C     3.24141  3.24141  0.00000 -0.48281
      21     H     0.42066  0.42066  0.00000  0.15868
      22     H     0.42256  0.42256  0.00000  0.15488
      23     H     0.42279  0.42279  0.00000  0.15442
      24     H     0.41980  0.41980  0.00000  0.16040
      25     H     0.41834  0.41834  0.00000  0.16332

   Total alpha = 36.00000, Total beta = 36.00000, Total charge = -0.00000
