  ==> Input File <==

--------------------------------------------------------------------------
set {
	reference rhf
	basis 6-31G*
}

set_num_threads( 1 )
memory 2 gb

molecule MOL {
0 1

H	 -3.261111	 -0.295142	 1.469456
C	 -3.306842	 -0.277400	 0.373456
C	 -2.660244	 0.921717	 -0.272021
O	 -3.838538	 -1.161155	 -0.216482
C	 -3.263934	 1.248116	 -1.645075
H	 -2.740576	 1.761438	 0.408511
H	 -1.602813	 0.689079	 -0.391910
C	 -4.717518	 1.723030	 -1.575441
H	 -2.655759	 2.015630	 -2.114469
H	 -3.194376	 0.371879	 -2.287825
C	 -5.302328	 2.055548	 -2.949575
H	 -4.774993	 2.600231	 -0.934299
H	 -5.332142	 0.961588	 -1.099014
C	 -6.750887	 2.545470	 -2.874734
H	 -4.678755	 2.808629	 -3.424715
H	 -5.254335	 1.172289	 -3.585134
C	 -7.406693	 2.812632	 -4.234372
H	 -6.794128	 3.450941	 -2.271454
H	 -7.343007	 1.801116	 -2.346488
C	 -6.792570	 3.972969	 -5.019287
H	 -8.460920	 3.022335	 -4.071348
H	 -7.367739	 1.907597	 -4.837129
H	 -6.803189	 4.888784	 -4.434105
H	 -5.764546	 3.773165	 -5.302519
H	 -7.350749	 4.158430	 -5.931994

	symmetry c1
}
set optking {
	frozen_dihedral = ("
		6 3 5 8,
		3 5 8 12,
		12 8 11 14,
		8 11 14 18,
		20 17 14 18
	")
}

ee = energy('scf')
oeprop('DIPOLE', 'QUADRUPOLE', 'MULLIKEN_CHARGES')
f=open( 'psi4out.xyz', 'w' )
f.write( "25  " )
f.write( str(ee) + "\n" )
f.write( MOL.save_string_xyz() )
f.close()
--------------------------------------------------------------------------

    Molecular point group: c1

    Geometry (in Angstrom), charge = 0, multiplicity = 1:

       Center              X                  Y                   Z               Mass
    ------------   -----------------  -----------------  -----------------  -----------------
           H          1.639297193925    -1.831317348815     3.524587386789     1.007825032070
           C          1.593566193925    -1.813575348815     2.428587386789    12.000000000000
           C          2.240164193925    -0.614458348815     1.783110386789    12.000000000000
           O          1.061870193925    -2.697330348815     1.838649386789    15.994914619560
           C          1.636474193925    -0.288059348815     0.410056386789    12.000000000000
           H          2.159832193925     0.225262651185     2.463642386789     1.007825032070
           H          3.297595193925    -0.847096348815     1.663221386789     1.007825032070
           C          0.182890193925     0.186854651185     0.479690386789    12.000000000000
           H          2.244649193925     0.479454651185    -0.059337613211     1.007825032070
           H          1.706032193925    -1.164296348815    -0.232693613211     1.007825032070
           C         -0.401919806075     0.519372651185    -0.894443613211    12.000000000000
           H          0.125415193925     1.064055651185     1.120832386789     1.007825032070
           H         -0.431733806075    -0.574587348815     0.956117386789     1.007825032070
           C         -1.850478806075     1.009294651185    -0.819602613211    12.000000000000
           H          0.221653193925     1.272453651185    -1.369583613211     1.007825032070
           H         -0.353926806075    -0.363886348815    -1.530002613211     1.007825032070
           C         -2.506284806075     1.276456651185    -2.179240613211    12.000000000000
           H         -1.893719806075     1.914765651185    -0.216322613211     1.007825032070
           H         -2.442598806075     0.264940651185    -0.291356613211     1.007825032070
           C         -1.892161806075     2.436793651185    -2.964155613211    12.000000000000
           H         -3.560511806075     1.486159651185    -2.016216613211     1.007825032070
           H         -2.467330806075     0.371421651185    -2.781997613211     1.007825032070
           H         -1.902780806075     3.352608651185    -2.378973613211     1.007825032070
           H         -0.864137806075     2.236989651185    -3.247387613211     1.007825032070
           H         -2.450340806075     2.622254651185    -3.876862613211     1.007825032070

  Charge       = 0
  Multiplicity = 1
  Basis Set: 6-31G*
  Basis Set:

    Orbital Energies (a.u.)
    -----------------------

    Doubly Occupied:

       1A    -20.563983     2A    -11.328333     3A    -11.236453
       4A    -11.223101     5A    -11.214972     6A    -11.213750
       7A    -11.212697     8A    -11.211903     9A    -11.207168
      10A     -1.404798    11A     -1.095678    12A     -1.064100
      13A     -1.009689    14A     -0.940984    15A     -0.875556
      16A     -0.818434    17A     -0.777145    18A     -0.763681
      19A     -0.687221    20A     -0.645952    21A     -0.629121
      22A     -0.626633    23A     -0.604135    24A     -0.589908
      25A     -0.565195    26A     -0.545105    27A     -0.531142
      28A     -0.520892    29A     -0.500411    30A     -0.495460
      31A     -0.483464    32A     -0.471682    33A     -0.458915
      34A     -0.453394    35A     -0.436065    36A     -0.410971

  @DF-RHF Final Energy:  -387.12204918733488

   => Energetics <=

    Nuclear Repulsion Energy =            444.3263946514105669
    One-Electron Energy =               -1405.2608609325288853
    Two-Electron Energy =                 573.8124170937838926
    DFT Exchange-Correlation Energy =       0.0000000000000000
    Empirical Dispersion Energy =           0.0000000000000000
    PCM Polarization Energy =               0.0000000000000000
    EFP Energy =                            0.0000000000000000
    Total Energy =                       -387.1220491873344827

  Mulliken Charges: (a.u.)
   Center  Symbol    Alpha    Beta     Spin     Total
       1     H     0.42765  0.42765  0.00000  0.14470
       2     C     2.83780  2.83780  0.00000  0.32441
       3     C     3.21144  3.21144  0.00000 -0.42289
       4     O     4.23826  4.23826  0.00000 -0.47652
       5     C     3.15375  3.15375  0.00000 -0.30750
       6     H     0.41174  0.41174  0.00000  0.17651
       7     H     0.40038  0.40038  0.00000  0.19923
       8     C     3.15775  3.15775  0.00000 -0.31551
       9     H     0.41940  0.41940  0.00000  0.16119
      10     H     0.40659  0.40659  0.00000  0.18682
      11     C     3.15428  3.15428  0.00000 -0.30855
      12     H     0.42678  0.42678  0.00000  0.14643
      13     H     0.41214  0.41214  0.00000  0.17572
      14     C     3.15294  3.15294  0.00000 -0.30587
      15     H     0.42283  0.42283  0.00000  0.15433
      16     H     0.42061  0.42061  0.00000  0.15877
      17     C     3.15252  3.15252  0.00000 -0.30504
      18     H     0.42531  0.42531  0.00000  0.14938
      19     H     0.42065  0.42065  0.00000  0.15869
      20     C     3.24109  3.24109  0.00000 -0.48218
      21     H     0.42113  0.42113  0.00000  0.15773
      22     H     0.42246  0.42246  0.00000  0.15508
      23     H     0.42287  0.42287  0.00000  0.15425
      24     H     0.42026  0.42026  0.00000  0.15949
      25     H     0.41934  0.41934  0.00000  0.16132

   Total alpha = 36.00000, Total beta = 36.00000, Total charge = -0.00000
