  ==> Input File <==

--------------------------------------------------------------------------
set {
	reference rhf
	basis cc-pvtz
}

set_num_threads( 4 )
memory 2 gb

molecule MOL {
0 1

H	 -3.268214	 -0.875720	 0.463107
C	 -2.806015	 0.000007	 0.024886
N	 -1.391133	 0.000016	 0.301321
H	 -3.029448	 0.000055	 -1.045738
H	 -3.268126	 0.875758	 0.463150
C	 -0.938667	 -1.257443	 0.855982
C	 -0.995209	 1.106908	 1.144864
H	 -1.422890	 -1.467933	 1.814142
H	 -1.202523	 -2.056798	 0.173709
C	 0.565436	 -1.245810	 1.054855
H	 -1.300334	 2.033622	 0.673493
H	 -1.483282	 1.057592	 2.122719
C	 0.508894	 1.118541	 1.343738
H	 0.870561	 -2.172524	 1.526227
H	 1.053509	 -1.196494	 0.077000
N	 0.961360	 -0.138918	 1.898398
H	 0.772750	 1.917896	 2.026011
H	 0.993117	 1.329031	 0.385577
C	 2.376242	 -0.138909	 2.174833
H	 2.661033	 -1.072013	 2.644700
H	 2.619417	 0.666041	 2.857096
H	 2.984729	 -0.014320	 1.274623

	symmetry c1
}
set optking {
	frozen_dihedral = ("
		6 3 2 4
	")
}

ee = optimize('scf')
oeprop('DIPOLE', 'QUADRUPOLE', 'MULLIKEN_CHARGES')
f=open( 'psi4out.xyz', 'w' )
f.write( "22  " )
f.write( str(ee) + "\n" )
f.write( MOL.save_string_xyz() )
f.close()
--------------------------------------------------------------------------

    Molecular point group: c1
  Charge       = 0
  Multiplicity = 1
  Basis Set: CC-PVTZ
  Basis Set:
  @DF-RHF Final Energy:  -344.34403847937239
    Total Energy =                       -344.3440384793721023
    Molecular point group: c1
  Basis Set: CC-PVTZ
  Basis Set:
  Basis Set: CC-PVTZ
  Basis Set:
  @DF-RHF Final Energy:  -344.34459779670283
    Total Energy =                       -344.3445977967026010
  Basis Set: CC-PVTZ
  Basis Set:
  Basis Set: CC-PVTZ
  Basis Set:
  @DF-RHF Final Energy:  -344.34471375448021
    Total Energy =                       -344.3447137544799261
  Basis Set: CC-PVTZ
  Basis Set:
  Charge       = 0
  Multiplicity = 1
  Basis Set: CC-PVTZ
  Basis Set:

    Orbital Energies (a.u.)
    -----------------------

    Doubly Occupied:

       1A    -15.537045     2A    -15.534711     3A    -11.237269
       4A    -11.237216     5A    -11.236297     6A    -11.236283
       7A    -11.233953     8A    -11.233874     9A     -1.255113
      10A     -1.203325    11A     -1.025311    12A     -0.991781
      13A     -0.912630    14A     -0.867362    15A     -0.836690
      16A     -0.754903    17A     -0.665893    18A     -0.635900
      19A     -0.631476    20A     -0.624640    21A     -0.620875
      22A     -0.580660    23A     -0.551366    24A     -0.550344
      25A     -0.542134    26A     -0.520032    27A     -0.498116
      28A     -0.487448    29A     -0.465413    30A     -0.456246
      31A     -0.350983    32A     -0.343547

  @DF-RHF Final Energy:  -344.34471544959104

   => Energetics <=

    Nuclear Repulsion Energy =            421.4233117247563314
    One-Electron Energy =               -1301.8183870252491943
    Two-Electron Energy =                 536.0503598509020549
    DFT Exchange-Correlation Energy =       0.0000000000000000
    Empirical Dispersion Energy =           0.0000000000000000
    PCM Polarization Energy =               0.0000000000000000
    EFP Energy =                            0.0000000000000000
    Total Energy =                       -344.3447154495908080
    Molecular point group: c1
  Basis Set: CC-PVTZ
  Basis Set:

  -Total Gradient:
     Atom            X                  Y                   Z
    ------   -----------------  -----------------  -----------------
       1       -0.000010927682    -0.000002173707     0.000000069400
       2       -0.000094687082    -0.002028112256     0.000414108628
       3        0.000228950496    -0.000131719143    -0.001711500650
       4       -0.000043605150     0.001715004202     0.000016135668
       5       -0.000005924145    -0.000000705743    -0.000012891010
       6       -0.000220025149     0.000407457884     0.001246538200
       7        0.000087961030     0.000023597369     0.000045485971
       8       -0.000000163339     0.000023052036    -0.000030468014
       9       -0.000006990401     0.000019374814    -0.000003178185
      10        0.000022725817    -0.000006895697    -0.000005844536
      11       -0.000002535759    -0.000020023565    -0.000005335741
      12        0.000012036997    -0.000014240815    -0.000037859957
      13        0.000010607073     0.000024820836     0.000028245957
      14        0.000039727747    -0.000006536284     0.000018525605
      15       -0.000006380708    -0.000000737599     0.000010196458
      16       -0.000009810702    -0.000003400852     0.000020319364
      17        0.000052228580     0.000009039419     0.000023692411
      18       -0.000018388814    -0.000007214714     0.000013599406
      19       -0.000004323218     0.000000713402    -0.000025206938
      20       -0.000012691843    -0.000002743268    -0.000002124802
      21       -0.000015300242     0.000001407346    -0.000003136666
      22       -0.000002483511     0.000000036337     0.000000629430

  **** Optimization is complete! (in 4 steps) ****
    Final optimized geometry and variables:
    Molecular point group: c1

    Geometry (in Angstrom), charge = 0, multiplicity = 1:

    H           -3.110020606113    -0.803655722482    -0.694399170697
    C           -2.603049757586     0.067028436853    -1.099069780245
    N           -1.185507623206     0.067748922147    -0.777557147775
    H           -2.761800038744     0.084870360146    -2.171950500133
    H           -3.095712678274     0.940273295500    -0.686865830153
    C           -0.723967676485    -1.189239212340    -0.229516463555
    C           -0.780717249444     1.176821813967     0.059830206838
    H           -1.198637072697    -1.404908872607     0.732112274739
    H           -0.988941386572    -1.988837887938    -0.911247846675
    C            0.781860428665    -1.175778103876    -0.044823228148
    H           -1.083938895265     2.103270140246    -0.412552629983
    H           -1.257856923471     1.135142566965     1.043364758191
    C            0.725474528509     1.187510654871     0.243382364311
    H            1.092574506987    -2.102391020815     0.423575726893
    H            1.260376109950    -1.125813844887    -1.027478977635
    N            1.184583930882    -0.068684679636     0.794758722184
    H            0.996787469245     1.988217995617     0.921483850769
    H            1.199018302900     1.396415806182    -0.720592911285
    C            2.601783250193    -0.066902137711     1.057709104895
    H            2.892160359791    -0.999645261777     1.525026115847
    H            2.850564860942     0.738552582671     1.737456200262
    H            3.201786714514     0.058162143657     0.151754286324

  Mulliken Charges: (a.u.)
   Center  Symbol    Alpha    Beta     Spin     Total
       1     H     0.46198  0.46198  0.00000  0.07603
       2     C     3.09219  3.09219  0.00000 -0.18437
       3     N     3.61611  3.61611  0.00000 -0.23222
       4     H     0.44990  0.44990  0.00000  0.10021
       5     H     0.46003  0.46003  0.00000  0.07994
       6     C     3.03612  3.03612  0.00000 -0.07224
       7     C     3.03570  3.03570  0.00000 -0.07140
       8     H     0.46804  0.46804  0.00000  0.06391
       9     H     0.45321  0.45321  0.00000  0.09358
      10     C     3.03732  3.03732  0.00000 -0.07464
      11     H     0.45342  0.45342  0.00000  0.09315
      12     H     0.46815  0.46815  0.00000  0.06371
      13     C     3.03711  3.03711  0.00000 -0.07421
      14     H     0.45410  0.45410  0.00000  0.09180
      15     H     0.46859  0.46859  0.00000  0.06283
      16     N     3.61285  3.61285  0.00000 -0.22570
      17     H     0.45408  0.45408  0.00000  0.09184
      18     H     0.46865  0.46865  0.00000  0.06270
      19     C     3.09832  3.09832  0.00000 -0.19664
      20     H     0.45200  0.45200  0.00000  0.09601
      21     H     0.45201  0.45201  0.00000  0.09599
      22     H     0.47013  0.47013  0.00000  0.05973

   Total alpha = 32.00000, Total beta = 32.00000, Total charge = -0.00000
