  ==> Input File <==

--------------------------------------------------------------------------
set {
	reference rhf
	basis cc-pvtz
}

set_num_threads( 4 )
memory 2 gb

molecule MOL {
0 1

O	 -2.071633	 -1.227563	 -0.223463
C	 -1.652164	 -0.152425	 0.058082
C	 -0.327811	 0.006324	 0.778296
C	 -2.402515	 1.108629	 -0.298924
C	 0.843231	 -0.001575	 -0.211665
H	 -0.319484	 0.928173	 1.350354
H	 -0.227804	 -0.823091	 1.466705
C	 2.197693	 0.138030	 0.476937
H	 0.722944	 0.805202	 -0.930230
H	 0.813976	 -0.926978	 -0.776588
C	 3.347941	 0.318947	 -0.507625
H	 2.169765	 0.983150	 1.159224
H	 2.379465	 -0.741794	 1.087190
H	 3.212197	 1.211417	 -1.109376
H	 3.420739	 -0.526476	 -1.183147
H	 4.295174	 0.410963	 0.010722
H	 -3.240910	 0.874416	 -0.936711
H	 -1.747554	 1.818823	 -0.790984
H	 -2.760419	 1.579708	 0.610998

	symmetry c1
}
set optking {
	frozen_dihedral = ("
		11 8 5 9
	")
}

ee = optimize('scf')
oeprop('DIPOLE', 'QUADRUPOLE', 'MULLIKEN_CHARGES')
f=open( 'psi4out.xyz', 'w' )
f.write( "19  " )
f.write( str(ee) + "\n" )
f.write( MOL.save_string_xyz() )
f.close()
--------------------------------------------------------------------------

    Molecular point group: c1
  Charge       = 0
  Multiplicity = 1
  Basis Set: CC-PVTZ
  Basis Set:
  @DF-RHF Final Energy:  -309.17709710787574
    Total Energy =                       -309.1770971078752837
    Molecular point group: c1
  Basis Set: CC-PVTZ
  Basis Set:
  Basis Set: CC-PVTZ
  Basis Set:
  @DF-RHF Final Energy:  -309.17705374751517
    Total Energy =                       -309.1770537475149467
  Basis Set: CC-PVTZ
  Basis Set:
  Basis Set: CC-PVTZ
  Basis Set:
  @DF-RHF Final Energy:  -309.17711962011714
    Total Energy =                       -309.1771196201174234
  Basis Set: CC-PVTZ
  Basis Set:
  Basis Set: CC-PVTZ
  Basis Set:
  @DF-RHF Final Energy:  -309.17711557500394
    Total Energy =                       -309.1771155750041089
  Basis Set: CC-PVTZ
  Basis Set:
  Basis Set: CC-PVTZ
  Basis Set:
  @DF-RHF Final Energy:  -309.17709808172384
    Total Energy =                       -309.1770980817241821
  Basis Set: CC-PVTZ
  Basis Set:
  Basis Set: CC-PVTZ
  Basis Set:
  @DF-RHF Final Energy:  -309.17713242099308
    Total Energy =                       -309.1771324209931322
  Basis Set: CC-PVTZ
  Basis Set:
  Charge       = 0
  Multiplicity = 1
  Basis Set: CC-PVTZ
  Basis Set:

    Orbital Energies (a.u.)
    -----------------------

    Doubly Occupied:

       1A    -20.536986     2A    -11.319543     3A    -11.228761
       4A    -11.227985     5A    -11.227043     6A    -11.223020
       7A    -11.213393     8A     -1.397130     9A     -1.092890
      10A     -1.030614    11A     -0.984795    12A     -0.891053
      13A     -0.807509    14A     -0.734727    15A     -0.665170
      16A     -0.647442    17A     -0.625470    18A     -0.615240
      19A     -0.583467    20A     -0.573790    21A     -0.555208
      22A     -0.537765    23A     -0.512672    24A     -0.503069
      25A     -0.483226    26A     -0.475677    27A     -0.470650
      28A     -0.399294

  @DF-RHF Final Energy:  -309.17713259868719

   => Energetics <=

    Nuclear Repulsion Energy =            301.8517423733600253
    One-Electron Energy =               -1016.9305737599781878
    Two-Electron Energy =                 405.9016987879311387
    DFT Exchange-Correlation Energy =       0.0000000000000000
    Empirical Dispersion Energy =           0.0000000000000000
    PCM Polarization Energy =               0.0000000000000000
    EFP Energy =                            0.0000000000000000
    Total Energy =                       -309.1771325986870238
    Molecular point group: c1
  Basis Set: CC-PVTZ
  Basis Set:

  -Total Gradient:
     Atom            X                  Y                   Z
    ------   -----------------  -----------------  -----------------
       1        0.000004289506    -0.000002098671    -0.000001026164
       2        0.000000065200     0.000004797141    -0.000011204176
       3       -0.000002563407     0.000008243733     0.000006858424
       4       -0.000008164141    -0.000005624264     0.000010489667
       5       -0.000885919864     0.001617215777     0.001470979168
       6        0.000001092039    -0.000001159523     0.000000797224
       7        0.000001207991     0.000000344228     0.000000466166
       8        0.000343822256    -0.001881238187    -0.000349970349
       9        0.000678987111    -0.000944612234    -0.001172891810
      10       -0.000002765520     0.000001088404    -0.000004036128
      11       -0.000136610076     0.001198038482     0.000052023326
      12        0.000001730892     0.000002479866     0.000000096750
      13       -0.000000821305     0.000000136195     0.000000195271
      14        0.000001125953     0.000001575412     0.000001315152
      15       -0.000001145303     0.000000790147    -0.000001636167
      16       -0.000001738296    -0.000002290057     0.000001665230
      17        0.000001191354    -0.000000206182    -0.000000459896
      18        0.000003881610    -0.000000461348    -0.000002039970
      19        0.000002333999     0.000002981077    -0.000001621719

  **** Optimization is complete! (in 7 steps) ****
    Final optimized geometry and variables:
    Molecular point group: c1

    Geometry (in Angstrom), charge = 0, multiplicity = 1:

    O           -2.062581284475    -1.263758462039    -0.217904349015
    C           -1.649561967314    -0.185091933552     0.059593250864
    C           -0.326186883136    -0.015268366554     0.779087859047
    C           -2.407675512965     1.070051020587    -0.301798620427
    C            0.844425944241    -0.012817766391    -0.210415775590
    H           -0.325523958375     0.906311298309     1.351487081901
    H           -0.218677372402    -0.844151357602     1.467156013336
    C            2.201924629226     0.108080257757     0.477077082592
    H            0.730707838995     0.797499179133    -0.925928837930
    H            0.812329918057    -0.931168567396    -0.787240433022
    C            3.353051372544     0.279593841299    -0.508103133664
    H            2.187091925315     0.956117183930     1.156460902064
    H            2.371367362162    -0.771590610449     1.090568889887
    H            3.232665673804     1.183991394727    -1.094807604290
    H            3.408001413258    -0.556178612157    -1.197554580412
    H            4.303351074798     0.344453186209     0.008716151281
    H           -3.243982780661     0.828462307538    -0.939569833207
    H           -1.756975575630     1.783156836372    -0.795235711557
    H           -2.769593462463     1.541253090252     0.606486751696

  Mulliken Charges: (a.u.)
   Center  Symbol    Alpha    Beta     Spin     Total
       1     O     4.17762  4.17762  0.00000 -0.35523
       2     C     2.85815  2.85815  0.00000  0.28370
       3     C     3.09746  3.09746  0.00000 -0.19493
       4     C     3.15530  3.15530  0.00000 -0.31060
       5     C     3.09792  3.09792  0.00000 -0.19584
       6     H     0.44933  0.44933  0.00000  0.10133
       7     H     0.43930  0.43930  0.00000  0.12140
       8     C     3.08540  3.08540  0.00000 -0.17080
       9     H     0.45333  0.45333  0.00000  0.09333
      10     H     0.44100  0.44100  0.00000  0.11800
      11     C     3.14939  3.14939  0.00000 -0.29877
      12     H     0.45503  0.45503  0.00000  0.08995
      13     H     0.45013  0.45013  0.00000  0.09973
      14     H     0.45525  0.45525  0.00000  0.08951
      15     H     0.45292  0.45292  0.00000  0.09416
      16     H     0.44729  0.44729  0.00000  0.10543
      17     H     0.43600  0.43600  0.00000  0.12800
      18     H     0.45082  0.45082  0.00000  0.09836
      19     H     0.44836  0.44836  0.00000  0.10328

   Total alpha = 28.00000, Total beta = 28.00000, Total charge =  0.00000
