  ==> Input File <==

--------------------------------------------------------------------------
set {
	reference rhf
	basis cc-pvtz
}

set_num_threads( 4 )
memory 2 gb

molecule MOL {
0 1

H	 -2.411625	 -0.864060	 -0.660017
O	 -2.346257	 -0.289210	 0.080372
C	 -1.183935	 0.486039	 -0.009831
C	 0.062853	 -0.375310	 0.027457
H	 -1.178881	 1.094526	 -0.908634
H	 -1.184406	 1.155156	 0.838676
O	 1.172093	 0.457955	 -0.054438
H	 0.052476	 -1.081302	 -0.804627
H	 0.076323	 -0.955658	 0.947560
C	 2.395478	 -0.199028	 -0.000366
H	 2.505946	 -0.901710	 -0.823354
H	 3.174616	 0.545641	 -0.071768
H	 2.513730	 -0.742241	 0.934223

	symmetry c1
}
set optking {
	frozen_dihedral = ("
		1 2 3 5
	")
}

ee = optimize('scf')
oeprop('DIPOLE', 'QUADRUPOLE', 'MULLIKEN_CHARGES')
f=open( 'psi4out.xyz', 'w' )
f.write( "13  " )
f.write( str(ee) + "\n" )
f.write( MOL.save_string_xyz() )
f.close()
--------------------------------------------------------------------------

    Molecular point group: c1
  Charge       = 0
  Multiplicity = 1
  Basis Set: CC-PVTZ
  Basis Set:
  @DF-RHF Final Energy:  -268.06216332835209
    Total Energy =                       -268.0621633283520282
    Molecular point group: c1
  Basis Set: CC-PVTZ
  Basis Set:
  Basis Set: CC-PVTZ
  Basis Set:
  @DF-RHF Final Energy:  -268.06217138183138
    Total Energy =                       -268.0621713818314333
  Basis Set: CC-PVTZ
  Basis Set:
  Charge       = 0
  Multiplicity = 1
  Basis Set: CC-PVTZ
  Basis Set:

    Orbital Energies (a.u.)
    -----------------------

    Doubly Occupied:

       1A    -20.557165     2A    -20.552918     3A    -11.271080
       4A    -11.268628     5A    -11.267400     6A     -1.393201
       7A     -1.369366     8A     -1.020290     9A     -0.914566
      10A     -0.845049    11A     -0.710061    12A     -0.677277
      13A     -0.665927    14A     -0.637907    15A     -0.597719
      16A     -0.575129    17A     -0.546548    18A     -0.493694
      19A     -0.481155    20A     -0.442469    21A     -0.425909

  @DF-RHF Final Energy:  -268.06217338436716

   => Energetics <=

    Nuclear Repulsion Energy =            190.5491458113341707
    One-Electron Energy =                -743.7957199135804558
    Two-Electron Energy =                 285.1844007178792140
    DFT Exchange-Correlation Energy =       0.0000000000000000
    Empirical Dispersion Energy =           0.0000000000000000
    PCM Polarization Energy =               0.0000000000000000
    EFP Energy =                            0.0000000000000000
    Total Energy =                       -268.0621733843670995
    Molecular point group: c1
  Basis Set: CC-PVTZ
  Basis Set:

  -Total Gradient:
     Atom            X                  Y                   Z
    ------   -----------------  -----------------  -----------------
       1        0.000443113610    -0.000671599824     0.000426810837
       2       -0.000691996011     0.000967593011    -0.000451013320
       3        0.000651639728    -0.000858236286    -0.000358614636
       4        0.000012474262    -0.000059880192    -0.000013019257
       5       -0.000389527153     0.000568355896     0.000412168671
       6       -0.000008629217     0.000001716359    -0.000009634164
       7        0.000028192762     0.000022852091     0.000005307914
       8        0.000001463788    -0.000004276131    -0.000016744250
       9       -0.000006294466     0.000039784791     0.000002574656
      10       -0.000042386159    -0.000005481818     0.000003723624
      11        0.000001764354    -0.000001540511    -0.000003566203
      12       -0.000005905774     0.000004022223    -0.000000838739
      13        0.000006090275    -0.000003309608     0.000002844869

  **** Optimization is complete! (in 3 steps) ****
    Final optimized geometry and variables:
    Molecular point group: c1

    Geometry (in Angstrom), charge = 0, multiplicity = 1:

    H           -2.418764576417    -0.856408889719    -0.666150081601
    O           -2.349604577306    -0.285642143041     0.077613709878
    C           -1.184651775695     0.485170020083    -0.010489840858
    C            0.063064387410    -0.374326486275     0.029270879574
    H           -1.179958966963     1.098235548117    -0.906424681234
    H           -1.188189517417     1.152305249727     0.839526330403
    O            1.171159177403     0.459219541269    -0.055968432465
    H            0.053974621396    -1.082855177720    -0.801369202988
    H            0.078028516812    -0.952103136209     0.951066564750
    C            2.395157127981    -0.196805964986    -0.001612827749
    H            2.505356716276    -0.901136501405    -0.823217067641
    H            3.173395806307     0.548466848786    -0.075472349165
    H            2.514764365917    -0.737763272199     0.934095280550

  Mulliken Charges: (a.u.)
   Center  Symbol    Alpha    Beta     Spin     Total
       1     H     0.39453  0.39453  0.00000  0.21093
       2     O     4.20157  4.20157  0.00000 -0.40314
       3     C     2.97028  2.97028  0.00000  0.05944
       4     C     2.96768  2.96768  0.00000  0.06463
       5     H     0.46735  0.46735  0.00000  0.06531
       6     H     0.45321  0.45321  0.00000  0.09357
       7     O     4.17478  4.17478  0.00000 -0.34955
       8     H     0.48285  0.48285  0.00000  0.03430
       9     H     0.46907  0.46907  0.00000  0.06185
      10     C     3.03200  3.03200  0.00000 -0.06399
      11     H     0.47120  0.47120  0.00000  0.05761
      12     H     0.44568  0.44568  0.00000  0.10864
      13     H     0.46980  0.46980  0.00000  0.06040

   Total alpha = 21.00000, Total beta = 21.00000, Total charge =  0.00000
