                              Psi4 1.0.54 Driver

  ==> Input File <==

--------------------------------------------------------------------------
set {
	reference rhf
	basis cc-pvtz
}

set_num_threads( 4 )
memory 2 gb

molecule MOL {
0 1

H	 -2.498963	 -0.741158	 -0.729149
O	 -2.346257	 -0.289210	 0.080372
C	 -1.183935	 0.486039	 -0.009831
C	 0.062853	 -0.375310	 0.027457
H	 -1.178881	 1.094526	 -0.908634
H	 -1.184406	 1.155156	 0.838676
O	 0.824168	 -0.090919	 -1.099917
H	 -0.214304	 -1.430653	 0.045650
H	 0.620300	 -0.168650	 0.938565
C	 2.021440	 -0.791610	 -1.182345
H	 1.851851	 -1.865538	 -1.216886
H	 2.520374	 -0.488785	 -2.091217
H	 2.669034	 -0.572459	 -0.336701

	symmetry c1
}
set optking {
	frozen_dihedral = ("
		8 4 3 5
	")
}

ee,wfn = optimize('scf', return_wfn=True)
oeprop( wfn, 'DIPOLE', 'QUADRUPOLE', 'MULLIKEN_CHARGES')
f=open( 'psi4out.xyz', 'w' )
f.write( "13  " )
f.write( str(ee) + "\n" )
f.write( MOL.save_string_xyz() )
f.close()
--------------------------------------------------------------------------

    Molecular point group: c1
  Charge       = 0
  Multiplicity = 1
  Basis Set: CC-PVTZ
  Basis Set:
  @DF-RHF Final Energy:  -268.05646621102659
    Total Energy =                       -268.0564662110266454
    Molecular point group: c1
  Basis Set: CC-PVTZ
  Basis Set:
  Basis Set: CC-PVTZ
  Basis Set:
  @DF-RHF Final Energy:  -268.05702412711503
    Total Energy =                       -268.0570241271148575
  Basis Set: CC-PVTZ
  Basis Set:
  Basis Set: CC-PVTZ
  Basis Set:
  @DF-RHF Final Energy:  -268.05723318981637
    Total Energy =                       -268.0572331898161451
  Basis Set: CC-PVTZ
  Basis Set:
  Basis Set: CC-PVTZ
  Basis Set:
  @DF-RHF Final Energy:  -268.05723639267853
    Total Energy =                       -268.0572363926784192
  Basis Set: CC-PVTZ
  Basis Set:
  Charge       = 0
  Multiplicity = 1
  Basis Set: CC-PVTZ
  Basis Set:

    Orbital Energies (a.u.)
    -----------------------

    Doubly Occupied:

       1A    -20.555924     2A    -20.549543     3A    -11.269648
       4A    -11.267719     5A    -11.267710     6A     -1.390969
       7A     -1.365878     8A     -1.016704     9A     -0.915477
      10A     -0.842757    11A     -0.707337    12A     -0.680991
      13A     -0.659043    14A     -0.631518    15A     -0.609185
      16A     -0.566408    17A     -0.538702    18A     -0.493785
      19A     -0.486164    20A     -0.440725    21A     -0.422193

  @DF-RHF Final Energy:  -268.05723677823380

   => Energetics <=

    Nuclear Repulsion Energy =            190.6046535699857714
    One-Electron Energy =                -743.9670244306523728
    Two-Electron Energy =                 285.3051340824328008
    DFT Exchange-Correlation Energy =       0.0000000000000000
    Empirical Dispersion Energy =           0.0000000000000000
    PCM Polarization Energy =               0.0000000000000000
    EFP Energy =                            0.0000000000000000
    Total Energy =                       -268.0572367782338006
    Molecular point group: c1
  Basis Set: CC-PVTZ
  Basis Set:

  -Total Gradient:
     Atom            X                  Y                   Z
    ------   -----------------  -----------------  -----------------
       1       -0.000007906034     0.000008584267     0.000018634988
       2        0.000018855959    -0.000022239426    -0.000032823362
       3        0.000156276446     0.000274164232     0.000126510527
       4       -0.000028560025    -0.000010578378     0.000270662204
       5       -0.000144643641    -0.000211877379    -0.000139143945
       6        0.000011177167     0.000002240698    -0.000003251952
       7       -0.000041022855    -0.000015753426     0.000065245760
       8        0.000005427069    -0.000014181791    -0.000287081219
       9       -0.000002591097    -0.000000084528    -0.000001271382
      10        0.000026854803    -0.000009823518    -0.000016053028
      11        0.000001888819     0.000001965635    -0.000002122958
      12        0.000002973994    -0.000003450010     0.000001627260
      13        0.000001269399     0.000001033623    -0.000000932893

  **** Optimization is complete! (in 5 steps) ****
    Final optimized geometry and variables:
    Molecular point group: c1

    Geometry (in Angstrom), charge = 0, multiplicity = 1:

    H           -2.371010513015    -0.485082369041    -0.280689374483
    O           -2.233892647766    -0.003292814310     0.514745072727
    C           -1.042756408651     0.730089068172     0.428540498027
    C            0.211038271484    -0.147965685751     0.468411160448
    H           -1.011377010791     1.319692817053    -0.480135843699
    H           -1.056268607550     1.411247484742     1.266816965973
    O            0.987948432173     0.107116016011    -0.661834002495
    H           -0.089393935022    -1.193034697460     0.493873400514
    H            0.793055417068     0.045468582881     1.366942237616
    C            2.176166881185    -0.611093164991    -0.713738023713
    H            1.993615652818    -1.683527058619    -0.720848445358
    H            2.688148472280    -0.339074133176    -1.625220028458
    H            2.819148516082    -0.378501941946     0.132175781507

  Mulliken Charges: (a.u.)
   Center  Symbol    Alpha    Beta     Spin     Total
       1     H     0.39265  0.39265  0.00000  0.21471
       2     O     4.20319  4.20319  0.00000 -0.40637
       3     C     2.97085  2.97085  0.00000  0.05830
       4     C     2.97638  2.97638  0.00000  0.04724
       5     H     0.46202  0.46202  0.00000  0.07596
       6     H     0.45687  0.45687  0.00000  0.08627
       7     O     4.17427  4.17427  0.00000 -0.34855
       8     H     0.47204  0.47204  0.00000  0.05591
       9     H     0.47409  0.47409  0.00000  0.05181
      10     C     3.02886  3.02886  0.00000 -0.05771
      11     H     0.47165  0.47165  0.00000  0.05670
      12     H     0.44641  0.44641  0.00000  0.10719
      13     H     0.47072  0.47072  0.00000  0.05856

   Total alpha = 21.00000, Total beta = 21.00000, Total charge = -0.00000

*** Psi4 exiting successfully. Buy a developer a beer!
