                              Psi4 1.0.54 Driver

  ==> Input File <==

--------------------------------------------------------------------------
set {
	reference rhf
	basis cc-pvtz
}

set_num_threads( 4 )
memory 2 gb

molecule MOL {
0 1

H	 -2.442545	 1.101257	 1.522743
C	 -1.776127	 1.538596	 2.262679
O	 -0.455298	 1.177214	 2.033871
H	 -1.840853	 2.614802	 2.195749
H	 -2.109957	 1.229290	 3.251503
C	 -0.215249	 -0.190205	 2.098510
C	 1.220006	 -0.474266	 1.732865
H	 -0.402090	 -0.558854	 3.107053
H	 -0.870963	 -0.728744	 1.417743
O	 1.401606	 -0.295166	 0.366636
H	 1.870996	 0.189285	 2.297968
H	 1.459534	 -1.499684	 2.014141
C	 2.714315	 -0.441627	 -0.061017
H	 2.765292	 -0.641548	 -1.128869
H	 3.305661	 0.447341	 0.150952
H	 3.143725	 -1.278506	 0.470147

	symmetry c1
}
set optking {
	frozen_dihedral = ("
		7 10 13 14
	")
}

ee,wfn = optimize('scf', return_wfn=True)
oeprop( wfn, 'DIPOLE', 'QUADRUPOLE', 'MULLIKEN_CHARGES')
f=open( 'psi4out.xyz', 'w' )
f.write( "16  " )
f.write( str(ee) + "\n" )
f.write( MOL.save_string_xyz() )
f.close()
--------------------------------------------------------------------------

    Molecular point group: c1
  Charge       = 0
  Multiplicity = 1
  Basis Set: CC-PVTZ
  Basis Set:
  @DF-RHF Final Energy:  -307.09606885870835
    Total Energy =                       -307.0960688587082359
    Molecular point group: c1
  Basis Set: CC-PVTZ
  Basis Set:
  Basis Set: CC-PVTZ
  Basis Set:
  @DF-RHF Final Energy:  -307.09687019090762
    Total Energy =                       -307.0968701909076799
  Basis Set: CC-PVTZ
  Basis Set:
  Basis Set: CC-PVTZ
  Basis Set:
  @DF-RHF Final Energy:  -307.09709158669870
    Total Energy =                       -307.0970915866989230
  Basis Set: CC-PVTZ
  Basis Set:
  Charge       = 0
  Multiplicity = 1
  Basis Set: CC-PVTZ
  Basis Set:

    Orbital Energies (a.u.)
    -----------------------

    Doubly Occupied:

       1A    -20.547782     2A    -20.546952     3A    -11.267578
       4A    -11.266850     5A    -11.261568     6A    -11.261462
       7A     -1.391251     8A     -1.373985     9A     -1.032002
      10A     -0.937177    11A     -0.892234    12A     -0.824366
      13A     -0.686222    14A     -0.682546    15A     -0.659146
      16A     -0.637377    17A     -0.632500    18A     -0.597791
      19A     -0.551244    20A     -0.538135    21A     -0.508767
      22A     -0.479620    23A     -0.464648    24A     -0.422534
      25A     -0.413278

  @DF-RHF Final Energy:  -307.09709252776372

   => Energetics <=

    Nuclear Repulsion Energy =            258.8553679956675069
    One-Electron Energy =                -932.1508931936598401
    Two-Electron Energy =                 366.1984326702286126
    DFT Exchange-Correlation Energy =       0.0000000000000000
    Empirical Dispersion Energy =           0.0000000000000000
    PCM Polarization Energy =               0.0000000000000000
    EFP Energy =                            0.0000000000000000
    Total Energy =                       -307.0970925277637207
    Molecular point group: c1
  Basis Set: CC-PVTZ
  Basis Set:

  -Total Gradient:
     Atom            X                  Y                   Z
    ------   -----------------  -----------------  -----------------
       1        0.000000492286    -0.000000437099    -0.000001615739
       2        0.000002234682    -0.000004019534     0.000005214514
       3        0.000004971161     0.000007157936     0.000022477322
       4        0.000003569851    -0.000002581425    -0.000000142293
       5       -0.000004245069     0.000001951777     0.000001850981
       6       -0.000015513673     0.000014012116    -0.000158085311
       7       -0.000165877072    -0.001894383568    -0.000206396697
       8        0.000059448466     0.000000438060    -0.000024814361
       9       -0.000037997541    -0.000023482361     0.000000388840
      10        0.000395416172     0.002123683628     0.000483384507
      11        0.000024095542     0.000003091987    -0.000007090497
      12       -0.000004885623    -0.000000225650    -0.000032597399
      13       -0.000093515236     0.002107302173    -0.000576116636
      14       -0.000131606306    -0.002346408280     0.000465675308
      15       -0.000016977659     0.000018553899     0.000006462314
      16       -0.000019609977    -0.000004653660     0.000021405144

  **** Optimization is complete! (in 4 steps) ****
    Final optimized geometry and variables:
    Molecular point group: c1

    Geometry (in Angstrom), charge = 0, multiplicity = 1:

    H           -2.930213909240     0.847651860846     0.147828096541
    C           -2.261643299597     1.294606881317     0.880015694323
    O           -0.939287774565     0.946034304209     0.640389315835
    H           -2.338106790559     2.369826229886     0.809801414384
    H           -2.583171783599     0.985550008612     1.872996630266
    C           -0.684465086242    -0.418563382862     0.707747370211
    C            0.749984598464    -0.689474082163     0.329767315966
    H           -0.857598498194    -0.785245511289     1.719470286461
    H           -1.340942011972    -0.966582163421     0.035293003183
    O            0.913973380477    -0.518447862040    -1.040021728083
    H            1.398196095934    -0.015462806460     0.885903892755
    H            1.003585720006    -1.710458266596     0.613010168465
    C            2.223530489373    -0.644349711658    -1.487839722730
    H            2.196037394897    -0.848163588822    -2.548827134942
    H            2.795217922898     0.262012585832    -1.307124580029
    H            2.732426758735    -1.474523925955    -1.002148437669

  Mulliken Charges: (a.u.)
   Center  Symbol    Alpha    Beta     Spin     Total
       1     H     0.47015  0.47015  0.00000  0.05970
       2     C     3.03200  3.03200  0.00000 -0.06400
       3     O     4.17056  4.17056  0.00000 -0.34113
       4     H     0.44636  0.44636  0.00000  0.10727
       5     H     0.47368  0.47368  0.00000  0.05264
       6     C     2.96117  2.96117  0.00000  0.07767
       7     C     2.96019  2.96019  0.00000  0.07962
       8     H     0.47608  0.47608  0.00000  0.04784
       9     H     0.47086  0.47086  0.00000  0.05828
      10     O     4.17174  4.17174  0.00000 -0.34348
      11     H     0.47148  0.47148  0.00000  0.05704
      12     H     0.47514  0.47514  0.00000  0.04973
      13     C     3.03082  3.03082  0.00000 -0.06164
      14     H     0.44885  0.44885  0.00000  0.10230
      15     H     0.46506  0.46506  0.00000  0.06989
      16     H     0.47586  0.47586  0.00000  0.04828

   Total alpha = 25.00000, Total beta = 25.00000, Total charge =  0.00000

*** Psi4 exiting successfully. Buy a developer a beer!
