                              Psi4 1.0.54 Driver

  ==> Input File <==

--------------------------------------------------------------------------
set {
	reference rhf
	basis cc-pvtz
}

set_num_threads( 4 )
memory 2 gb

molecule MOL {
0 1

H	 1.999790	 -0.596830	 -0.846534
O	 1.583947	 -0.677544	 -0.001533
C	 0.489979	 0.078084	 0.002623
C	 -0.763662	 -0.754014	 0.000816
O	 0.539051	 1.259395	 -0.000088
C	 -2.038001	 0.074705	 -0.000833
H	 -0.712945	 -1.405886	 -0.864342
H	 -0.715137	 -1.405770	 0.866182
H	 -2.087267	 0.710831	 -0.874232
H	 -2.903419	 -0.576199	 -0.001922
H	 -2.089467	 0.710909	 0.872389

	symmetry c1
}
set optking {
	frozen_dihedral = ("
		1 2 3 5
	")
}

ee,wfn = optimize('scf', return_wfn=True)
oeprop( wfn, 'DIPOLE', 'QUADRUPOLE', 'MULLIKEN_CHARGES')
f=open( 'psi4out.xyz', 'w' )
f.write( "11  " )
f.write( str(ee) + "\n" )
f.write( MOL.save_string_xyz() )
f.close()
--------------------------------------------------------------------------

    Molecular point group: c1
  Charge       = 0
  Multiplicity = 1
  Basis Set: CC-PVTZ
  Basis Set:
  @DF-RHF Final Energy:  -266.93509032231469
    Total Energy =                       -266.9350903223147498
    Molecular point group: c1
  Basis Set: CC-PVTZ
  Basis Set:
  Basis Set: CC-PVTZ
  Basis Set:
  @DF-RHF Final Energy:  -266.93360308059050
    Total Energy =                       -266.9336030805903874
  Basis Set: CC-PVTZ
  Basis Set:
  Basis Set: CC-PVTZ
  Basis Set:
  @DF-RHF Final Energy:  -266.93643635642604
    Total Energy =                       -266.9364363564260429
  Basis Set: CC-PVTZ
  Basis Set:
  Basis Set: CC-PVTZ
  Basis Set:
  @DF-RHF Final Energy:  -266.93670818473703
    Total Energy =                       -266.9367081847369150
  Basis Set: CC-PVTZ
  Basis Set:
  Basis Set: CC-PVTZ
  Basis Set:
  @DF-RHF Final Energy:  -266.93671413869504
    Total Energy =                       -266.9367141386950379
  Basis Set: CC-PVTZ
  Basis Set:
  Basis Set: CC-PVTZ
  Basis Set:
  @DF-RHF Final Energy:  -266.93671519415551
    Total Energy =                       -266.9367151941555107
  Basis Set: CC-PVTZ
  Basis Set:
  Basis Set: CC-PVTZ
  Basis Set:
  @DF-RHF Final Energy:  -266.93671520586980
    Total Energy =                       -266.9367152058699730
  Basis Set: CC-PVTZ
  Basis Set:
  Charge       = 0
  Multiplicity = 1
  Basis Set: CC-PVTZ
  Basis Set:

    Orbital Energies (a.u.)
    -----------------------

    Doubly Occupied:

       1A    -20.589273     2A    -20.550359     3A    -11.374996
       4A    -11.243492     5A    -11.219370     6A     -1.465887
       7A     -1.371300     8A     -1.065254     9A     -0.913408
      10A     -0.806476    11A     -0.712039    12A     -0.682321
      13A     -0.661306    14A     -0.613785    15A     -0.570969
      16A     -0.529017    17A     -0.525567    18A     -0.503920
      19A     -0.492972    20A     -0.449240

  @DF-RHF Final Energy:  -266.93671525991454

   => Energetics <=

    Nuclear Repulsion Energy =            179.4760391840056855
    One-Electron Energy =                -720.1436048342251297
    Two-Electron Energy =                 273.7308503903049086
    DFT Exchange-Correlation Energy =       0.0000000000000000
    Empirical Dispersion Energy =           0.0000000000000000
    PCM Polarization Energy =               0.0000000000000000
    EFP Energy =                            0.0000000000000000
    Total Energy =                       -266.9367152599145356
    Molecular point group: c1
  Basis Set: CC-PVTZ
  Basis Set:

  -Total Gradient:
     Atom            X                  Y                   Z
    ------   -----------------  -----------------  -----------------
       1       -0.004006187864    -0.006397457379    -0.003300630451
       2        0.004620860366     0.008070786770     0.007429902896
       3        0.000093930120    -0.001635198974    -0.011303968690
       4        0.000016132792    -0.000010880548    -0.000082672072
       5       -0.000744855687    -0.000025831979     0.007203662818
       6        0.000006724059     0.000001013043     0.000024179542
       7       -0.000000873718    -0.000006173813     0.000020243358
       8        0.000007558197     0.000001549302     0.000023753668
       9       -0.000002007904     0.000003875838    -0.000009328062
      10        0.000007345179    -0.000001755516    -0.000003893731
      11        0.000001374467     0.000000073260    -0.000001249275

  **** Optimization is complete! (in 7 steps) ****
    Final optimized geometry and variables:
    Molecular point group: c1

    Geometry (in Angstrom), charge = 0, multiplicity = 1:

    H            2.149556913045    -0.619393329162    -0.653654142298
    O            1.606221565700    -0.676086051046     0.115096082267
    C            0.491303501821     0.086304286984    -0.005991655384
    C           -0.766668821461    -0.738859534998    -0.034271560578
    O            0.535079215871     1.260777134791     0.003465264173
    C           -2.043170038861     0.085603796468    -0.044440361331
    H           -0.704597895698    -1.386373855518    -0.903593413168
    H           -0.724533228321    -1.400974869114     0.823915563289
    H           -2.083758733335     0.730874065593    -0.911898576663
    H           -2.907900189707    -0.566202311419    -0.062280229885
    H           -2.106360862453     0.713192306260     0.834407176601

  Mulliken Charges: (a.u.)
   Center  Symbol    Alpha    Beta     Spin     Total
       1     H     0.38391  0.38391  0.00000  0.23217
       2     O     4.17677  4.17677  0.00000 -0.35353
       3     C     2.80282  2.80282  0.00000  0.39435
       4     C     3.09980  3.09980  0.00000 -0.19961
       5     O     4.16613  4.16613  0.00000 -0.33226
       6     C     3.13967  3.13967  0.00000 -0.27934
       7     H     0.44700  0.44700  0.00000  0.10599
       8     H     0.43837  0.43837  0.00000  0.12326
       9     H     0.44885  0.44885  0.00000  0.10231
      10     H     0.44991  0.44991  0.00000  0.10019
      11     H     0.44677  0.44677  0.00000  0.10647

   Total alpha = 20.00000, Total beta = 20.00000, Total charge =  0.00000

*** Psi4 exiting successfully. Buy a developer a beer!
