                              Psi4 1.0.54 Driver

  ==> Input File <==

--------------------------------------------------------------------------
set {
	reference rhf
	basis cc-pvtz
}

set_num_threads( 4 )
memory 2 gb

molecule MOL {
0 1

H	 1.275720	 -0.071593	 -1.452010
C	 1.132430	 -0.094342	 -0.371407
O	 0.000159	 -0.871050	 -0.087739
C	 2.349980	 -0.715003	 0.275904
C	 0.769999	 1.316331	 0.116716
C	 -1.132405	 -0.095006	 -0.371740
H	 2.513472	 -1.716519	 -0.101612
H	 3.233192	 -0.122067	 0.065862
H	 2.218894	 -0.771352	 1.349980
H	 1.153243	 1.478814	 1.116217
H	 1.192966	 2.080939	 -0.521625
C	 -0.770554	 1.316587	 0.114666
H	 -1.276040	 -0.073560	 -1.452283
C	 -2.349613	 -0.715446	 0.276571
H	 -1.156496	 1.481634	 1.112700
H	 -1.191388	 2.079947	 -0.526591
H	 -2.512666	 -1.717563	 -0.099598
H	 -3.233143	 -0.123217	 0.065897
H	 -2.218326	 -0.770300	 1.350697

	symmetry c1
}
ee,wfn = energy('scf', return_wfn=True)
oeprop( wfn, 'DIPOLE', 'QUADRUPOLE', 'MULLIKEN_CHARGES')
oeprop( wfn, 'GRID_ESP')
f=open( 'psi4out.xyz', 'w' )
f.write( "19  " )
f.write( str(ee) + "\n" )
f.write( MOL.save_string_xyz() )
f.close()
--------------------------------------------------------------------------

    Molecular point group: c1

    Geometry (in Angstrom), charge = 0, multiplicity = 1:

       Center              X                  Y                   Z               Mass
    ------------   -----------------  -----------------  -----------------  -----------------
           H          1.275719892940    -0.071532841704    -1.452008785592     1.007825032070
           C          1.132429892940    -0.094281841704    -0.371405785592    12.000000000000
           O          0.000158892940    -0.870989841704    -0.087737785592    15.994914619560
           C          2.349979892940    -0.714942841704     0.275905214408    12.000000000000
           C          0.769998892940     1.316391158296     0.116717214408    12.000000000000
           C         -1.132405107060    -0.094945841704    -0.371738785592    12.000000000000
           H          2.513471892940    -1.716458841704    -0.101610785592     1.007825032070
           H          3.233191892940    -0.122006841704     0.065863214408     1.007825032070
           H          2.218893892940    -0.771291841704     1.349981214408     1.007825032070
           H          1.153242892940     1.478874158296     1.116218214408     1.007825032070
           H          1.192965892940     2.080999158296    -0.521623785592     1.007825032070
           C         -0.770554107060     1.316647158296     0.114667214408    12.000000000000
           H         -1.276040107060    -0.073499841704    -1.452281785592     1.007825032070
           C         -2.349613107060    -0.715385841704     0.276572214408    12.000000000000
           H         -1.156496107060     1.481694158296     1.112701214408     1.007825032070
           H         -1.191388107060     2.080007158296    -0.526589785592     1.007825032070
           H         -2.512666107060    -1.717502841704    -0.099596785592     1.007825032070
           H         -3.233143107060    -0.123156841704     0.065898214408     1.007825032070
           H         -2.218326107060    -0.770239841704     1.350698214408     1.007825032070

  Charge       = 0
  Multiplicity = 1
  Basis Set: CC-PVTZ
  Basis Set:

    Orbital Energies (a.u.)
    -----------------------

    Doubly Occupied:

       1A    -20.540806     2A    -11.267710     3A    -11.267684
       4A    -11.214815     5A    -11.214232     6A    -11.206295
       7A    -11.206286     8A     -1.386711     9A     -1.054790
      10A     -1.053266    11A     -0.966967    12A     -0.876152
      13A     -0.791962    14A     -0.791314    15A     -0.682795
      16A     -0.646590    17A     -0.630127    18A     -0.585731
      19A     -0.577340    20A     -0.557188    21A     -0.537565
      22A     -0.523469    23A     -0.504869    24A     -0.490363
      25A     -0.467700    26A     -0.454862    27A     -0.454349
      28A     -0.409113

  @DF-RHF Final Energy:  -309.16724408995395

   => Energetics <=

    Nuclear Repulsion Energy =            333.5135486559841524
    One-Electron Energy =               -1080.6395486965850523
    Two-Electron Energy =                 437.9587559506471734
    DFT Exchange-Correlation Energy =       0.0000000000000000
    Empirical Dispersion Energy =           0.0000000000000000
    PCM Polarization Energy =               0.0000000000000000
    EFP Energy =                            0.0000000000000000
    Total Energy =                       -309.1672440899537833

  Mulliken Charges: (a.u.)
   Center  Symbol    Alpha    Beta     Spin     Total
       1     H     0.46358  0.46358  0.00000  0.07285
       2     C     2.92891  2.92891  0.00000  0.14219
       3     O     4.19532  4.19532  0.00000 -0.39063
       4     C     3.14423  3.14423  0.00000 -0.28846
       5     C     3.11217  3.11217  0.00000 -0.22435
       6     C     2.92894  2.92894  0.00000  0.14213
       7     H     0.44656  0.44656  0.00000  0.10689
       8     H     0.45738  0.45738  0.00000  0.08524
       9     H     0.45456  0.45456  0.00000  0.09089
      10     H     0.45008  0.45008  0.00000  0.09984
      11     H     0.44484  0.44484  0.00000  0.11033
      12     C     3.11224  3.11224  0.00000 -0.22448
      13     H     0.46356  0.46356  0.00000  0.07288
      14     C     3.14424  3.14424  0.00000 -0.28848
      15     H     0.45005  0.45005  0.00000  0.09991
      16     H     0.44486  0.44486  0.00000  0.11029
      17     H     0.44656  0.44656  0.00000  0.10688
      18     H     0.45738  0.45738  0.00000  0.08525
      19     H     0.45457  0.45457  0.00000  0.09086

   Total alpha = 28.00000, Total beta = 28.00000, Total charge = -0.00000

*** Psi4 exiting successfully. Buy a developer a beer!
