  ==> Input File <==

--------------------------------------------------------------------------
set {
	reference rhf
	basis 6-31G*
}

set_num_threads( 1 )
memory 2 gb

molecule MOL {
0 1

O	 2.469018	 0.342683	 -1.177838
C	 2.701189	 0.057885	 -0.047330
C	 2.316051	 0.873853	 1.162898
O	 3.347903	 -1.046386	 0.304773
C	 1.557081	 2.150802	 0.808664
H	 1.739273	 0.225076	 1.813749
H	 3.231042	 1.100110	 1.704467
C	 1.250849	 3.042082	 2.017108
H	 0.633538	 1.889831	 0.300648
H	 2.144140	 2.714207	 0.091476
C	 0.272913	 2.441215	 3.030869
H	 0.837873	 3.978384	 1.648986
H	 2.180605	 3.300619	 2.521807
C	 -0.084812	 3.410746	 4.159161
H	 -0.636976	 2.139199	 2.514433
H	 0.692292	 1.536531	 3.465196
C	 -1.057413	 2.819198	 5.181046
H	 -0.517896	 4.314255	 3.733317
H	 0.825714	 3.721481	 4.669146
C	 -1.412497	 3.795055	 6.302349
H	 -1.967449	 2.507240	 4.672953
H	 -0.624414	 1.918396	 5.610985
H	 -2.102956	 3.347057	 7.010284
H	 -1.879949	 4.692675	 5.907430
H	 -0.526437	 4.099704	 6.852222
C	 4.728119	 -1.109107	 -0.004993
H	 4.882018	 -1.033965	 -1.071845
H	 5.068212	 -2.067527	 0.355250
H	 5.265056	 -0.311663	 0.488280

	symmetry c1
}
set optking {
	frozen_dihedral = ("
		21 17 14 11,
		17 14 11 15,
		15 11 8 5,
		6 3 5 9,
		11 8 5 9,
		2 4 26 27,
		6 3 2 1
	")
}

ee = energy('scf')
oeprop('DIPOLE', 'QUADRUPOLE', 'MULLIKEN_CHARGES')
f=open( 'psi4out.xyz', 'w' )
f.write( "29  " )
f.write( str(ee) + "\n" )
f.write( MOL.save_string_xyz() )
f.close()
--------------------------------------------------------------------------

    Molecular point group: c1

    Geometry (in Angstrom), charge = 0, multiplicity = 1:

       Center              X                  Y                   Z               Mass
    ------------   -----------------  -----------------  -----------------  -----------------
           O          0.978521763106    -1.155410857825    -3.138561938197    15.994914619560
           C          1.210692763106    -1.440208857825    -2.008053938197    12.000000000000
           C          0.825554763106    -0.624240857825    -0.797825938197    12.000000000000
           O          1.857406763106    -2.544479857825    -1.655950938197    15.994914619560
           C          0.066584763106     0.652708142175    -1.152059938197    12.000000000000
           H          0.248776763106    -1.273017857825    -0.146974938197     1.007825032070
           H          1.740545763106    -0.397983857825    -0.256256938197     1.007825032070
           C         -0.239647236894     1.543988142175     0.056384061803    12.000000000000
           H         -0.856958236894     0.391737142175    -1.660075938197     1.007825032070
           H          0.653643763106     1.216113142175    -1.869247938197     1.007825032070
           C         -1.217583236894     0.943121142175     1.070145061803    12.000000000000
           H         -0.652623236894     2.480290142175    -0.311737938197     1.007825032070
           H          0.690108763106     1.802525142175     0.561083061803     1.007825032070
           C         -1.575308236894     1.912652142175     2.198437061803    12.000000000000
           H         -2.127472236894     0.641105142175     0.553709061803     1.007825032070
           H         -0.798204236894     0.038437142175     1.504472061803     1.007825032070
           C         -2.547909236894     1.321104142175     3.220322061803    12.000000000000
           H         -2.008392236894     2.816161142175     1.772593061803     1.007825032070
           H         -0.664782236894     2.223387142175     2.708422061803     1.007825032070
           C         -2.902993236894     2.296961142175     4.341625061803    12.000000000000
           H         -3.457945236894     1.009146142175     2.712229061803     1.007825032070
           H         -2.114910236894     0.420302142175     3.650261061803     1.007825032070
           H         -3.593452236894     1.848963142175     5.049560061803     1.007825032070
           H         -3.370445236894     3.194581142175     3.946706061803     1.007825032070
           H         -2.016933236894     2.601610142175     4.891498061803     1.007825032070
           C          3.237622763106    -2.607200857825    -1.965716938197    12.000000000000
           H          3.391521763106    -2.532058857825    -3.032568938197     1.007825032070
           H          3.577715763106    -3.565620857825    -1.605473938197     1.007825032070
           H          3.774559763106    -1.809756857825    -1.472443938197     1.007825032070

  Charge       = 0
  Multiplicity = 1
  Basis Set: 6-31G*
  Basis Set:

    Orbital Energies (a.u.)
    -----------------------

    Doubly Occupied:

       1A    -20.588049     2A    -20.553000     3A    -11.373104
       4A    -11.291784     5A    -11.235634     6A    -11.219279
       7A    -11.218222     8A    -11.216511     9A    -11.216248
      10A    -11.215003    11A    -11.209434    12A     -1.464362
      13A     -1.365358    14A     -1.098361    15A     -1.066343
      16A     -1.016890    17A     -0.979424    18A     -0.934753
      19A     -0.864367    20A     -0.801149    21A     -0.791658
      22A     -0.764368    23A     -0.699641    24A     -0.679193
      25A     -0.674607    26A     -0.651355    27A     -0.626018
      28A     -0.615898    29A     -0.597146    30A     -0.587053
      31A     -0.564586    32A     -0.556480    33A     -0.537939
      34A     -0.530085    35A     -0.518780    36A     -0.503499
      37A     -0.490405    38A     -0.480687    39A     -0.472866
      40A     -0.464656    41A     -0.462685    42A     -0.450502
      43A     -0.441833    44A     -0.431017

  @DF-RHF Final Energy:  -501.02628922438259

   => Energetics <=

    Nuclear Repulsion Energy =            611.5291687876689366
    One-Electron Energy =               -1894.0707282449959621
    Two-Electron Energy =                 781.5152702329428394
    DFT Exchange-Correlation Energy =       0.0000000000000000
    Empirical Dispersion Energy =           0.0000000000000000
    PCM Polarization Energy =               0.0000000000000000
    EFP Energy =                            0.0000000000000000
    Total Energy =                       -501.0262892243840724

  Mulliken Charges: (a.u.)
   Center  Symbol    Alpha    Beta     Spin     Total
       1     O     4.26447  4.26447  0.00000 -0.52894
       2     C     2.61077  2.61077  0.00000  0.77847
       3     C     3.21214  3.21214  0.00000 -0.42428
       4     O     4.31151  4.31151  0.00000 -0.62302
       5     C     3.15485  3.15485  0.00000 -0.30971
       6     H     0.39695  0.39695  0.00000  0.20610
       7     H     0.40765  0.40765  0.00000  0.18469
       8     C     3.15625  3.15625  0.00000 -0.31251
       9     H     0.41202  0.41202  0.00000  0.17596
      10     H     0.41009  0.41009  0.00000  0.17983
      11     C     3.15498  3.15498  0.00000 -0.30996
      12     H     0.41829  0.41829  0.00000  0.16343
      13     H     0.42497  0.42497  0.00000  0.15006
      14     C     3.15026  3.15026  0.00000 -0.30051
      15     H     0.42209  0.42209  0.00000  0.15583
      16     H     0.42387  0.42387  0.00000  0.15227
      17     C     3.15148  3.15148  0.00000 -0.30297
      18     H     0.42322  0.42322  0.00000  0.15356
      19     H     0.42434  0.42434  0.00000  0.15132
      20     C     3.23936  3.23936  0.00000 -0.47872
      21     H     0.42252  0.42252  0.00000  0.15497
      22     H     0.42346  0.42346  0.00000  0.15308
      23     H     0.41910  0.41910  0.00000  0.16180
      24     H     0.42149  0.42149  0.00000  0.15702
      25     H     0.42199  0.42199  0.00000  0.15603
      26     C     3.09381  3.09381  0.00000 -0.18762
      27     H     0.40454  0.40454  0.00000  0.19092
      28     H     0.40319  0.40319  0.00000  0.19362
      29     H     0.42036  0.42036  0.00000  0.15928

   Total alpha = 44.00000, Total beta = 44.00000, Total charge = -0.00000
