  ==> Input File <==

--------------------------------------------------------------------------
set {
	reference rhf
	basis cc-pvtz
}

set_num_threads( 4 )
memory 2 gb

molecule MOL {
0 1

H	 3.874424	 0.386485	 -0.269994
N	 3.080528	 -0.217497	 -0.246491
C	 1.860978	 0.530248	 0.016256
H	 3.245629	 -0.893133	 0.470172
C	 0.644130	 -0.381765	 -0.031064
H	 1.767371	 1.291595	 -0.750879
H	 1.881272	 1.051998	 0.974024
C	 -0.678115	 0.376691	 0.025731
H	 0.693998	 -0.977147	 -0.936845
H	 0.693309	 -1.082142	 0.800523
C	 -1.900706	 -0.535531	 -0.022488
H	 -0.725296	 1.079516	 -0.802982
H	 -0.715474	 0.974884	 0.933278
C	 -3.220513	 0.226854	 0.028039
H	 -1.865036	 -1.134397	 -0.928236
H	 -1.857948	 -1.236381	 0.806820
H	 -3.309098	 0.911849	 -0.808725
H	 -4.066838	 -0.449485	 -0.008086
H	 -3.301685	 0.809374	 0.939860

	symmetry c1
}
set optking {
	frozen_dihedral = ("
		6 3 5 9
	")
}

ee = optimize('scf')
oeprop('DIPOLE', 'QUADRUPOLE', 'MULLIKEN_CHARGES')
f=open( 'psi4out.xyz', 'w' )
f.write( "19  " )
f.write( str(ee) + "\n" )
f.write( MOL.save_string_xyz() )
f.close()
--------------------------------------------------------------------------

    Molecular point group: c1
  Charge       = 0
  Multiplicity = 1
  Basis Set: CC-PVTZ
  Basis Set:
  @DF-RHF Final Energy:  -251.44790443810331
    Total Energy =                       -251.4479044381030235
    Molecular point group: c1
  Basis Set: CC-PVTZ
  Basis Set:
  Basis Set: CC-PVTZ
  Basis Set:
  @DF-RHF Final Energy:  -251.44793517701723
    Total Energy =                       -251.4479351770173707
  Basis Set: CC-PVTZ
  Basis Set:
  Basis Set: CC-PVTZ
  Basis Set:
  @DF-RHF Final Energy:  -251.44794422382373
    Total Energy =                       -251.4479442238234697
  Basis Set: CC-PVTZ
  Basis Set:
  Charge       = 0
  Multiplicity = 1
  Basis Set: CC-PVTZ
  Basis Set:

    Orbital Energies (a.u.)
    -----------------------

    Doubly Occupied:

       1A    -15.526632     2A    -11.237864     3A    -11.211905
       4A    -11.210595     5A    -11.207617     6A    -11.205446
       7A     -1.178330     8A     -1.074342     9A     -0.999637
      10A     -0.901019    11A     -0.813406    12A     -0.789913
      13A     -0.664056    14A     -0.645409    15A     -0.617063
      16A     -0.591114    17A     -0.564082    18A     -0.549164
      19A     -0.532437    20A     -0.497446    21A     -0.480740
      22A     -0.465211    23A     -0.461216    24A     -0.451590
      25A     -0.383755

  @DF-RHF Final Energy:  -251.44794440614285

   => Energetics <=

    Nuclear Repulsion Energy =            246.0437135679511869
    One-Electron Energy =                -826.4633429622330141
    Two-Electron Energy =                 328.9716849881390317
    DFT Exchange-Correlation Energy =       0.0000000000000000
    Empirical Dispersion Energy =           0.0000000000000000
    PCM Polarization Energy =               0.0000000000000000
    EFP Energy =                            0.0000000000000000
    Total Energy =                       -251.4479444061428239
    Molecular point group: c1
  Basis Set: CC-PVTZ
  Basis Set:

  -Total Gradient:
     Atom            X                  Y                   Z
    ------   -----------------  -----------------  -----------------
       1       -0.000000604207     0.000014263805    -0.000001899252
       2       -0.000000476628    -0.000023944932    -0.000024602125
       3        0.001088901524    -0.001401198928    -0.001046785508
       4       -0.000006766123     0.000004799307     0.000010179933
       5       -0.001143584314     0.001584298677    -0.000679734210
       6       -0.000736828843     0.000921305961     0.001017790141
       7       -0.000003866341     0.000019154570     0.000002645807
       8        0.000003794617     0.000014342070    -0.000040304781
       9        0.000768319369    -0.001100575757     0.000768696494
      10        0.000016518264    -0.000020673744     0.000000738287
      11        0.000005637884    -0.000005487248    -0.000017064525
      12       -0.000000127827     0.000000384326    -0.000004443237
      13        0.000011353524    -0.000007466423    -0.000008356120
      14       -0.000001600637    -0.000001319266     0.000020871081
      15       -0.000000125580     0.000007796780    -0.000003250081
      16        0.000000684496    -0.000004732520    -0.000004440417
      17        0.000004906570    -0.000008582606     0.000001082507
      18       -0.000001551657    -0.000000166376     0.000007302675
      19       -0.000004584092     0.000007802303     0.000001573329

  **** Optimization is complete! (in 4 steps) ****
    Final optimized geometry and variables:
    Molecular point group: c1

    Geometry (in Angstrom), charge = 0, multiplicity = 1:

    H            3.882173500018     0.381463964121    -0.186736604262
    N            3.086476780801    -0.220672590059    -0.195513459624
    C            1.862581890697     0.526732586489     0.044088262412
    H            3.229437388257    -0.906289737735     0.516610838387
    C            0.643916516387    -0.382425904914    -0.021764973393
    H            1.779637814519     1.294938268527    -0.717549235301
    H            1.864827156283     1.047289679930     1.003114538164
    C           -0.678226518313     0.374361886799     0.043522441470
    H            0.701054690449    -0.971032265472    -0.931561832434
    H            0.691011756016    -1.094162340876     0.800772852947
    C           -1.899998183894    -0.539661256410     0.014762693300
    H           -0.734456652361     1.071122623062    -0.789463044086
    H           -0.706579889260     0.978628359640     0.947507239102
    C           -3.220052652571     0.221581801996     0.074263854881
    H           -1.873134936113    -1.144550033780    -0.887281154364
    H           -1.847558685531    -1.234599343333     0.848422132471
    H           -3.319022103634     0.899613017042    -0.766959002449
    H           -4.065892897060    -0.456044850602     0.053361355213
    H           -3.291438634338     0.811344704630     0.982256716821

  Mulliken Charges: (a.u.)
   Center  Symbol    Alpha    Beta     Spin     Total
       1     H     0.43040  0.43040  0.00000  0.13921
       2     N     3.68831  3.68831  0.00000 -0.37662
       3     C     3.02636  3.02636  0.00000 -0.05272
       4     H     0.43107  0.43107  0.00000  0.13785
       5     C     3.08335  3.08335  0.00000 -0.16670
       6     H     0.45798  0.45798  0.00000  0.08404
       7     H     0.46854  0.46854  0.00000  0.06293
       8     C     3.09246  3.09246  0.00000 -0.18492
       9     H     0.44855  0.44855  0.00000  0.10289
      10     H     0.46034  0.46034  0.00000  0.07932
      11     C     3.08329  3.08329  0.00000 -0.16658
      12     H     0.45448  0.45448  0.00000  0.09104
      13     H     0.45682  0.45682  0.00000  0.08636
      14     C     3.14995  3.14995  0.00000 -0.29990
      15     H     0.45374  0.45374  0.00000  0.09252
      16     H     0.45502  0.45502  0.00000  0.08997
      17     H     0.45513  0.45513  0.00000  0.08975
      18     H     0.44855  0.44855  0.00000  0.10289
      19     H     0.45567  0.45567  0.00000  0.08866

   Total alpha = 25.00000, Total beta = 25.00000, Total charge = -0.00000
