  ==> Input File <==

--------------------------------------------------------------------------
set {
	reference rhf
	basis 6-31G*
}

set_num_threads( 4 )
memory 2 gb

molecule MOL {
0 1

O	 2.857690	 -1.973837	 -1.644487
C	 2.504230	 -1.514901	 -0.606458
C	 1.073301	 -1.382678	 -0.144129
O	 3.347903	 -1.046386	 0.304773
C	 0.063856	 -1.920840	 -1.155819
H	 0.999871	 -1.889104	 0.812601
H	 0.896618	 -0.330221	 0.062785
C	 -1.396650	 -1.698962	 -0.748158
H	 0.244704	 -2.979751	 -1.314310
H	 0.242722	 -1.440438	 -2.111666
C	 -1.845497	 -2.475998	 0.492754
H	 -2.027619	 -1.987410	 -1.585654
H	 -1.571725	 -0.635604	 -0.591224
C	 -3.336193	 -2.307336	 0.793383
H	 -1.624461	 -3.532984	 0.352242
H	 -1.273937	 -2.157232	 1.361477
C	 -3.794920	 -3.075224	 2.034370
H	 -3.916232	 -2.636984	 -0.066921
H	 -3.559901	 -1.249625	 0.923389
C	 -5.285518	 -2.904600	 2.325410
H	 -3.571207	 -4.132229	 1.906560
H	 -3.219280	 -2.743994	 2.896174
H	 -5.580087	 -3.460319	 3.210290
H	 -5.890106	 -3.259587	 1.495558
H	 -5.535466	 -1.860573	 2.492169
C	 4.728119	 -1.109107	 -0.004993
H	 4.882018	 -1.033965	 -1.071845
H	 5.068212	 -2.067527	 0.355250
H	 5.265056	 -0.311663	 0.488280

	symmetry c1
}
set optking {
	frozen_dihedral = ("
		2 4 26 27
	")
}

ee = optimize('scf')
oeprop('DIPOLE', 'QUADRUPOLE', 'MULLIKEN_CHARGES')
f=open( 'psi4out.xyz', 'w' )
f.write( "29  " )
f.write( str(ee) + "\n" )
f.write( MOL.save_string_xyz() )
f.close()
--------------------------------------------------------------------------

    Molecular point group: c1
  Charge       = 0
  Multiplicity = 1
  Basis Set: 6-31G*
  Basis Set:
  @DF-RHF Final Energy:  -501.04162289901501
    Total Energy =                       -501.0416228990153513
    Molecular point group: c1
  Basis Set: 6-31G*
  Basis Set:
  Basis Set: 6-31G*
  Basis Set:
  @DF-RHF Final Energy:  -501.04260280405572
    Total Energy =                       -501.0426028040560595
  Basis Set: 6-31G*
  Basis Set:
  Basis Set: 6-31G*
  Basis Set:
  @DF-RHF Final Energy:  -501.04275897235323
    Total Energy =                       -501.0427589723541359
  Basis Set: 6-31G*
  Basis Set:
  Basis Set: 6-31G*
  Basis Set:
  @DF-RHF Final Energy:  -501.04288634842806
    Total Energy =                       -501.0428863484281692
  Basis Set: 6-31G*
  Basis Set:
  Basis Set: 6-31G*
  Basis Set:
  @DF-RHF Final Energy:  -501.04294636869838
    Total Energy =                       -501.0429463686988356
  Basis Set: 6-31G*
  Basis Set:
  Basis Set: 6-31G*
  Basis Set:
  @DF-RHF Final Energy:  -501.04295323557233
    Total Energy =                       -501.0429532355717583
  Basis Set: 6-31G*
  Basis Set:
  Charge       = 0
  Multiplicity = 1
  Basis Set: 6-31G*
  Basis Set:

    Orbital Energies (a.u.)
    -----------------------

    Doubly Occupied:

       1A    -20.602838     2A    -20.544801     3A    -11.372782
       4A    -11.279957     5A    -11.234328     6A    -11.218758
       7A    -11.217421     8A    -11.215837     9A    -11.215722
      10A    -11.214323    11A    -11.208980    12A     -1.467467
      13A     -1.362814    14A     -1.097844    15A     -1.066619
      16A     -1.019531    17A     -0.977591    18A     -0.928496
      19A     -0.861398    20A     -0.799075    21A     -0.790320
      22A     -0.763391    23A     -0.701257    24A     -0.680840
      25A     -0.672180    26A     -0.650776    27A     -0.628675
      28A     -0.605097    29A     -0.594466    30A     -0.581139
      31A     -0.567703    32A     -0.549555    33A     -0.533028
      34A     -0.528887    35A     -0.514905    36A     -0.511955
      37A     -0.496150    38A     -0.477627    39A     -0.470030
      40A     -0.462189    41A     -0.458386    42A     -0.454337
      43A     -0.440541    44A     -0.435439

  @DF-RHF Final Energy:  -501.04295377017013

   => Energetics <=

    Nuclear Repulsion Energy =            609.9232926238620394
    One-Electron Energy =               -1890.9815764671093348
    Two-Electron Energy =                 780.0153300730778483
    DFT Exchange-Correlation Energy =       0.0000000000000000
    Empirical Dispersion Energy =           0.0000000000000000
    PCM Polarization Energy =               0.0000000000000000
    EFP Energy =                            0.0000000000000000
    Total Energy =                       -501.0429537701695608
    Molecular point group: c1
  Basis Set: 6-31G*
  Basis Set:

  -Total Gradient:
     Atom            X                  Y                   Z
    ------   -----------------  -----------------  -----------------
       1       -0.000112108484    -0.000060925467    -0.000109521871
       2       -0.000074227514     0.001323334606    -0.000540904699
       3        0.000021150174     0.000035908759    -0.000024783096
       4        0.000073883968    -0.002356619373     0.000849587529
       5        0.000017118914    -0.000019180616    -0.000002328092
       6       -0.000001654416    -0.000021713582     0.000016246486
       7        0.000026518183    -0.000014807358    -0.000003015943
       8       -0.000000709082     0.000002899029    -0.000002077535
       9       -0.000004672851    -0.000003482405    -0.000009581896
      10        0.000006389224     0.000008215945    -0.000002078751
      11        0.000006428512    -0.000005531334     0.000001448235
      12        0.000007013681    -0.000003758980     0.000000393403
      13       -0.000004827815     0.000000451740    -0.000005335466
      14       -0.000000614623     0.000005894849     0.000002724827
      15       -0.000003043732     0.000001306434    -0.000000338074
      16        0.000008268245    -0.000000691210     0.000002546470
      17        0.000001468152     0.000000506321     0.000001756006
      18        0.000001033144     0.000000047047     0.000000281567
      19       -0.000000557752     0.000001081534     0.000000315709
      20       -0.000000198255    -0.000000363196    -0.000001726895
      21        0.000000749462     0.000000142129     0.000000163925
      22       -0.000000563241     0.000000424998     0.000000014854
      23        0.000000684275    -0.000000259796    -0.000000777012
      24       -0.000000500649     0.000000144570    -0.000000111810
      25        0.000000316141    -0.000000176036     0.000000320744
      26        0.000054991495     0.002742150749     0.000015143653
      27       -0.000043284841    -0.001624596658    -0.000154966686
      28       -0.000038403444    -0.000006819461     0.000009858668
      29        0.000059353140    -0.000003583241    -0.000043254244

  **** Optimization is complete! (in 7 steps) ****
    Final optimized geometry and variables:
    Molecular point group: c1

    Geometry (in Angstrom), charge = 0, multiplicity = 1:

    O            2.902219036086    -0.044703138331    -1.812531871442
    C            2.558473196786     0.410437942210    -0.769715227279
    C            1.129458991935     0.548254229264    -0.302521158243
    O            3.402226918765     0.867925346697     0.147916421653
    C            0.113895807256     0.020095487524    -1.313279459414
    H            1.056511634451     0.037610908655     0.652010165318
    H            0.959202203345     1.600580095400    -0.089932679679
    C           -1.343991256851     0.248120699897    -0.899690996812
    H            0.288406864142    -1.039059205374    -1.477163999653
    H            0.292144886936     0.503842906000    -2.267540577335
    C           -1.792529594757    -0.530925592897     0.340084712335
    H           -1.979403509350    -0.034106151660    -1.735951038489
    H           -1.513005480549     1.311817204650    -0.738402408029
    C           -3.281066086251    -0.354814723859     0.647102580422
    H           -1.578128082266    -1.588629532780     0.194822090706
    H           -1.215804822913    -0.218683040744     1.207755812545
    C           -3.739392185878    -1.124469470689     1.887135339996
    H           -3.866308545936    -0.678074855981    -0.212097587994
    H           -3.498204899777     0.703689564688     0.781707659079
    C           -5.227809308973    -0.946185716223     2.184694410992
    H           -3.522383446195    -2.182295373639     1.754662590853
    H           -3.158427965823    -0.799718597317     2.747829901749
    H           -5.522112033334    -1.503296435812     3.068792211456
    H           -5.837738677886    -1.294712205643     1.356015526608
    H           -5.470992949299     0.098686659543     2.356098690683
    C            4.788855320921     0.846767291410    -0.142637686116
    H            4.962119292769     0.954031675540    -1.201069606028
    H            5.213839712289    -0.090460678538     0.192274196389
    H            5.230399165188     1.664037288293     0.406752521503

  Mulliken Charges: (a.u.)
   Center  Symbol    Alpha    Beta     Spin     Total
       1     O     4.28574  4.28574  0.00000 -0.57147
       2     C     2.60452  2.60452  0.00000  0.79096
       3     C     3.20994  3.20994  0.00000 -0.41989
       4     O     4.30866  4.30866  0.00000 -0.61733
       5     C     3.15375  3.15375  0.00000 -0.30751
       6     H     0.39873  0.39873  0.00000  0.20254
       7     H     0.40146  0.40146  0.00000  0.19707
       8     C     3.15660  3.15660  0.00000 -0.31321
       9     H     0.41311  0.41311  0.00000  0.17377
      10     H     0.40882  0.40882  0.00000  0.18235
      11     C     3.15507  3.15507  0.00000 -0.31013
      12     H     0.41829  0.41829  0.00000  0.16342
      13     H     0.42392  0.42392  0.00000  0.15215
      14     C     3.15028  3.15028  0.00000 -0.30056
      15     H     0.42261  0.42261  0.00000  0.15478
      16     H     0.42359  0.42359  0.00000  0.15281
      17     C     3.15145  3.15145  0.00000 -0.30290
      18     H     0.42334  0.42334  0.00000  0.15332
      19     H     0.42400  0.42400  0.00000  0.15200
      20     C     3.23934  3.23934  0.00000 -0.47869
      21     H     0.42280  0.42280  0.00000  0.15440
      22     H     0.42344  0.42344  0.00000  0.15313
      23     H     0.41924  0.41924  0.00000  0.16151
      24     H     0.42155  0.42155  0.00000  0.15689
      25     H     0.42184  0.42184  0.00000  0.15631
      26     C     3.09544  3.09544  0.00000 -0.19088
      27     H     0.39950  0.39950  0.00000  0.20099
      28     H     0.41333  0.41333  0.00000  0.17335
      29     H     0.40960  0.40960  0.00000  0.18080

   Total alpha = 44.00000, Total beta = 44.00000, Total charge = -0.00000
