  ==> Input File <==

--------------------------------------------------------------------------
set {
	reference rhf
	basis 6-31G*
}

set_num_threads( 1 )
memory 2 gb

molecule MOL {
0 1

O	 3.225979	 0.970355	 -0.599647
C	 2.701189	 0.057885	 -0.047330
C	 1.245376	 -0.013843	 0.345420
O	 3.347903	 -1.046386	 0.304773
C	 0.455112	 1.231400	 -0.050772
H	 0.838542	 -0.913825	 -0.103701
H	 1.208210	 -0.175333	 1.419774
C	 -0.998893	 1.219485	 0.433193
H	 0.482531	 1.345121	 -1.130325
H	 0.957290	 2.103070	 0.354729
C	 -1.883438	 0.145884	 -0.207175
H	 -1.431207	 2.195402	 0.224832
H	 -1.019646	 1.105716	 1.516076
C	 -3.347647	 0.245583	 0.225435
H	 -1.822183	 0.231698	 -1.291012
H	 -1.510341	 -0.844814	 0.042401
C	 -4.275365	 -0.686528	 -0.556001
H	 -3.688645	 1.272672	 0.106938
H	 -3.425345	 0.020337	 1.287944
C	 -5.736291	 -0.578061	 -0.120533
H	 -4.198207	 -0.463475	 -1.618044
H	 -3.938696	 -1.714073	 -0.435232
H	 -6.368544	 -1.250400	 -0.692216
H	 -6.113605	 0.430825	 -0.261874
H	 -5.851891	 -0.828826	 0.930195
C	 4.728119	 -1.109107	 -0.004993
H	 4.882018	 -1.033965	 -1.071845
H	 5.068212	 -2.067527	 0.355250
H	 5.265056	 -0.311663	 0.488280

	symmetry c1
}
set optking {
	frozen_dihedral = ("
		21 17 14 11,
		15 11 8 5,
		6 3 5 9,
		11 8 5 9,
		2 4 26 27,
		1 2 4 26,
		6 3 2 1
	")
}

ee = energy('scf')
oeprop('DIPOLE', 'QUADRUPOLE', 'MULLIKEN_CHARGES')
f=open( 'psi4out.xyz', 'w' )
f.write( "29  " )
f.write( str(ee) + "\n" )
f.write( MOL.save_string_xyz() )
f.close()
--------------------------------------------------------------------------

    Molecular point group: c1

    Geometry (in Angstrom), charge = 0, multiplicity = 1:

       Center              X                  Y                   Z               Mass
    ------------   -----------------  -----------------  -----------------  -----------------
           O          3.232439108399     0.944868665040    -0.571907724646    15.994914619560
           C          2.707649108399     0.032398665040    -0.019590724646    12.000000000000
           C          1.251836108399    -0.039329334960     0.373159275354    12.000000000000
           O          3.354363108399    -1.071872334960     0.332512275354    15.994914619560
           C          0.461572108399     1.205913665040    -0.023032724646    12.000000000000
           H          0.845002108399    -0.939311334960    -0.075961724646     1.007825032070
           H          1.214670108399    -0.200819334960     1.447513275354     1.007825032070
           C         -0.992432891601     1.193998665040     0.460932275354    12.000000000000
           H          0.488991108399     1.319634665040    -1.102585724646     1.007825032070
           H          0.963750108399     2.077583665040     0.382468275354     1.007825032070
           C         -1.876977891601     0.120397665040    -0.179435724646    12.000000000000
           H         -1.424746891601     2.169915665040     0.252571275354     1.007825032070
           H         -1.013185891601     1.080229665040     1.543815275354     1.007825032070
           C         -3.341186891601     0.220096665040     0.253174275354    12.000000000000
           H         -1.815722891601     0.206211665040    -1.263272724646     1.007825032070
           H         -1.503880891601    -0.870300334960     0.070140275354     1.007825032070
           C         -4.268904891601    -0.712014334960    -0.528261724646    12.000000000000
           H         -3.682184891601     1.247185665040     0.134677275354     1.007825032070
           H         -3.418884891601    -0.005149334960     1.315683275354     1.007825032070
           C         -5.729830891601    -0.603547334960    -0.092793724646    12.000000000000
           H         -4.191746891601    -0.488961334960    -1.590304724646     1.007825032070
           H         -3.932235891601    -1.739559334960    -0.407492724646     1.007825032070
           H         -6.362083891601    -1.275886334960    -0.664476724646     1.007825032070
           H         -6.107144891601     0.405338665040    -0.234134724646     1.007825032070
           H         -5.845430891601    -0.854312334960     0.957934275354     1.007825032070
           C          4.734579108399    -1.134593334960     0.022746275354    12.000000000000
           H          4.888478108399    -1.059451334960    -1.044105724646     1.007825032070
           H          5.074672108399    -2.093013334960     0.382989275354     1.007825032070
           H          5.271516108399    -0.337149334960     0.516019275354     1.007825032070

  Charge       = 0
  Multiplicity = 1
  Basis Set: 6-31G*
  Basis Set:

    Orbital Energies (a.u.)
    -----------------------

    Doubly Occupied:

       1A    -20.603386     2A    -20.545209     3A    -11.372002
       4A    -11.280672     5A    -11.234729     6A    -11.219085
       7A    -11.217630     8A    -11.215917     9A    -11.215802
      10A    -11.214372    11A    -11.209009    12A     -1.469071
      13A     -1.362514    14A     -1.098063    15A     -1.066787
      16A     -1.019471    17A     -0.977216    18A     -0.928547
      19A     -0.861593    20A     -0.799280    21A     -0.790460
      22A     -0.763783    23A     -0.700835    24A     -0.682314
      25A     -0.672131    26A     -0.650978    27A     -0.628509
      28A     -0.604328    29A     -0.595538    30A     -0.580778
      31A     -0.566737    32A     -0.549328    33A     -0.532227
      34A     -0.530160    35A     -0.515227    36A     -0.512996
      37A     -0.496163    38A     -0.477651    39A     -0.470092
      40A     -0.462135    41A     -0.458830    42A     -0.455772
      43A     -0.441196    44A     -0.435376

  @DF-RHF Final Energy:  -501.04383786814287

   => Energetics <=

    Nuclear Repulsion Energy =            610.0454819731062344
    One-Electron Energy =               -1891.2113563809330117
    Two-Electron Energy =                 780.1220365396848138
    DFT Exchange-Correlation Energy =       0.0000000000000000
    Empirical Dispersion Energy =           0.0000000000000000
    PCM Polarization Energy =               0.0000000000000000
    EFP Energy =                            0.0000000000000000
    Total Energy =                       -501.0438378681419636

  Mulliken Charges: (a.u.)
   Center  Symbol    Alpha    Beta     Spin     Total
       1     O     4.28596  4.28596  0.00000 -0.57193
       2     C     2.60484  2.60484  0.00000  0.79032
       3     C     3.20973  3.20973  0.00000 -0.41946
       4     O     4.30747  4.30747  0.00000 -0.61494
       5     C     3.15377  3.15377  0.00000 -0.30755
       6     H     0.39882  0.39882  0.00000  0.20235
       7     H     0.40124  0.40124  0.00000  0.19752
       8     C     3.15670  3.15670  0.00000 -0.31339
       9     H     0.41307  0.41307  0.00000  0.17386
      10     H     0.40876  0.40876  0.00000  0.18249
      11     C     3.15521  3.15521  0.00000 -0.31042
      12     H     0.41818  0.41818  0.00000  0.16364
      13     H     0.42388  0.42388  0.00000  0.15224
      14     C     3.15036  3.15036  0.00000 -0.30073
      15     H     0.42279  0.42279  0.00000  0.15442
      16     H     0.42323  0.42323  0.00000  0.15355
      17     C     3.15151  3.15151  0.00000 -0.30301
      18     H     0.42356  0.42356  0.00000  0.15288
      19     H     0.42366  0.42366  0.00000  0.15267
      20     C     3.23939  3.23939  0.00000 -0.47877
      21     H     0.42269  0.42269  0.00000  0.15461
      22     H     0.42343  0.42343  0.00000  0.15313
      23     H     0.41922  0.41922  0.00000  0.16155
      24     H     0.42154  0.42154  0.00000  0.15693
      25     H     0.42186  0.42186  0.00000  0.15628
      26     C     3.09240  3.09240  0.00000 -0.18481
      27     H     0.40908  0.40908  0.00000  0.18184
      28     H     0.40852  0.40852  0.00000  0.18296
      29     H     0.40912  0.40912  0.00000  0.18175

   Total alpha = 44.00000, Total beta = 44.00000, Total charge =  0.00000
