  ==> Input File <==

--------------------------------------------------------------------------
set {
	reference rhf
	basis 6-31G*
}

set_num_threads( 4 )
memory 2 gb

molecule MOL {
0 1

O	 -2.439739	 -0.935931	 -0.423848
C	 -1.921153	 0.064240	 -0.045697
C	 -2.624470	 1.379923	 0.150949
O	 -0.632575	 0.154573	 0.251549
H	 -2.168117	 2.136577	 -0.476876
H	 -3.669540	 1.273223	 -0.098610
H	 -2.519365	 1.700893	 1.180846
C	 0.160891	 -1.019931	 0.106212
C	 1.589627	 -0.672828	 0.480843
H	 0.089836	 -1.367806	 -0.916050
H	 -0.238459	 -1.792301	 0.749618
C	 2.512560	 -1.886908	 0.601694
H	 1.558700	 -0.141786	 1.430037
H	 1.986239	 0.022723	 -0.254117
C	 3.935457	 -1.503588	 1.005958
H	 2.101821	 -2.577659	 1.335354
H	 2.533747	 -2.417265	 -0.344684
H	 4.569936	 -2.380738	 1.083920
H	 3.949331	 -0.998859	 1.967901
H	 4.383664	 -0.835415	 0.276071

	symmetry c1
}
set optking {
	frozen_dihedral = ("
		12 9 8 10
	")
}

ee = optimize('scf')
oeprop('DIPOLE', 'QUADRUPOLE', 'MULLIKEN_CHARGES')
f=open( 'psi4out.xyz', 'w' )
f.write( "20  " )
f.write( str(ee) + "\n" )
f.write( MOL.save_string_xyz() )
f.close()
--------------------------------------------------------------------------

    Molecular point group: c1
  Charge       = 0
  Multiplicity = 1
  Basis Set: 6-31G*
  Basis Set:
  @DF-RHF Final Energy:  -383.94503876739373
    Total Energy =                       -383.9450387673937257
    Molecular point group: c1
  Basis Set: 6-31G*
  Basis Set:
  Basis Set: 6-31G*
  Basis Set:
  @DF-RHF Final Energy:  -383.94513637786537
    Total Energy =                       -383.9451363778649124
  Basis Set: 6-31G*
  Basis Set:
  Basis Set: 6-31G*
  Basis Set:
  @DF-RHF Final Energy:  -383.94505886514480
    Total Energy =                       -383.9450588651450289
  Basis Set: 6-31G*
  Basis Set:
  Basis Set: 6-31G*
  Basis Set:
  @DF-RHF Final Energy:  -383.94527285772119
    Total Energy =                       -383.9452728577210223
  Basis Set: 6-31G*
  Basis Set:
  Basis Set: 6-31G*
  Basis Set:
  @DF-RHF Final Energy:  -383.94527421815593
    Total Energy =                       -383.9452742181558165
  Basis Set: 6-31G*
  Basis Set:
  Basis Set: 6-31G*
  Basis Set:
  @DF-RHF Final Energy:  -383.94527530475182
    Total Energy =                       -383.9452753047518740
  Basis Set: 6-31G*
  Basis Set:
  Charge       = 0
  Multiplicity = 1
  Basis Set: 6-31G*
  Basis Set:

    Orbital Energies (a.u.)
    -----------------------

    Doubly Occupied:

       1A    -20.600908     2A    -20.543355     3A    -11.373753
       4A    -11.281863     5A    -11.232751     6A    -11.226499
       7A    -11.224404     8A    -11.216028     9A     -1.467224
      10A     -1.361398    11A     -1.088134    12A     -1.029531
      13A     -0.980759    14A     -0.881260    15A     -0.808428
      16A     -0.775224    17A     -0.692345    18A     -0.685921
      19A     -0.668022    20A     -0.637881    21A     -0.594639
      22A     -0.594019    23A     -0.570314    24A     -0.560275
      25A     -0.545041    26A     -0.519399    27A     -0.507079
      28A     -0.485183    29A     -0.481103    30A     -0.476494
      31A     -0.452265    32A     -0.436808

  @DF-RHF Final Energy:  -383.94527546264817

   => Energetics <=

    Nuclear Repulsion Energy =            378.8545708727629062
    One-Electron Energy =               -1273.6030831404609671
    Two-Electron Energy =                 510.8032368050497780
    DFT Exchange-Correlation Energy =       0.0000000000000000
    Empirical Dispersion Energy =           0.0000000000000000
    PCM Polarization Energy =               0.0000000000000000
    EFP Energy =                            0.0000000000000000
    Total Energy =                       -383.9452754626482829
    Molecular point group: c1
  Basis Set: 6-31G*
  Basis Set:

  -Total Gradient:
     Atom            X                  Y                   Z
    ------   -----------------  -----------------  -----------------
       1        0.000010378616     0.000008045380    -0.000006882403
       2       -0.000020932374    -0.000011962430     0.000013549002
       3        0.000001164807     0.000001242083    -0.000001556402
       4        0.000001168642    -0.000001126190    -0.000013494697
       5       -0.000002114707     0.000001207796    -0.000001350952
       6       -0.000000716077     0.000002156477    -0.000000906706
       7        0.000002559041    -0.000001493101    -0.000001767656
       8        0.000267483801    -0.002423077677     0.001293728375
       9        0.000398416967     0.000688660131    -0.002041201802
      10       -0.000320553392     0.001881750338    -0.000592314537
      11        0.000001003158     0.000001684681    -0.000003889076
      12       -0.000338025385    -0.000139632335     0.001352363124
      13       -0.000004203452    -0.000002551025    -0.000002321601
      14        0.000000602399    -0.000003934109     0.000002527361
      15        0.000006415977    -0.000005234024     0.000007461396
      16        0.000001925738     0.000000466588    -0.000000422072
      17       -0.000002572045     0.000003118517    -0.000002947364
      18       -0.000001475562     0.000000417323     0.000005040973
      19       -0.000000444863     0.000004955799    -0.000001441963
      20       -0.000000081284    -0.000004694222    -0.000004173002

  **** Optimization is complete! (in 7 steps) ****
    Final optimized geometry and variables:
    Molecular point group: c1

    Geometry (in Angstrom), charge = 0, multiplicity = 1:

    O           -2.491164878924    -0.395410405812    -0.703138235916
    C           -1.979850210275     0.606886577585    -0.320112238165
    C           -2.691293556495     1.918737459651    -0.126221283065
    O           -0.695456312436     0.702036192721    -0.008372416499
    H           -2.232101264408     2.679264045470    -0.747178741775
    H           -3.733360776105     1.807920561723    -0.386407200435
    H           -2.597624866622     2.236957167116     0.905651426288
    C            0.104247899888    -0.469317625645    -0.147029274200
    C            1.523049482201    -0.101853187491     0.247828709233
    H            0.048785687297    -0.801947182585    -1.174939921427
    H           -0.300350914612    -1.248615130797     0.484994423976
    C            2.432250581053    -1.328483521554     0.347016846098
    H            1.493965460447     0.407979484276     1.206808438605
    H            1.922389485058     0.607102681556    -0.472090011574
    C            3.870060304698    -0.966551811339     0.716703712355
    H            2.030740236716    -2.014696120162     1.088978880736
    H            2.428812491275    -1.865065126872    -0.599535435275
    H            4.490660311927    -1.853883219716     0.788799745870
    H            3.911013046723    -0.454458881694     1.673659469171
    H            4.313083297082    -0.311679207283    -0.027873977889

  Mulliken Charges: (a.u.)
   Center  Symbol    Alpha    Beta     Spin     Total
       1     O     4.28367  4.28367  0.00000 -0.56734
       2     C     2.62008  2.62008  0.00000  0.75984
       3     C     3.28151  3.28151  0.00000 -0.56301
       4     O     4.31127  4.31127  0.00000 -0.62254
       5     H     0.40063  0.40063  0.00000  0.19874
       6     H     0.39709  0.39709  0.00000  0.20583
       7     H     0.40067  0.40067  0.00000  0.19866
       8     C     2.99494  2.99494  0.00000  0.01013
       9     C     3.16385  3.16385  0.00000 -0.32770
      10     H     0.41048  0.41048  0.00000  0.17903
      11     H     0.41109  0.41109  0.00000  0.17783
      12     C     3.16063  3.16063  0.00000 -0.32127
      13     H     0.41362  0.41362  0.00000  0.17277
      14     H     0.41499  0.41499  0.00000  0.17003
      15     C     3.23931  3.23931  0.00000 -0.47861
      16     H     0.41939  0.41939  0.00000  0.16121
      17     H     0.41996  0.41996  0.00000  0.16007
      18     H     0.41696  0.41696  0.00000  0.16609
      19     H     0.41993  0.41993  0.00000  0.16014
      20     H     0.41995  0.41995  0.00000  0.16011

   Total alpha = 32.00000, Total beta = 32.00000, Total charge =  0.00000
