  ==> Input File <==

--------------------------------------------------------------------------
set {
	reference rhf
	basis 6-31G*
}

set_num_threads( 1 )
memory 2 gb

molecule MOL {
0 1

O	 -0.231361	 -0.327376	 2.217726
C	 0.709696	 -0.686209	 1.586290
C	 1.245376	 -0.013843	 0.345420
O	 1.430147	 -1.755456	 1.901396
C	 0.455112	 1.231400	 -0.050772
H	 2.290808	 0.209651	 0.530653
H	 1.236546	 -0.752815	 -0.451788
C	 -0.998893	 1.219485	 0.433193
H	 0.482531	 1.345121	 -1.130325
H	 0.957290	 2.103070	 0.354729
C	 -1.883438	 0.145884	 -0.207175
H	 -1.431207	 2.195402	 0.224832
H	 -1.019646	 1.105716	 1.516076
C	 -3.347647	 0.245583	 0.225435
H	 -1.822183	 0.231698	 -1.291012
H	 -1.510341	 -0.844814	 0.042401
C	 -4.239992	 -0.825570	 -0.404234
H	 -3.732888	 1.230466	 -0.033079
H	 -3.408585	 0.170602	 1.310038
C	 -5.701275	 -0.716658	 0.029921
H	 -4.179496	 -0.752714	 -1.488058
H	 -3.859041	 -1.810759	 -0.143352
H	 -6.308102	 -1.488908	 -0.432678
H	 -6.122175	 0.245478	 -0.248167
H	 -5.799072	 -0.820114	 1.106957
C	 1.032242	 -2.482878	 3.049183
H	 1.076398	 -1.857869	 3.929477
H	 1.729734	 -3.301358	 3.136376
H	 0.026278	 -2.859163	 2.930935

	symmetry c1
}
set optking {
	frozen_dihedral = ("
		21 17 14 11,
		17 14 11 15,
		15 11 8 5,
		11 8 5 9,
		2 4 26 27,
		1 2 4 26,
		6 3 2 1
	")
}

ee = energy('scf')
oeprop('DIPOLE', 'QUADRUPOLE', 'MULLIKEN_CHARGES')
f=open( 'psi4out.xyz', 'w' )
f.write( "29  " )
f.write( str(ee) + "\n" )
f.write( MOL.save_string_xyz() )
f.close()
--------------------------------------------------------------------------

    Molecular point group: c1

    Geometry (in Angstrom), charge = 0, multiplicity = 1:

       Center              X                  Y                   Z               Mass
    ------------   -----------------  -----------------  -----------------  -----------------
           O          0.813408755547     0.062200037746     1.358225882192    15.994914619560
           C          1.754465755547    -0.296632962254     0.726789882192    12.000000000000
           C          2.290145755547     0.375733037746    -0.514080117808    12.000000000000
           O          2.474916755547    -1.365879962254     1.041895882192    15.994914619560
           C          1.499881755547     1.620976037746    -0.910272117808    12.000000000000
           H          3.335577755547     0.599227037746    -0.328847117808     1.007825032070
           H          2.281315755547    -0.363238962254    -1.311288117808     1.007825032070
           C          0.045876755547     1.609061037746    -0.426307117808    12.000000000000
           H          1.527300755547     1.734697037746    -1.989825117808     1.007825032070
           H          2.002059755547     2.492646037746    -0.504771117808     1.007825032070
           C         -0.838668244453     0.535460037746    -1.066675117808    12.000000000000
           H         -0.386437244453     2.584978037746    -0.634668117808     1.007825032070
           H          0.025123755547     1.495292037746     0.656575882192     1.007825032070
           C         -2.302877244453     0.635159037746    -0.634065117808    12.000000000000
           H         -0.777413244453     0.621274037746    -2.150512117808     1.007825032070
           H         -0.465571244453    -0.455237962254    -0.817099117808     1.007825032070
           C         -3.195222244453    -0.435993962254    -1.263734117808    12.000000000000
           H         -2.688118244453     1.620042037746    -0.892579117808     1.007825032070
           H         -2.363815244453     0.560178037746     0.450537882192     1.007825032070
           C         -4.656505244453    -0.327081962254    -0.829579117808    12.000000000000
           H         -3.134726244453    -0.363137962254    -2.347558117808     1.007825032070
           H         -2.814271244453    -1.421182962254    -1.002852117808     1.007825032070
           H         -5.263332244453    -1.099331962254    -1.292178117808     1.007825032070
           H         -5.077405244453     0.635054037746    -1.107667117808     1.007825032070
           H         -4.754302244453    -0.430537962254     0.247456882192     1.007825032070
           C          2.077011755547    -2.093301962254     2.189682882192    12.000000000000
           H          2.121167755547    -1.468292962254     3.069976882192     1.007825032070
           H          2.774503755547    -2.911781962254     2.276875882192     1.007825032070
           H          1.071047755547    -2.469586962254     2.071434882192     1.007825032070

  Charge       = 0
  Multiplicity = 1
  Basis Set: 6-31G*
  Basis Set:

    Orbital Energies (a.u.)
    -----------------------

    Doubly Occupied:

       1A    -20.607706     2A    -20.546483     3A    -11.378270
       4A    -11.283767     5A    -11.236219     6A    -11.216920
       7A    -11.206899     8A    -11.202086     9A    -11.201975
      10A    -11.200989    11A    -11.187163    12A     -1.475145
      13A     -1.371534    14A     -1.088978    15A     -1.060936
      16A     -1.013113    17A     -0.974789    18A     -0.920972
      19A     -0.856648    20A     -0.793239    21A     -0.778388
      22A     -0.775053    23A     -0.699438    24A     -0.686183
      25A     -0.673153    26A     -0.643328    27A     -0.627306
      28A     -0.615860    29A     -0.579343    30A     -0.571009
      31A     -0.559039    32A     -0.541677    33A     -0.536665
      34A     -0.523740    35A     -0.515694    36A     -0.505217
      37A     -0.495779    38A     -0.480562    39A     -0.465899
      40A     -0.462076    41A     -0.452360    42A     -0.445646
      43A     -0.425693    44A     -0.402089

  @DF-RHF Final Energy:  -501.01652428960563

   => Energetics <=

    Nuclear Repulsion Energy =            650.2907458978469322
    One-Electron Energy =               -1972.0446030954010439
    Two-Electron Energy =                 820.7373329079505311
    DFT Exchange-Correlation Energy =       0.0000000000000000
    Empirical Dispersion Energy =           0.0000000000000000
    PCM Polarization Energy =               0.0000000000000000
    EFP Energy =                            0.0000000000000000
    Total Energy =                       -501.0165242896036943

  Mulliken Charges: (a.u.)
   Center  Symbol    Alpha    Beta     Spin     Total
       1     O     4.28992  4.28992  0.00000 -0.57985
       2     C     2.60196  2.60196  0.00000  0.79608
       3     C     3.21138  3.21138  0.00000 -0.42275
       4     O     4.30623  4.30623  0.00000 -0.61247
       5     C     3.15693  3.15693  0.00000 -0.31387
       6     H     0.39638  0.39638  0.00000  0.20724
       7     H     0.39735  0.39735  0.00000  0.20530
       8     C     3.17401  3.17401  0.00000 -0.34802
       9     H     0.41793  0.41793  0.00000  0.16414
      10     H     0.41650  0.41650  0.00000  0.16700
      11     C     3.14726  3.14726  0.00000 -0.29451
      12     H     0.42992  0.42992  0.00000  0.14015
      13     H     0.37611  0.37611  0.00000  0.24779
      14     C     3.15013  3.15013  0.00000 -0.30025
      15     H     0.43022  0.43022  0.00000  0.13956
      16     H     0.42907  0.42907  0.00000  0.14186
      17     C     3.15082  3.15082  0.00000 -0.30164
      18     H     0.42554  0.42554  0.00000  0.14892
      19     H     0.41952  0.41952  0.00000  0.16096
      20     C     3.23892  3.23892  0.00000 -0.47785
      21     H     0.42499  0.42499  0.00000  0.15001
      22     H     0.42476  0.42476  0.00000  0.15049
      23     H     0.42125  0.42125  0.00000  0.15751
      24     H     0.42248  0.42248  0.00000  0.15503
      25     H     0.42190  0.42190  0.00000  0.15620
      26     C     3.09294  3.09294  0.00000 -0.18588
      27     H     0.40890  0.40890  0.00000  0.18220
      28     H     0.40758  0.40758  0.00000  0.18484
      29     H     0.40910  0.40910  0.00000  0.18181

   Total alpha = 44.00000, Total beta = 44.00000, Total charge = -0.00000
