  ==> Input File <==

--------------------------------------------------------------------------
set {
	reference rhf
	basis 6-31G*
}

set_num_threads( 4 )
memory 2 gb

molecule MOL {
0 1

H	 -1.073232	 -0.398958	 -0.648870
C	 -0.790252	 0.431209	 0.000000
N	 0.538815	 0.649616	 0.000000
O	 -1.600335	 1.051087	 0.623479
C	 1.521968	 -0.411503	 0.000000
H	 0.852804	 1.592852	 0.000000
H	 2.150599	 -0.357004	 -0.881901
H	 0.999455	 -1.354525	 0.000000
H	 2.150599	 -0.357004	 0.881901

	symmetry c1
}
set optking {
	frozen_dihedral = ("
		1 2 3 6
	")
}

ee = optimize('scf')
oeprop('DIPOLE', 'QUADRUPOLE', 'MULLIKEN_CHARGES')
f=open( 'psi4out.xyz', 'w' )
f.write( "9  " )
f.write( str(ee) + "\n" )
f.write( MOL.save_string_xyz() )
f.close()
--------------------------------------------------------------------------

    Molecular point group: c1
  Charge       = 0
  Multiplicity = 1
  Basis Set: 6-31G*
  Basis Set:
  @DF-RHF Final Energy:  -207.94325265603180
    Total Energy =                       -207.9432526560318308
    Molecular point group: c1
  Basis Set: 6-31G*
  Basis Set:
  Basis Set: 6-31G*
  Basis Set:
  @DF-RHF Final Energy:  -207.94608839180299
    Total Energy =                       -207.9460883918030447
  Basis Set: 6-31G*
  Basis Set:
  Basis Set: 6-31G*
  Basis Set:
  @DF-RHF Final Energy:  -207.94996604939595
    Total Energy =                       -207.9499660493958686
  Basis Set: 6-31G*
  Basis Set:
  Basis Set: 6-31G*
  Basis Set:
  @DF-RHF Final Energy:  -207.95191028091239
    Total Energy =                       -207.9519102809123865
  Basis Set: 6-31G*
  Basis Set:
  @DF-RHF Final Energy:  -207.95216813152336
    Total Energy =                       -207.9521681315233081
  @DF-RHF Final Energy:  -207.95231599437221
    Total Energy =                       -207.9523159943722419
  @DF-RHF Final Energy:  -207.95258293639267
    Total Energy =                       -207.9525829363928437
  @DF-RHF Final Energy:  -207.95265892400113
    Total Energy =                       -207.9526589240010139
  @DF-RHF Final Energy:  -207.95267963134444
    Total Energy =                       -207.9526796313444379
  @DF-RHF Final Energy:  -207.95268212032857
    Total Energy =                       -207.9526821203286318
  @DF-RHF Final Energy:  -207.95268436675417
    Total Energy =                       -207.9526843667541414
  @DF-RHF Final Energy:  -207.95268648711919
    Total Energy =                       -207.9526864871192231
  @DF-RHF Final Energy:  -207.95269228793174
    Total Energy =                       -207.9526922879318249
  @DF-RHF Final Energy:  -207.95222211008218
    Total Energy =                       -207.9522221100821753
  @DF-RHF Final Energy:  -207.95198786685398
    Total Energy =                       -207.9519878668539263
  @DF-RHF Final Energy:  -207.95266946225269
    Total Energy =                       -207.9526694622526009
  @DF-RHF Final Energy:  -207.95270691712278
    Total Energy =                       -207.9527069171227538
  @DF-RHF Final Energy:  -207.95271193686426
    Total Energy =                       -207.9527119368643184
  @DF-RHF Final Energy:  -207.95271033044614
    Total Energy =                       -207.9527103304460525
  @DF-RHF Final Energy:  -207.95271028389732
    Total Energy =                       -207.9527102838972894
  @DF-RHF Final Energy:  -207.95271337457666
    Total Energy =                       -207.9527133745766037
  @DF-RHF Final Energy:  -207.95271334490604
    Total Energy =                       -207.9527133449061580
  @DF-RHF Final Energy:  -207.95271332093881
    Total Energy =                       -207.9527133209388978
  @DF-RHF Final Energy:  -207.95271330193648
    Total Energy =                       -207.9527133019363987
  @DF-RHF Final Energy:  -207.95271328208304
    Total Energy =                       -207.9527132820829820
  @DF-RHF Final Energy:  -207.95271327165830
    Total Energy =                       -207.9527132716583537
  @DF-RHF Final Energy:  -207.95271326393856
    Total Energy =                       -207.9527132639385911
  @DF-RHF Final Energy:  -207.95271323501152
    Total Energy =                       -207.9527132350115721
  @DF-RHF Final Energy:  -207.95271301460707
    Total Energy =                       -207.9527130146070988
  @DF-RHF Final Energy:  -207.95271112687237
    Total Energy =                       -207.9527111268723445
  @DF-RHF Final Energy:  -207.95271316355826
    Total Energy =                       -207.9527131635581725
  @DF-RHF Final Energy:  -207.95271313830960
    Total Energy =                       -207.9527131383096616
  @DF-RHF Final Energy:  -207.95271308222695
    Total Energy =                       -207.9527130822269498
  @DF-RHF Final Energy:  -207.95271312246720
    Total Energy =                       -207.9527131224672871
  @DF-RHF Final Energy:  -207.95271310505723
    Total Energy =                       -207.9527131050571427
  @DF-RHF Final Energy:  -207.95271308387828
    Total Energy =                       -207.9527130838783080
  Basis Set: 6-31G*
  Basis Set:
  @DF-RHF Final Energy:  -207.95271281663628
    Total Energy =                       -207.9527128166362786
  Basis Set: 6-31G*
  Basis Set:
  Basis Set: 6-31G*
  Basis Set:
  @DF-RHF Final Energy:  -207.95271308338116
    Total Energy =                       -207.9527130833811555
  Basis Set: 6-31G*
  Basis Set:
  Basis Set: 6-31G*
  Basis Set:
  @DF-RHF Final Energy:  -207.95271306094384
    Total Energy =                       -207.9527130609438359
  Basis Set: 6-31G*
  Basis Set:
  Charge       = 0
  Multiplicity = 1
  Basis Set: 6-31G*
  Basis Set:

    Orbital Energies (a.u.)
    -----------------------

    Doubly Occupied:

       1A    -20.538361     2A    -15.586321     3A    -11.348554
       4A    -11.271984     5A     -1.398978     6A     -1.238654
       7A     -0.958089     8A     -0.841867     9A     -0.693557
      10A     -0.677279    11A     -0.636876    12A     -0.587411
      13A     -0.567831    14A     -0.541972    15A     -0.432650
      16A     -0.397263

  @DF-RHF Final Energy:  -207.95271299868750

   => Energetics <=

    Nuclear Repulsion Energy =            120.3379806405667267
    One-Electron Energy =                -521.1460923018618132
    Two-Electron Energy =                 192.8553986626074561
    DFT Exchange-Correlation Energy =       0.0000000000000000
    Empirical Dispersion Energy =           0.0000000000000000
    PCM Polarization Energy =               0.0000000000000000
    EFP Energy =                            0.0000000000000000
    Total Energy =                       -207.9527129986876162
    Molecular point group: c1
  Basis Set: 6-31G*
  Basis Set:

  -Total Gradient:
     Atom            X                  Y                   Z
    ------   -----------------  -----------------  -----------------
       1        0.002137676635     0.004992742555    -0.008326312765
       2       -0.001655083462    -0.008012588516     0.007995672970
       3       -0.004478425028     0.005378763435     0.010374325646
       4       -0.000075513331     0.000006375112     0.000031852200
       5       -0.000286184357    -0.000207191400    -0.000110718128
       6        0.004225675313    -0.002006815869    -0.009870346366
       7       -0.000038626766    -0.000098828277    -0.000027778012
       8        0.000185676613     0.000007238500    -0.000124400203
       9       -0.000015195613    -0.000059695539     0.000057704658

    Molecular point group: c1

    Geometry (in Angstrom), charge = 0, multiplicity = 1:

    H           -0.874081636717    -0.925493722835    -0.730510685195
    C           -0.693281568648    -0.022161244365    -0.143541874006
    N            0.602353260438     0.113610762469     0.273285920306
    O           -1.547561813602     0.787603159601     0.032868072189
    C            1.583384092376    -0.881152380456    -0.123451125072
    H            0.937446768583     1.052675814153     0.217456499638
    H            1.879919517125    -0.803100525173    -1.167053356924
    H            1.185028160990    -1.872969280890     0.046166860040
    H            2.465010763068    -0.773893127265     0.494210124660

  Mulliken Charges: (a.u.)
   Center  Symbol    Alpha    Beta     Spin     Total
       1     H     0.42942  0.42942  0.00000  0.14116
       2     C     2.74838  2.74838  0.00000  0.50325
       3     N     3.85930  3.85930  0.00000 -0.71860
       4     O     4.27004  4.27004  0.00000 -0.54008
       5     C     3.15578  3.15578  0.00000 -0.31156
       6     H     0.30804  0.30804  0.00000  0.38392
       7     H     0.41744  0.41744  0.00000  0.16512
       8     H     0.40753  0.40753  0.00000  0.18495
       9     H     0.40408  0.40408  0.00000  0.19185

   Total alpha = 16.00000, Total beta = 16.00000, Total charge = -0.00000
