                              Psi4 1.0.54 Driver

  ==> Input File <==

--------------------------------------------------------------------------
set {
	reference rhf
	basis cc-pvtz
}

set_num_threads( 4 )
memory 2 gb

molecule MOL {
0 1

H	 -3.402576	 -0.153035	 0.828328
C	 -3.306202	 -0.013876	 -0.257136
C	 -2.518813	 1.198954	 -0.673013
O	 -3.811604	 -0.782822	 -0.999160
C	 -1.149227	 1.278652	 0.007837
H	 -2.428858	 1.198025	 -1.751550
H	 -3.110663	 2.065899	 -0.387663
C	 -0.181912	 0.181486	 -0.431154
H	 -0.715267	 2.249039	 -0.207494
H	 -1.280754	 1.239674	 1.086436
C	 1.181757	 0.280428	 0.247371
H	 -0.053985	 0.231910	 -1.509208
H	 -0.614368	 -0.794329	 -0.225744
C	 2.151032	 -0.811012	 -0.202643
H	 1.604587	 1.259664	 0.045735
H	 1.051159	 0.219805	 1.325595
C	 3.580021	 -0.656538	 0.320835
H	 2.170545	 -0.847575	 -1.289412
H	 1.766632	 -1.772905	 0.124928
C	 4.327657	 0.562694	 -0.213579
H	 4.138806	 -1.549270	 0.057813
H	 3.561991	 -0.620783	 1.406976
H	 4.355973	 0.557257	 -1.298551
H	 3.867136	 1.491650	 0.100501
H	 5.351524	 0.571613	 0.142204

	symmetry c1
}
set optking {
	frozen_dihedral = ("
		8 11 14 18
	")
}

ee,wfn = optimize('scf', return_wfn=True)
oeprop( wfn, 'DIPOLE', 'QUADRUPOLE', 'MULLIKEN_CHARGES')
f=open( 'psi4out.xyz', 'w' )
f.write( "25  " )
f.write( str(ee) + "\n" )
f.write( MOL.save_string_xyz() )
f.close()
--------------------------------------------------------------------------

    Molecular point group: c1
  Charge       = 0
  Multiplicity = 1
  Basis Set: CC-PVTZ
  Basis Set:
  @DF-RHF Final Energy:  -387.26002074854932
    Total Energy =                       -387.2600207485495503
    Molecular point group: c1
  Basis Set: CC-PVTZ
  Basis Set:
  Basis Set: CC-PVTZ
  Basis Set:
  @DF-RHF Final Energy:  -387.25978009610208
    Total Energy =                       -387.2597800961018493
  Basis Set: CC-PVTZ
  Basis Set:
  Basis Set: CC-PVTZ
  Basis Set:
  @DF-RHF Final Energy:  -387.26009096865215
    Total Energy =                       -387.2600909686520936
  Basis Set: CC-PVTZ
  Basis Set:
  Basis Set: CC-PVTZ
  Basis Set:
  @DF-RHF Final Energy:  -387.26006923314111
    Total Energy =                       -387.2600692331413939
  Basis Set: CC-PVTZ
  Basis Set:
  Basis Set: CC-PVTZ
  Basis Set:
  @DF-RHF Final Energy:  -387.25998724475545
    Total Energy =                       -387.2599872447553935
  Basis Set: CC-PVTZ
  Basis Set:
  Basis Set: CC-PVTZ
  Basis Set:
  @DF-RHF Final Energy:  -387.26010144936754
    Total Energy =                       -387.2601014493675393
  Basis Set: CC-PVTZ
  Basis Set:
  Basis Set: CC-PVTZ
  Basis Set:
  @DF-RHF Final Energy:  -387.26010315189558
    Total Energy =                       -387.2601031518948957
  Basis Set: CC-PVTZ
  Basis Set:
  Charge       = 0
  Multiplicity = 1
  Basis Set: CC-PVTZ
  Basis Set:

    Orbital Energies (a.u.)
    -----------------------

    Doubly Occupied:

       1A    -20.551339     2A    -11.320955     3A    -11.233785
       4A    -11.232832     5A    -11.221750     6A    -11.217659
       7A    -11.216427     8A    -11.215019     9A    -11.208857
      10A     -1.406360    11A     -1.105301    12A     -1.070899
      13A     -1.014759    14A     -0.943752    15A     -0.875756
      16A     -0.820659    17A     -0.788804    18A     -0.782676
      19A     -0.667859    20A     -0.663700    21A     -0.634003
      22A     -0.627903    23A     -0.604072    24A     -0.595140
      25A     -0.577302    26A     -0.549849    27A     -0.537224
      28A     -0.527864    29A     -0.508420    30A     -0.498164
      31A     -0.491849    32A     -0.480121    33A     -0.465768
      34A     -0.458616    35A     -0.442822    36A     -0.411849

  @DF-RHF Final Energy:  -387.26010317626952

   => Energetics <=

    Nuclear Repulsion Energy =            439.7288218417350549
    One-Electron Energy =               -1396.0376184958722661
    Two-Electron Energy =                 569.0486934778680279
    DFT Exchange-Correlation Energy =       0.0000000000000000
    Empirical Dispersion Energy =           0.0000000000000000
    PCM Polarization Energy =               0.0000000000000000
    EFP Energy =                            0.0000000000000000
    Total Energy =                       -387.2601031762692401
    Molecular point group: c1
  Basis Set: CC-PVTZ
  Basis Set:

  -Total Gradient:
     Atom            X                  Y                   Z
    ------   -----------------  -----------------  -----------------
       1        0.000016552078    -0.000007075506    -0.000001323280
       2       -0.000040280980     0.000022923592    -0.000010772958
       3        0.000008189896    -0.000007552857    -0.000000834509
       4        0.000016653343    -0.000014171805     0.000000372132
       5        0.000017974833     0.000026585493    -0.000030543308
       6       -0.000004184417     0.000007416607    -0.000000091990
       7       -0.000004081829    -0.000009342364     0.000007436403
       8        0.000384896056     0.000708917343    -0.000896991739
       9        0.000010577090     0.000000388210     0.000005876603
      10        0.000001927458    -0.000000603640    -0.000003784684
      11       -0.000859387770    -0.001296108707     0.001300952717
      12       -0.000004761298     0.000000956076     0.000009442386
      13       -0.000003686620     0.000000300739     0.000001610352
      14        0.001742251336     0.001714117857    -0.000399523130
      15       -0.000004327027    -0.000010248066     0.000007669563
      16       -0.000001982203    -0.000002984260    -0.000008447206
      17        0.000020047241     0.000003249009     0.000004473582
      18       -0.001276457703    -0.001145348188     0.000021157887
      19       -0.000000056107     0.000009752189     0.000000512175
      20       -0.000000084834    -0.000001529220     0.000004953555
      21       -0.000014970356     0.000024353939     0.000009213316
      22        0.000003060655     0.000000382919    -0.000024715764
      23       -0.000003626980     0.000002607688     0.000012100197
      24        0.000011401914    -0.000023290364    -0.000005181020
      25       -0.000015643778    -0.000003696681    -0.000003561279

  **** Optimization is complete! (in 8 steps) ****
    Final optimized geometry and variables:
    Molecular point group: c1

    Geometry (in Angstrom), charge = 0, multiplicity = 1:

    H           -3.438637132471    -0.346292807299     1.052528377969
    C           -3.340948432780    -0.170907400597    -0.027565884751
    C           -2.566254153211     1.063566370831    -0.401630047290
    O           -3.835514959681    -0.920996364086    -0.795717810124
    C           -1.201227355706     1.138788927359     0.288603303611
    H           -2.471099247643     1.097126073694    -1.479211387616
    H           -3.170210667581     1.914008347175    -0.092925004290
    C           -0.220412090438     0.063944663946    -0.174847401860
    H           -0.776163997719     2.119085865545     0.102071585188
    H           -1.337928900074     1.069112447699     1.364953051898
    C            1.143858530765     0.168073254435     0.501530358253
    H           -0.094211969307     0.138899569268    -1.251408187784
    H           -0.640361848185    -0.921704042264     0.010150282081
    C            2.115397540814    -0.923506338416     0.055192127911
    H            1.560801465371     1.147658354613     0.289089975320
    H            1.021030051355     0.116810378655     1.580718810039
    C            3.540266142089    -0.777925599383     0.591541406925
    H            2.136226651986    -0.967171344933    -1.031187609361
    H            1.721747010771    -1.883354392148     0.378819317566
    C            4.323664350437     0.397780346210     0.012541953803
    H            4.082278979474    -1.693467183889     0.376733481420
    H            3.508928809386    -0.693226620332     1.674703887771
    H            4.376344862448     0.334022087766    -1.069509281039
    H            3.875843379433     1.351038228877     0.265987743302
    H            5.339208018427     0.405992148278     0.391478089074

  Mulliken Charges: (a.u.)
   Center  Symbol    Alpha    Beta     Spin     Total
       1     H     0.46419  0.46419  0.00000  0.07161
       2     C     2.90481  2.90481  0.00000  0.19039
       3     C     3.08909  3.08909  0.00000 -0.17819
       4     O     4.16626  4.16626  0.00000 -0.33252
       5     C     3.11608  3.11608  0.00000 -0.23215
       6     H     0.44290  0.44290  0.00000  0.11419
       7     H     0.44050  0.44050  0.00000  0.11900
       8     C     3.09020  3.09020  0.00000 -0.18040
       9     H     0.44301  0.44301  0.00000  0.11397
      10     H     0.44979  0.44979  0.00000  0.10042
      11     C     3.09223  3.09223  0.00000 -0.18447
      12     H     0.44963  0.44963  0.00000  0.10074
      13     H     0.44807  0.44807  0.00000  0.10386
      14     C     3.09628  3.09628  0.00000 -0.19256
      15     H     0.45224  0.45224  0.00000  0.09552
      16     H     0.45350  0.45350  0.00000  0.09300
      17     C     3.09082  3.09082  0.00000 -0.18163
      18     H     0.45315  0.45315  0.00000  0.09370
      19     H     0.44786  0.44786  0.00000  0.10428
      20     C     3.15150  3.15150  0.00000 -0.30300
      21     H     0.44739  0.44739  0.00000  0.10521
      22     H     0.45503  0.45503  0.00000  0.08995
      23     H     0.45439  0.45439  0.00000  0.09122
      24     H     0.45487  0.45487  0.00000  0.09027
      25     H     0.44620  0.44620  0.00000  0.10760

   Total alpha = 36.00000, Total beta = 36.00000, Total charge =  0.00000

*** Psi4 exiting successfully. Buy a developer a beer!
