                              Psi4 1.0.54 Driver

  ==> Input File <==

--------------------------------------------------------------------------
set {
	reference rhf
	basis cc-pvtz
}

set_num_threads( 4 )
memory 2 gb

molecule MOL {
0 1

O	 1.975156	 2.749440	 1.842281
C	 1.469901	 2.309416	 2.822693
C	 0.191125	 1.497736	 2.780992
C	 2.076136	 2.532811	 4.189733
C	 -0.384859	 1.299634	 1.386063
H	 0.396110	 0.539493	 3.253031
H	 -0.530214	 1.989720	 3.429550
C	 -1.670656	 0.477574	 1.393600
H	 0.357254	 0.817190	 0.760260
H	 -0.569759	 2.268757	 0.936901
C	 -2.258482	 0.271340	 0.000669
H	 -1.478238	 -0.492017	 1.847630
H	 -2.409595	 0.966363	 2.024723
C	 -3.544441	 -0.550271	 -0.000253
H	 -1.520657	 -0.217414	 -0.630874
H	 -2.451901	 1.239982	 -0.453697
C	 -4.804551	 0.308747	 0.000556
H	 -3.553737	 -1.201524	 -0.870151
H	 -3.553831	 -1.203282	 0.868313
H	 -4.842050	 0.949078	 -0.874436
H	 -5.698404	 -0.304480	 -0.000254
H	 -4.842277	 0.947103	 0.876982
H	 2.303776	 1.581521	 4.658001
H	 2.978028	 3.118273	 4.099082
H	 1.370029	 3.047223	 4.832255

	symmetry c1
}
set optking {
	frozen_dihedral = ("
		15 11 14 18
	")
}

ee,wfn = optimize('scf', return_wfn=True)
oeprop( wfn, 'DIPOLE', 'QUADRUPOLE', 'MULLIKEN_CHARGES')
f=open( 'psi4out.xyz', 'w' )
f.write( "25  " )
f.write( str(ee) + "\n" )
f.write( MOL.save_string_xyz() )
f.close()
--------------------------------------------------------------------------

    Molecular point group: c1
  Charge       = 0
  Multiplicity = 1
  Basis Set: CC-PVTZ
  Basis Set:
  @DF-RHF Final Energy:  -387.27049979806054
    Total Energy =                       -387.2704997980604276
    Molecular point group: c1
  Basis Set: CC-PVTZ
  Basis Set:
  Basis Set: CC-PVTZ
  Basis Set:
  @DF-RHF Final Energy:  -387.27075280233362
    Total Energy =                       -387.2707528023339592
  Basis Set: CC-PVTZ
  Basis Set:
  Basis Set: CC-PVTZ
  Basis Set:
  @DF-RHF Final Energy:  -387.27083677443363
    Total Energy =                       -387.2708367744337465
  Basis Set: CC-PVTZ
  Basis Set:
  Basis Set: CC-PVTZ
  Basis Set:
  @DF-RHF Final Energy:  -387.27067991094481
    Total Energy =                       -387.2706799109450913
  Basis Set: CC-PVTZ
  Basis Set:
  Basis Set: CC-PVTZ
  Basis Set:
  @DF-RHF Final Energy:  -387.27083968099282
    Total Energy =                       -387.2708396809927081
  Basis Set: CC-PVTZ
  Basis Set:
  Charge       = 0
  Multiplicity = 1
  Basis Set: CC-PVTZ
  Basis Set:

    Orbital Energies (a.u.)
    -----------------------

    Doubly Occupied:

       1A    -20.538929     2A    -11.320565     3A    -11.230268
       4A    -11.226633     5A    -11.215548     6A    -11.214717
       7A    -11.213437     8A    -11.211369     9A    -11.207440
      10A     -1.398967    11A     -1.094799    12A     -1.056644
      13A     -1.015003    14A     -0.969179    15A     -0.893723
      16A     -0.820366    17A     -0.786955    18A     -0.730901
      19A     -0.659252    20A     -0.655458    21A     -0.627233
      22A     -0.621377    23A     -0.609156    24A     -0.589080
      25A     -0.569670    26A     -0.557876    27A     -0.536729
      28A     -0.526306    29A     -0.517383    30A     -0.495215
      31A     -0.486313    32A     -0.479434    33A     -0.463230
      34A     -0.455609    35A     -0.452004    36A     -0.401482

  @DF-RHF Final Energy:  -387.27083994466443

   => Energetics <=

    Nuclear Repulsion Energy =            441.8371721360663287
    One-Electron Energy =               -1400.5195257607042549
    Two-Electron Energy =                 571.4115136799730408
    DFT Exchange-Correlation Energy =       0.0000000000000000
    Empirical Dispersion Energy =           0.0000000000000000
    PCM Polarization Energy =               0.0000000000000000
    EFP Energy =                            0.0000000000000000
    Total Energy =                       -387.2708399446648855
    Molecular point group: c1
  Basis Set: CC-PVTZ
  Basis Set:

  -Total Gradient:
     Atom            X                  Y                   Z
    ------   -----------------  -----------------  -----------------
       1        0.000002978694    -0.000004607844    -0.000042207231
       2       -0.000021244411     0.000017940962     0.000031684428
       3        0.000018343987     0.000013392239    -0.000001232328
       4       -0.000000645834    -0.000013265592     0.000008408604
       5        0.000003572566     0.000006305708    -0.000008390684
       6        0.000001564932     0.000002818491    -0.000003436438
       7        0.000002433138     0.000000175929     0.000002013843
       8        0.000007188492    -0.000017717856     0.000014820258
       9       -0.000001394460    -0.000000549115     0.000004141015
      10        0.000006050400    -0.000000688199    -0.000001793257
      11        0.001575603790    -0.002807360462     0.003619996657
      12       -0.000008745431    -0.000004267143    -0.000009185481
      13        0.000004363143    -0.000005607966    -0.000011166925
      14       -0.001966182430     0.003461930785    -0.002775959641
      15       -0.001000083114     0.001813465287    -0.002587684916
      16        0.000003029038    -0.000006758293     0.000003735710
      17       -0.000026262536     0.000015059978     0.000005765679
      18        0.001389217226    -0.002456787254     0.001748936306
      19       -0.000004003856     0.000010571411    -0.000005803999
      20        0.000011540138    -0.000007649610     0.000007347696
      21        0.000004987413     0.000001521095    -0.000001047184
      22        0.000005004018    -0.000011488948    -0.000008198752
      23        0.000002761702    -0.000000683717     0.000011508106
      24       -0.000010584353    -0.000006417041    -0.000010405740
      25        0.000000507749     0.000000667154     0.000008154275

  **** Optimization is complete! (in 6 steps) ****
    Final optimized geometry and variables:
    Molecular point group: c1

    Geometry (in Angstrom), charge = 0, multiplicity = 1:

    O            2.747767006363     1.530967521677     0.260595924159
    C            2.248449043238     1.069378205545     1.234045596675
    C            0.975202103434     0.249599200967     1.180870820848
    C            2.856918009586     1.271530240793     2.603481204958
    C            0.397441411347     0.072172662138    -0.216118426491
    H            1.188118536085    -0.715277189569     1.635483380462
    H            0.252050248989     0.725122557064     1.839662488640
    C           -0.883093556212    -0.757604609162    -0.220602126507
    H            1.140961016691    -0.395237028519    -0.851777600700
    H            0.206034870793     1.047677856599    -0.648307048736
    C           -1.463732702262    -0.955940442535    -1.618043781455
    H           -0.686761419912    -1.731053007499     0.222821547108
    H           -1.625930405264    -0.279948324155     0.414366411001
    C           -2.796616909238    -1.720761991011    -1.636923087267
    H           -0.738831598581    -1.462030035187    -2.247801235833
    H           -1.608197363447     0.017357983591    -2.080909209808
    C           -4.025722346653    -0.818489895137    -1.595198973104
    H           -2.839148386466    -2.361560089091    -2.511099727309
    H           -2.826901230254    -2.399466591192    -0.788388705435
    H           -4.070508325918    -0.181812454836    -2.472180562574
    H           -4.939640949807    -1.400598500654    -1.560867772726
    H           -4.013167855101    -0.174619420800    -0.722002871056
    H            3.092215419083     0.313274662821     3.053383245701
    H            3.754658075546     1.864627326927     2.521400903691
    H            2.149113883535     1.769222971206     3.257220147170

  Mulliken Charges: (a.u.)
   Center  Symbol    Alpha    Beta     Spin     Total
       1     O     4.17076  4.17076  0.00000 -0.34152
       2     C     2.86215  2.86215  0.00000  0.27569
       3     C     3.11338  3.11338  0.00000 -0.22677
       4     C     3.15125  3.15125  0.00000 -0.30251
       5     C     3.08358  3.08358  0.00000 -0.16717
       6     H     0.44559  0.44559  0.00000  0.10883
       7     H     0.44570  0.44570  0.00000  0.10860
       8     C     3.09074  3.09074  0.00000 -0.18149
       9     H     0.44584  0.44584  0.00000  0.10832
      10     H     0.44559  0.44559  0.00000  0.10883
      11     C     3.09528  3.09528  0.00000 -0.19057
      12     H     0.45520  0.45520  0.00000  0.08960
      13     H     0.45531  0.45531  0.00000  0.08938
      14     C     3.09120  3.09120  0.00000 -0.18241
      15     H     0.44671  0.44671  0.00000  0.10658
      16     H     0.45511  0.45511  0.00000  0.08977
      17     C     3.14720  3.14720  0.00000 -0.29439
      18     H     0.44741  0.44741  0.00000  0.10519
      19     H     0.45699  0.45699  0.00000  0.08602
      20     H     0.45429  0.45429  0.00000  0.09142
      21     H     0.44870  0.44870  0.00000  0.10260
      22     H     0.45589  0.45589  0.00000  0.08821
      23     H     0.45040  0.45040  0.00000  0.09921
      24     H     0.43534  0.43534  0.00000  0.12931
      25     H     0.45037  0.45037  0.00000  0.09926

   Total alpha = 36.00000, Total beta = 36.00000, Total charge = -0.00000

*** Psi4 exiting successfully. Buy a developer a beer!
