  ==> Input File <==

--------------------------------------------------------------------------
set {
	reference rhf
	basis 6-31G*
}

set_num_threads( 4 )
memory 2 gb

molecule MOL {
0 1

H	 0.948903	 1.615787	 -0.146480
O	 0.055946	 1.300438	 -0.164479
C	 0.004957	 -0.004114	 0.366649
C	 1.201664	 -0.828089	 -0.095740
C	 -1.317755	 -0.601827	 -0.081511
H	 0.013527	 0.048298	 1.454924
H	 1.216388	 -0.895289	 -1.178704
H	 2.135132	 -0.372895	 0.226467
H	 1.166770	 -1.832878	 0.313827
H	 -1.355732	 -0.658248	 -1.164429
H	 -2.141614	 0.017037	 0.254547
H	 -1.447303	 -1.600817	 0.322594

	symmetry c1
}
set optking {
	frozen_dihedral = ("
		1 2 3 4
	")
}

ee = optimize('scf')
oeprop('DIPOLE', 'QUADRUPOLE', 'MULLIKEN_CHARGES')
f=open( 'psi4out.xyz', 'w' )
f.write( "12  " )
f.write( str(ee) + "\n" )
f.write( MOL.save_string_xyz() )
f.close()
--------------------------------------------------------------------------

    Molecular point group: c1
  Charge       = 0
  Multiplicity = 1
  Basis Set: 6-31G*
  Basis Set:
  @DF-RHF Final Energy:  -193.11469420265158
    Total Energy =                       -193.1146942026515489
    Molecular point group: c1
  Basis Set: 6-31G*
  Basis Set:
  Basis Set: 6-31G*
  Basis Set:
  @DF-RHF Final Energy:  -193.11472306326721
    Total Energy =                       -193.1147230632673200
  Basis Set: 6-31G*
  Basis Set:
  Basis Set: 6-31G*
  Basis Set:
  @DF-RHF Final Energy:  -193.11473360288306
    Total Energy =                       -193.1147336028831205
  Basis Set: 6-31G*
  Basis Set:
  Charge       = 0
  Multiplicity = 1
  Basis Set: 6-31G*
  Basis Set:

    Orbital Energies (a.u.)
    -----------------------

    Doubly Occupied:

       1A    -20.550364     2A    -11.275464     3A    -11.216627
       4A    -11.206568     5A     -1.359849     6A     -1.042222
       7A     -0.942074     8A     -0.804505     9A     -0.690718
      10A     -0.634278    11A     -0.605854    12A     -0.547071
      13A     -0.533980    14A     -0.527773    15A     -0.512151
      16A     -0.468753    17A     -0.428521

  @DF-RHF Final Energy:  -193.11473374898932

   => Energetics <=

    Nuclear Repulsion Energy =            135.5516326796842179
    One-Electron Energy =                -530.6391861910899479
    Two-Electron Energy =                 201.9728197624164068
    DFT Exchange-Correlation Energy =       0.0000000000000000
    Empirical Dispersion Energy =           0.0000000000000000
    PCM Polarization Energy =               0.0000000000000000
    EFP Energy =                            0.0000000000000000
    Total Energy =                       -193.1147337489893516
    Molecular point group: c1
  Basis Set: 6-31G*
  Basis Set:

  -Total Gradient:
     Atom            X                  Y                   Z
    ------   -----------------  -----------------  -----------------
       1        0.000292125503    -0.000672166011    -0.001689426591
       2       -0.000094211672     0.000988405412     0.002438188090
       3       -0.000801807596    -0.000657432664    -0.001681825767
       4        0.000614262597     0.000361947400     0.000950930640
       5       -0.000000795001    -0.000011813644    -0.000008688345
       6        0.000006207929    -0.000013276429    -0.000007104290
       7       -0.000024517558    -0.000006736605     0.000000892614
       8        0.000009561227     0.000002919873    -0.000007457522
       9        0.000002696566     0.000006897861     0.000002173467
      10       -0.000003520112    -0.000000324414     0.000001192656
      11        0.000002691620     0.000001503123    -0.000001572758
      12       -0.000002693505     0.000000076097     0.000002697807

  **** Optimization is complete! (in 4 steps) ****
    Final optimized geometry and variables:
    Molecular point group: c1

    Geometry (in Angstrom), charge = 0, multiplicity = 1:

    H            0.943243526716     1.627396947062    -0.129542009005
    O            0.053020763198     1.305845600084    -0.152459839865
    C            0.003831970451    -0.004480513096     0.365733676512
    C            1.202047587655    -0.826033190911    -0.095996605589
    C           -1.320716405098    -0.602010090255    -0.076927405642
    H            0.018362871323     0.043651029625     1.454070569480
    H            1.222771584202    -0.892709339087    -1.179472402574
    H            2.134462316930    -0.373872090296     0.234652211915
    H            1.164509699379    -1.831657426100     0.310117812138
    H           -1.356516882691    -0.679197915942    -1.158634917360
    H           -2.140865278103     0.029586871921     0.244618659430
    H           -1.460103162219    -1.591099975730     0.348086718951

  Mulliken Charges: (a.u.)
   Center  Symbol    Alpha    Beta     Spin     Total
       1     H     0.28197  0.28197  0.00000  0.43606
       2     O     4.37445  4.37445  0.00000 -0.74890
       3     C     2.91122  2.91122  0.00000  0.17756
       4     C     3.25655  3.25655  0.00000 -0.51311
       5     C     3.23981  3.23981  0.00000 -0.47962
       6     H     0.42959  0.42959  0.00000  0.14081
       7     H     0.41408  0.41408  0.00000  0.17185
       8     H     0.42406  0.42406  0.00000  0.15188
       9     H     0.41737  0.41737  0.00000  0.16525
      10     H     0.41651  0.41651  0.00000  0.16697
      11     H     0.41057  0.41057  0.00000  0.17887
      12     H     0.42381  0.42381  0.00000  0.15238

   Total alpha = 17.00000, Total beta = 17.00000, Total charge =  0.00000
