  ==> Input File <==

--------------------------------------------------------------------------
set {
	reference rhf
	basis 6-31G*
}

set_num_threads( 1 )
memory 2 gb

molecule MOL {
0 1

O	 -0.291628	 1.323815	 -0.000732
C	 -0.449655	 0.146360	 0.000961
C	 -1.783294	 -0.549321	 -0.000296
O	 0.550821	 -0.724572	 0.000672
H	 -1.863538	 -1.185371	 -0.874187
H	 -2.574672	 0.185258	 -0.002793
H	 -1.866414	 -1.182381	 0.875436
C	 1.752002	 -0.321947	 -0.632840
H	 1.577202	 -0.109290	 -1.677626
H	 2.432835	 -1.152229	 -0.528689
H	 2.157219	 0.557591	 -0.153722

	symmetry c1
}
set optking {
	frozen_dihedral = ("
		2 4 8 9
	")
}

ee = energy('scf')
oeprop('DIPOLE', 'QUADRUPOLE', 'MULLIKEN_CHARGES')
f=open( 'psi4out.xyz', 'w' )
f.write( "11  " )
f.write( str(ee) + "\n" )
f.write( MOL.save_string_xyz() )
f.close()
--------------------------------------------------------------------------

    Molecular point group: c1

    Geometry (in Angstrom), charge = 0, multiplicity = 1:

       Center              X                  Y                   Z               Mass
    ------------   -----------------  -----------------  -----------------  -----------------
           O         -0.267801504337     1.351140117852     0.133891902045    15.994914619560
           C         -0.425828504337     0.173685117852     0.135584902045    12.000000000000
           C         -1.759467504337    -0.521995882148     0.134327902045    12.000000000000
           O          0.574647495663    -0.697246882148     0.135295902045    15.994914619560
           H         -1.839711504337    -1.158045882148    -0.739563097955     1.007825032070
           H         -2.550845504337     0.212583117852     0.131830902045     1.007825032070
           H         -1.842587504337    -1.155055882148     1.010059902045     1.007825032070
           C          1.775828495663    -0.294621882148    -0.498216097955    12.000000000000
           H          1.601028495663    -0.081964882148    -1.543002097955     1.007825032070
           H          2.456661495663    -1.124903882148    -0.394065097955     1.007825032070
           H          2.181045495663     0.584916117852    -0.019098097955     1.007825032070

  Charge       = 0
  Multiplicity = 1
  Basis Set: 6-31G*
  Basis Set:

    Orbital Energies (a.u.)
    -----------------------

    Doubly Occupied:

       1A    -20.601150     2A    -20.548342     3A    -11.376861
       4A    -11.284544     5A    -11.234796     6A     -1.469845
       7A     -1.365002     8A     -1.034649     9A     -0.955182
      10A     -0.778723    11A     -0.695826    12A     -0.680630
      13A     -0.676022    14A     -0.597925    15A     -0.592449
      16A     -0.564018    17A     -0.533753    18A     -0.513114
      19A     -0.456909    20A     -0.441232

  @DF-RHF Final Energy:  -266.83103538878947

   => Energetics <=

    Nuclear Repulsion Energy =            183.2229860538483592
    One-Electron Energy =                -727.3061302091947482
    Two-Electron Energy =                 277.2521087665571713
    DFT Exchange-Correlation Energy =       0.0000000000000000
    Empirical Dispersion Energy =           0.0000000000000000
    PCM Polarization Energy =               0.0000000000000000
    EFP Energy =                            0.0000000000000000
    Total Energy =                       -266.8310353887892461

  Mulliken Charges: (a.u.)
   Center  Symbol    Alpha    Beta     Spin     Total
       1     O     4.27686  4.27686  0.00000 -0.55373
       2     C     2.62262  2.62262  0.00000  0.75477
       3     C     3.28255  3.28255  0.00000 -0.56509
       4     O     4.30081  4.30081  0.00000 -0.60162
       5     H     0.40191  0.40191  0.00000  0.19618
       6     H     0.39727  0.39727  0.00000  0.20545
       7     H     0.39897  0.39897  0.00000  0.20206
       8     C     3.09426  3.09426  0.00000 -0.18852
       9     H     0.41480  0.41480  0.00000  0.17041
      10     H     0.40716  0.40716  0.00000  0.18569
      11     H     0.40279  0.40279  0.00000  0.19441

   Total alpha = 20.00000, Total beta = 20.00000, Total charge = -0.00000
