  ==> Input File <==

--------------------------------------------------------------------------
set {
	reference rhf
	basis 6-31G*
}

set_num_threads( 4 )
memory 2 gb

molecule MOL {
0 1

H	 -2.159756	 -1.093876	 0.544784
O	 -2.347518	 -0.290803	 0.079804
C	 -1.184022	 0.487508	 -0.006784
C	 0.062599	 -0.378592	 0.031606
H	 -1.176523	 1.099369	 -0.904519
H	 -1.187323	 1.153111	 0.844927
O	 1.171513	 0.459272	 -0.058250
H	 0.050699	 -1.089204	 -0.797170
H	 0.078739	 -0.954914	 0.954740
C	 2.397842	 -0.198080	 -0.002151
H	 2.508049	 -0.905315	 -0.822092
H	 3.173794	 0.550865	 -0.078850
H	 2.517602	 -0.735921	 0.936026

	symmetry c1
}
set optking {
	frozen_dihedral = ("
		1 2 3 5
	")
}

ee = optimize('scf')
oeprop('DIPOLE', 'QUADRUPOLE', 'MULLIKEN_CHARGES')
f=open( 'psi4out.xyz', 'w' )
f.write( "13  " )
f.write( str(ee) + "\n" )
f.write( MOL.save_string_xyz() )
f.close()
--------------------------------------------------------------------------

    Molecular point group: c1
  Charge       = 0
  Multiplicity = 1
  Basis Set: 6-31G*
  Basis Set:
  @DF-RHF Final Energy:  -267.94632537790801
    Total Energy =                       -267.9463253779078400
    Molecular point group: c1
  Basis Set: 6-31G*
  Basis Set:
  Basis Set: 6-31G*
  Basis Set:
  @DF-RHF Final Energy:  -267.94767530090257
    Total Energy =                       -267.9476753009025742
  Basis Set: 6-31G*
  Basis Set:
  Basis Set: 6-31G*
  Basis Set:
  @DF-RHF Final Energy:  -267.94794970443832
    Total Energy =                       -267.9479497044382015
  Basis Set: 6-31G*
  Basis Set:
  Basis Set: 6-31G*
  Basis Set:
  @DF-RHF Final Energy:  -267.94795483495739
    Total Energy =                       -267.9479548349573861
  Basis Set: 6-31G*
  Basis Set:
  Charge       = 0
  Multiplicity = 1
  Basis Set: 6-31G*
  Basis Set:

    Orbital Energies (a.u.)
    -----------------------

    Doubly Occupied:

       1A    -20.567325     2A    -20.558330     3A    -11.278687
       4A    -11.273818     5A    -11.268687     6A     -1.393799
       7A     -1.363849     8A     -1.021622     9A     -0.915737
      10A     -0.850039    11A     -0.700296    12A     -0.681514
      13A     -0.669585    14A     -0.629795    15A     -0.602992
      16A     -0.578267    17A     -0.546286    18A     -0.497075
      19A     -0.473234    20A     -0.440314    21A     -0.426985

  @DF-RHF Final Energy:  -267.94795517152926

   => Energetics <=

    Nuclear Repulsion Energy =            190.4082355394993442
    One-Electron Energy =                -743.2359100742987721
    Two-Electron Energy =                 284.8797193632702260
    DFT Exchange-Correlation Energy =       0.0000000000000000
    Empirical Dispersion Energy =           0.0000000000000000
    PCM Polarization Energy =               0.0000000000000000
    EFP Energy =                            0.0000000000000000
    Total Energy =                       -267.9479551715291450
    Molecular point group: c1
  Basis Set: 6-31G*
  Basis Set:

  -Total Gradient:
     Atom            X                  Y                   Z
    ------   -----------------  -----------------  -----------------
       1        0.000913021565    -0.001554647834    -0.002695346920
       2       -0.000837326742     0.001404670267     0.003052702187
       3       -0.001441727743     0.002278232504     0.000873547327
       4       -0.000013452554    -0.000001023596     0.000037664890
       5        0.001349880271    -0.002100401042    -0.001234174420
       6        0.000019201569    -0.000024398945    -0.000014268179
       7        0.000017576494     0.000009448042    -0.000009014681
       8        0.000009485031     0.000001238776     0.000003358630
       9        0.000000888193    -0.000002599278    -0.000011184162
      10       -0.000015501124    -0.000015362022     0.000002326507
      11        0.000005241159     0.000000636235    -0.000003645300
      12       -0.000010932623     0.000005432461    -0.000003355751
      13        0.000003646499    -0.000001225569     0.000001389871

  **** Optimization is complete! (in 5 steps) ****
    Final optimized geometry and variables:
    Molecular point group: c1

    Geometry (in Angstrom), charge = 0, multiplicity = 1:

    H           -2.214951224822    -1.074371697402     0.532466934555
    O           -2.358993594036    -0.285982686718     0.028656047147
    C           -1.188056672623     0.487096997408    -0.018793434409
    C            0.062790051262    -0.374543025817     0.022521014409
    H           -1.198261047598     1.027442470294    -0.955473169046
    H           -1.160352624826     1.204134038530     0.795469800011
    O            1.168346512031     0.467153571587    -0.035359083034
    H            0.056858034957    -1.070814922885    -0.815407166622
    H            0.081443952455    -0.966041602368     0.941326908498
    C            2.396572058816    -0.190650443375    -0.029498846327
    H            2.494996711447    -0.854960579956    -0.885474687701
    H            3.169573710782     0.563294266017    -0.079019749439
    H            2.529909661920    -0.774114077235     0.879347226651

  Mulliken Charges: (a.u.)
   Center  Symbol    Alpha    Beta     Spin     Total
       1     H     0.28158  0.28158  0.00000  0.43684
       2     O     4.37540  4.37540  0.00000 -0.75080
       3     C     2.98721  2.98721  0.00000  0.02558
       4     C     3.01085  3.01085  0.00000 -0.02171
       5     H     0.41123  0.41123  0.00000  0.17755
       6     H     0.42040  0.42040  0.00000  0.15919
       7     O     4.30538  4.30538  0.00000 -0.61076
       8     H     0.42480  0.42480  0.00000  0.15040
       9     H     0.43684  0.43684  0.00000  0.12632
      10     C     3.08120  3.08120  0.00000 -0.16240
      11     H     0.42742  0.42742  0.00000  0.14517
      12     H     0.40926  0.40926  0.00000  0.18149
      13     H     0.42843  0.42843  0.00000  0.14314

   Total alpha = 21.00000, Total beta = 21.00000, Total charge = -0.00000
