  ==> Input File <==

--------------------------------------------------------------------------
set {
	reference rhf
	basis cc-pvtz
}

set_num_threads( 4 )
memory 2 gb

molecule MOL {
0 1

H	 -2.171709	 0.882708	 0.500286
C	 -2.016894	 0.001719	 -0.114152
O	 -0.775228	 0.000056	 -0.739966
H	 -2.760846	 0.003757	 -0.898169
H	 -2.174774	 -0.879864	 0.498643
C	 -0.224356	 1.211707	 -1.217167
C	 1.112122	 0.795110	 -1.821451
C	 -1.112044	 1.833760	 -2.296842
C	 0.007667	 2.200911	 -0.073384
H	 0.954854	 0.075651	 -2.615018
H	 1.735218	 0.332794	 -1.066389
H	 1.637854	 1.650645	 -2.228432
H	 -1.326572	 1.107545	 -3.071606
H	 -0.609324	 2.678935	 -2.751642
H	 -2.051262	 2.192951	 -1.895080
H	 0.581516	 1.733290	 0.717640
H	 0.559321	 3.061991	 -0.431288
H	 -0.922194	 2.563310	 0.346845

	symmetry c1
}
set optking {
	frozen_dihedral = ("
		6 3 2 5
	")
}

ee = optimize('scf')
oeprop('DIPOLE', 'QUADRUPOLE', 'MULLIKEN_CHARGES')
f=open( 'psi4out.xyz', 'w' )
f.write( "18  " )
f.write( str(ee) + "\n" )
f.write( MOL.save_string_xyz() )
f.close()
--------------------------------------------------------------------------

    Molecular point group: c1
  Charge       = 0
  Multiplicity = 1
  Basis Set: CC-PVTZ
  Basis Set:
  @DF-RHF Final Energy:  -271.27397202335226
    Total Energy =                       -271.2739720233521439
    Molecular point group: c1
  Basis Set: CC-PVTZ
  Basis Set:
  Basis Set: CC-PVTZ
  Basis Set:
  @DF-RHF Final Energy:  -271.27584684794675
    Total Energy =                       -271.2758468479469229
  Basis Set: CC-PVTZ
  Basis Set:
  Basis Set: CC-PVTZ
  Basis Set:
  @DF-RHF Final Energy:  -271.27631158414152
    Total Energy =                       -271.2763115841414674
  Basis Set: CC-PVTZ
  Basis Set:
  Basis Set: CC-PVTZ
  Basis Set:
  @DF-RHF Final Energy:  -271.27627540383889
    Total Energy =                       -271.2762754038388380
  Basis Set: CC-PVTZ
  Basis Set:
  @DF-RHF Final Energy:  -271.27635045265896
    Total Energy =                       -271.2763504526587894
  Basis Set: CC-PVTZ
  Basis Set:
  @DF-RHF Final Energy:  -271.27635433476320
    Total Energy =                       -271.2763543347633686
  Basis Set: CC-PVTZ
  Basis Set:
  Basis Set: CC-PVTZ
  Basis Set:
  @DF-RHF Final Energy:  -271.27635632546935
    Total Energy =                       -271.2763563254693508
  Basis Set: CC-PVTZ
  Basis Set:
  Basis Set: CC-PVTZ
  Basis Set:
  @DF-RHF Final Energy:  -271.27635790054757
    Total Energy =                       -271.2763579005475663
  Basis Set: CC-PVTZ
  Basis Set:
  Charge       = 0
  Multiplicity = 1
  Basis Set: CC-PVTZ
  Basis Set:

    Orbital Energies (a.u.)
    -----------------------

    Doubly Occupied:

       1A    -20.540011     2A    -11.280251     3A    -11.258368
       4A    -11.207963     5A    -11.206268     6A    -11.201855
       7A     -1.373155     8A     -1.074444     9A     -0.947095
      10A     -0.940567    11A     -0.913240    12A     -0.753630
      13A     -0.656563    14A     -0.646846    15A     -0.639854
      16A     -0.592645    17A     -0.574194    18A     -0.553172
      19A     -0.535704    20A     -0.525125    21A     -0.515287
      22A     -0.489860    23A     -0.488040    24A     -0.440655
      25A     -0.406507

  @DF-RHF Final Energy:  -271.27635789064169

   => Energetics <=

    Nuclear Repulsion Energy =            272.7017662196844299
    One-Electron Energy =                -908.4336499340666933
    Two-Electron Energy =                 364.4555258237405155
    DFT Exchange-Correlation Energy =       0.0000000000000000
    Empirical Dispersion Energy =           0.0000000000000000
    PCM Polarization Energy =               0.0000000000000000
    EFP Energy =                            0.0000000000000000
    Total Energy =                       -271.2763578906418047
    Molecular point group: c1
  Basis Set: CC-PVTZ
  Basis Set:

  -Total Gradient:
     Atom            X                  Y                   Z
    ------   -----------------  -----------------  -----------------
       1       -0.000003335229     0.000001009197     0.000001500559
       2       -0.000298927549    -0.000796676061    -0.000778102750
       3       -0.000514855274    -0.000230987971    -0.001323993808
       4        0.000004399934    -0.000000362570     0.000001427896
       5        0.000413185442     0.000752716915     0.001069379621
       6        0.000391229379     0.000264738307     0.001037942859
       7       -0.000003455341     0.000004165703     0.000003709980
       8        0.000006053092     0.000008183873    -0.000008864489
       9        0.000006304950    -0.000005053334    -0.000000909442
      10       -0.000005715610     0.000005460173    -0.000000446750
      11        0.000003077285    -0.000004877890    -0.000002362949
      12        0.000002364427     0.000002369658     0.000006231782
      13       -0.000003205121    -0.000000340154    -0.000003914148
      14       -0.000002313048    -0.000004255830     0.000000260254
      15        0.000005728301     0.000001122098    -0.000001692819
      16       -0.000007261853     0.000001758361     0.000002741711
      17        0.000007142320     0.000003085082     0.000000324888
      18       -0.000000416106    -0.000002055561    -0.000003232390

  **** Optimization is complete! (in 9 steps) ****
    Final optimized geometry and variables:
    Molecular point group: c1

    Geometry (in Angstrom), charge = 0, multiplicity = 1:

    H           -1.760949210942    -0.119581302321     1.448962357438
    C           -1.536281492064    -0.995923882588     0.850962582589
    O           -0.240245489361    -0.986089381545     0.344387360498
    H           -2.278791452970    -1.072916903391     0.062783435033
    H           -1.621370159062    -1.861471126660     1.493234331864
    C            0.303482924537     0.213029053875    -0.171374141896
    C            1.627091911849    -0.216447982277    -0.794414385759
    C           -0.605316250798     0.819702200700    -1.241466425282
    C            0.562944254096     1.216737704518     0.954077556940
    H            1.453107472139    -0.937978918540    -1.582559722051
    H            2.257907828690    -0.680037790019    -0.046614576983
    H            2.153274865318     0.633622852752    -1.212323782668
    H           -0.821012247070     0.089741343540    -2.012560556958
    H           -0.120755632667     1.670546644957    -1.705022704528
    H           -1.544354949995     1.164799512727    -0.826150495534
    H            1.168052805659     0.760546210827     1.727828329952
    H            1.092250813083     2.081297226511     0.571032524441
    H           -0.354757070407     1.572848892824     1.404816410442

  Mulliken Charges: (a.u.)
   Center  Symbol    Alpha    Beta     Spin     Total
       1     H     0.46996  0.46996  0.00000  0.06009
       2     C     3.04478  3.04478  0.00000 -0.08956
       3     O     4.19110  4.19110  0.00000 -0.38220
       4     H     0.46501  0.46501  0.00000  0.06998
       5     H     0.44304  0.44304  0.00000  0.11392
       6     C     2.87629  2.87629  0.00000  0.24741
       7     C     3.14186  3.14186  0.00000 -0.28372
       8     C     3.16622  3.16622  0.00000 -0.33244
       9     C     3.15952  3.15952  0.00000 -0.31903
      10     H     0.44947  0.44947  0.00000  0.10106
      11     H     0.44834  0.44834  0.00000  0.10332
      12     H     0.45929  0.45929  0.00000  0.08142
      13     H     0.44527  0.44527  0.00000  0.10947
      14     H     0.44664  0.44664  0.00000  0.10672
      15     H     0.44825  0.44825  0.00000  0.10351
      16     H     0.44631  0.44631  0.00000  0.10738
      17     H     0.44982  0.44982  0.00000  0.10036
      18     H     0.44885  0.44885  0.00000  0.10231

   Total alpha = 25.00000, Total beta = 25.00000, Total charge = -0.00000
