                              Psi4 1.0.54 Driver

  ==> Input File <==

--------------------------------------------------------------------------
set {
	reference rhf
	basis cc-pvtz
}

set_num_threads( 4 )
memory 2 gb

molecule MOL {
0 1

H	 -1.752232	 -2.214755	 -0.011938
C	 -1.343852	 -1.221619	 -0.018179
N	 -0.058800	 -1.097635	 -0.261688
C	 -2.148159	 -0.124236	 0.219734
C	 0.449026	 0.119242	 -0.273393
H	 -3.196988	 -0.237571	 0.417076
N	 -1.655094	 1.094230	 0.209506
C	 -0.370318	 1.215445	 -0.035100
C	 1.924033	 0.265863	 -0.538106
H	 0.033214	 2.210441	 -0.046812
C	 2.529365	 -0.971642	 -1.202640
H	 2.067874	 1.126023	 -1.180910
H	 2.437687	 0.471320	 0.393646
H	 3.581723	 -0.815411	 -1.407749
H	 2.028399	 -1.185382	 -2.137694
H	 2.437342	 -1.842393	 -0.563210

	symmetry c1
}
set optking {
	frozen_dihedral = ("
		12 9 5 3
	")
}

ee,wfn = optimize('scf', return_wfn=True)
oeprop( wfn, 'DIPOLE', 'QUADRUPOLE', 'MULLIKEN_CHARGES')
f=open( 'psi4out.xyz', 'w' )
f.write( "16  " )
f.write( str(ee) + "\n" )
f.write( MOL.save_string_xyz() )
f.close()
--------------------------------------------------------------------------

    Molecular point group: c1
  Charge       = 0
  Multiplicity = 1
  Basis Set: CC-PVTZ
  Basis Set:
  @DF-RHF Final Energy:  -340.87038078253028
    Total Energy =                       -340.8703807825299918
    Molecular point group: c1
  Basis Set: CC-PVTZ
  Basis Set:
  Basis Set: CC-PVTZ
  Basis Set:
  @DF-RHF Final Energy:  -340.87091485110921
    Total Energy =                       -340.8709148511091485
  Basis Set: CC-PVTZ
  Basis Set:
  Basis Set: CC-PVTZ
  Basis Set:
  @DF-RHF Final Energy:  -340.87103515852692
    Total Energy =                       -340.8710351585267517
  Basis Set: CC-PVTZ
  Basis Set:
  Basis Set: CC-PVTZ
  Basis Set:
  @DF-RHF Final Energy:  -340.87105939860402
    Total Energy =                       -340.8710593986043023
  Basis Set: CC-PVTZ
  Basis Set:
  Basis Set: CC-PVTZ
  Basis Set:
  @DF-RHF Final Energy:  -340.87107564830518
    Total Energy =                       -340.8710756483052364
  Basis Set: CC-PVTZ
  Basis Set:
  Basis Set: CC-PVTZ
  Basis Set:
  @DF-RHF Final Energy:  -340.87107826988665
    Total Energy =                       -340.8710782698867661
  Basis Set: CC-PVTZ
  Basis Set:
  Charge       = 0
  Multiplicity = 1
  Basis Set: CC-PVTZ
  Basis Set:

    Orbital Energies (a.u.)
    -----------------------

    Doubly Occupied:

       1A    -15.580350     2A    -15.575013     3A    -11.280409
       4A    -11.270800     5A    -11.269193     6A    -11.266127
       7A    -11.233538     8A    -11.211168     9A     -1.315831
      10A     -1.223929    11A     -1.084799    12A     -1.015165
      13A     -0.912034    14A     -0.890634    15A     -0.825313
      16A     -0.720484    17A     -0.708466    18A     -0.658218
      19A     -0.629271    20A     -0.604197    21A     -0.570372
      22A     -0.560789    23A     -0.523132    24A     -0.504202
      25A     -0.502037    26A     -0.487494    27A     -0.434837
      28A     -0.397211    29A     -0.345701

  @DF-RHF Final Energy:  -340.87107833736457

   => Energetics <=

    Nuclear Repulsion Energy =            350.4077504377479499
    One-Electron Energy =               -1155.3562277196315335
    Two-Electron Energy =                 464.0773989445189045
    DFT Exchange-Correlation Energy =       0.0000000000000000
    Empirical Dispersion Energy =           0.0000000000000000
    PCM Polarization Energy =               0.0000000000000000
    EFP Energy =                            0.0000000000000000
    Total Energy =                       -340.8710783373646791
    Molecular point group: c1
  Basis Set: CC-PVTZ
  Basis Set:

  -Total Gradient:
     Atom            X                  Y                   Z
    ------   -----------------  -----------------  -----------------
       1        0.000001282621     0.000004520686    -0.000069248503
       2        0.000019823874    -0.000008532669     0.000173000437
       3       -0.000095317137    -0.000001542663    -0.000310356147
       4        0.000030939955    -0.000023730584     0.000045979450
       5        0.000043119128    -0.000051427955     0.000211979826
       6       -0.000012599773     0.000013857982    -0.000049809608
       7        0.000047939317     0.000014247388    -0.000003811420
       8       -0.000067097480    -0.000005816610    -0.000050820510
       9        0.000072740404     0.000248827876     0.000302879865
      10        0.000008157866     0.000007614948     0.000044277058
      11       -0.000012199710    -0.000030218606    -0.000005664502
      12       -0.000054311553    -0.000179882231    -0.000279033812
      13        0.000011039539    -0.000004496701    -0.000011967178
      14       -0.000003255617     0.000013333212     0.000004072489
      15       -0.000004225294     0.000006973592    -0.000002300847
      16        0.000013963861    -0.000003727664     0.000000823401

  **** Optimization is complete! (in 7 steps) ****
    Final optimized geometry and variables:
    Molecular point group: c1

    Geometry (in Angstrom), charge = 0, multiplicity = 1:

    H           -1.914904276810    -1.967501760296     0.202369359801
    C           -1.423064783705    -1.013385344422     0.211439488192
    N           -0.124847292078    -1.001077056347    -0.032350678864
    C           -2.123774324456     0.141049620375     0.463435680211
    C            0.487158013969     0.158248777835    -0.026568262389
    H           -3.178387089238     0.121882299917     0.659454393742
    N           -1.520985490599     1.317016678963     0.468563059433
    C           -0.237392999218     1.325376578434     0.226108184102
    C            1.976098681979     0.222957916761    -0.276064251019
    H            0.256256959644     2.279840489242     0.225708422906
    C            2.571003967727    -1.027911758030    -0.909434348481
    H            2.179759724115     1.084423096182    -0.903314032622
    H            2.469708696914     0.420074981328     0.671734083220
    H            3.633028499096    -0.887966485050    -1.072160993818
    H            2.106258231767    -1.241629271019    -1.863941757752
    H            2.432180550580    -1.892972571308    -0.276719029921

  Mulliken Charges: (a.u.)
   Center  Symbol    Alpha    Beta     Spin     Total
       1     H     0.41466  0.41466  0.00000  0.17068
       2     C     3.04735  3.04735  0.00000 -0.09470
       3     N     3.58943  3.58943  0.00000 -0.17886
       4     C     3.04703  3.04703  0.00000 -0.09406
       5     C     2.94521  2.94521  0.00000  0.10957
       6     H     0.41365  0.41365  0.00000  0.17271
       7     N     3.58678  3.58678  0.00000 -0.17357
       8     C     3.07456  3.07456  0.00000 -0.14913
       9     C     3.08013  3.08013  0.00000 -0.16026
      10     H     0.41637  0.41637  0.00000  0.16726
      11     C     3.14394  3.14394  0.00000 -0.28788
      12     H     0.44770  0.44770  0.00000  0.10460
      13     H     0.44603  0.44603  0.00000  0.10793
      14     H     0.45020  0.45020  0.00000  0.09960
      15     H     0.45118  0.45118  0.00000  0.09765
      16     H     0.44578  0.44578  0.00000  0.10845

   Total alpha = 29.00000, Total beta = 29.00000, Total charge = -0.00000

*** Psi4 exiting successfully. Buy a developer a beer!
