                              Psi4 1.0.54 Driver

  ==> Input File <==

--------------------------------------------------------------------------
set {
	reference rhf
	basis cc-pvtz
}

set_num_threads( 4 )
memory 2 gb

molecule MOL {
0 1

H	 -4.210890	 0.206076	 -0.649757
C	 -3.400507	 -0.063585	 -0.004102
C	 -2.243795	 -0.393301	 -0.524344
H	 -3.558174	 -0.054634	 1.056492
O	 -1.189946	 -0.765863	 0.237511
H	 -2.072340	 -0.397481	 -1.585340
C	 0.026572	 -0.995256	 -0.379403
C	 1.057223	 0.049888	 -0.004615
H	 -0.054361	 -1.010670	 -1.459674
H	 0.397526	 -1.952058	 -0.044198
F	 2.203233	 -0.234060	 -0.590375
F	 0.698147	 1.254887	 -0.392621
F	 1.266440	 0.094219	 1.288722

	symmetry c1
}
set optking {
	frozen_dihedral = ("
		3 5 7 9
	")
}

ee,wfn = optimize('scf', return_wfn=True)
oeprop( wfn, 'DIPOLE', 'QUADRUPOLE', 'MULLIKEN_CHARGES')
f=open( 'psi4out.xyz', 'w' )
f.write( "13  " )
f.write( str(ee) + "\n" )
f.write( MOL.save_string_xyz() )
f.close()
--------------------------------------------------------------------------

    Molecular point group: c1
  Charge       = 0
  Multiplicity = 1
  Basis Set: CC-PVTZ
  Basis Set:
  @DF-RHF Final Energy:  -527.74128073696261
    Total Energy =                       -527.7412807369626080
    Molecular point group: c1
  Basis Set: CC-PVTZ
  Basis Set:
  Basis Set: CC-PVTZ
  Basis Set:
  @DF-RHF Final Energy:  -527.74147074804546
    Total Energy =                       -527.7414707480451170
  Basis Set: CC-PVTZ
  Basis Set:
  Basis Set: CC-PVTZ
  Basis Set:
  @DF-RHF Final Energy:  -527.74154035762581
    Total Energy =                       -527.7415403576255812
  Basis Set: CC-PVTZ
  Basis Set:
  Basis Set: CC-PVTZ
  Basis Set:
  @DF-RHF Final Energy:  -527.74155715083907
    Total Energy =                       -527.7415571508392986
  Basis Set: CC-PVTZ
  Basis Set:
  Basis Set: CC-PVTZ
  Basis Set:
  @DF-RHF Final Energy:  -527.74156964565123
    Total Energy =                       -527.7415696456516798
  Basis Set: CC-PVTZ
  Basis Set:
  Basis Set: CC-PVTZ
  Basis Set:
  @DF-RHF Final Energy:  -527.74158831888383
    Total Energy =                       -527.7415883188841690
  Basis Set: CC-PVTZ
  Basis Set:
  Basis Set: CC-PVTZ
  Basis Set:
  @DF-RHF Final Energy:  -527.74159271194139
    Total Energy =                       -527.7415927119410526
  Basis Set: CC-PVTZ
  Basis Set:
  Charge       = 0
  Multiplicity = 1
  Basis Set: CC-PVTZ
  Basis Set:

    Orbital Energies (a.u.)
    -----------------------

    Doubly Occupied:

       1A    -26.341040     2A    -26.339031     3A    -26.337186
       4A    -20.603895     5A    -11.497144     6A    -11.320422
       7A    -11.300308     8A    -11.214631     9A     -1.749482
      10A     -1.645935    11A     -1.644377    12A     -1.445047
      13A     -1.089832    14A     -1.020103    15A     -0.931477
      16A     -0.844053    17A     -0.838991    18A     -0.821334
      19A     -0.802829    20A     -0.729567    21A     -0.719122
      22A     -0.705431    23A     -0.682511    24A     -0.666640
      25A     -0.660802    26A     -0.649874    27A     -0.638004
      28A     -0.588863    29A     -0.566167    30A     -0.531147
      31A     -0.518130    32A     -0.357031

  @DF-RHF Final Energy:  -527.74159310308357

   => Energetics <=

    Nuclear Repulsion Energy =            410.9573926862447024
    One-Electron Energy =               -1545.7971560533699176
    Two-Electron Energy =                 607.0981702640411868
    DFT Exchange-Correlation Energy =       0.0000000000000000
    Empirical Dispersion Energy =           0.0000000000000000
    PCM Polarization Energy =               0.0000000000000000
    EFP Energy =                            0.0000000000000000
    Total Energy =                       -527.7415931030840284
    Molecular point group: c1
  Basis Set: CC-PVTZ
  Basis Set:

  -Total Gradient:
     Atom            X                  Y                   Z
    ------   -----------------  -----------------  -----------------
       1       -0.000004771878    -0.000015093894    -0.000008606698
       2       -0.000050024864     0.000010468918    -0.000002365843
       3       -0.000147818642    -0.000714475484     0.000003015411
       4       -0.000012754327    -0.000002231492     0.000019310328
       5        0.000307728839     0.001382172456     0.000041182591
       6       -0.000008316469    -0.000009557560    -0.000031730491
       7       -0.000349960342    -0.001554138688     0.000036972008
       8       -0.000059826827    -0.000059770965     0.000006050176
       9        0.000203802143     0.000899577358    -0.000068430198
      10        0.000029849006     0.000003804666    -0.000001528106
      11        0.000015972815     0.000047843602    -0.000030865034
      12        0.000074248201    -0.000042809525     0.000041752961
      13        0.000001872354     0.000054210605    -0.000004757114

  **** Optimization is complete! (in 8 steps) ****
    Final optimized geometry and variables:
    Molecular point group: c1

    Geometry (in Angstrom), charge = 0, multiplicity = 1:

    H           -4.188483749575     0.284283225334    -0.609040281191
    C           -3.399239612503    -0.035583149230     0.039906465345
    C           -2.196389785524    -0.215606240003    -0.449024594130
    H           -3.613826838303    -0.191932650699     1.078807981595
    O           -1.154932194566    -0.603739696659     0.318557920877
    H           -1.971291812015    -0.054922942904    -1.487871498485
    C            0.044200913295    -0.928397213754    -0.291830719334
    C            1.092636753869     0.120085396860     0.012296378797
    H           -0.043238709260    -0.995425427370    -1.368614838833
    H            0.397971555122    -1.874359236115     0.092898041300
    F            2.231141191149    -0.216091714127    -0.561015531619
    F            0.745260110210     1.301207514010    -0.449510042713
    F            1.311912519735     0.242643138221     1.298986274779

  Mulliken Charges: (a.u.)
   Center  Symbol    Alpha    Beta     Spin     Total
       1     H     0.42489  0.42489  0.00000  0.15022
       2     C     3.19853  3.19853  0.00000 -0.39706
       3     C     2.96035  2.96035  0.00000  0.07929
       4     H     0.42458  0.42458  0.00000  0.15084
       5     O     4.14412  4.14412  0.00000 -0.28825
       6     H     0.43527  0.43527  0.00000  0.12946
       7     C     3.01203  3.01203  0.00000 -0.02406
       8     C     2.67541  2.67541  0.00000  0.64918
       9     H     0.45676  0.45676  0.00000  0.08648
      10     H     0.43863  0.43863  0.00000  0.12274
      11     F     4.61289  4.61289  0.00000 -0.22579
      12     F     4.60995  4.60995  0.00000 -0.21991
      13     F     4.60658  4.60658  0.00000 -0.21317

   Total alpha = 32.00000, Total beta = 32.00000, Total charge = -0.00000

*** Psi4 exiting successfully. Buy a developer a beer!
