  ==> Input File <==

--------------------------------------------------------------------------
set {
	reference rhf
	basis 6-31G*
}

set_num_threads( 4 )
memory 2 gb

molecule MOL {
0 1

O	 0.140869	 0.678673	 1.728230
C	 0.228671	 -0.187425	 0.918348
C	 1.386847	 -1.147929	 0.790578
O	 -0.698257	 -0.426125	 0.001050
C	 2.478072	 -0.909270	 1.826548
H	 1.774368	 -1.057177	 -0.219788
H	 0.984587	 -2.153891	 0.864678
H	 2.887778	 0.089570	 1.738081
H	 3.284091	 -1.622710	 1.691815
H	 2.090941	 -1.017376	 2.832414
C	 -1.853104	 0.406779	 0.000512
C	 -3.066105	 -0.499277	 -0.000959
H	 -1.828410	 1.043074	 -0.873618
H	 -1.829857	 1.042383	 0.875188
H	 -3.071820	 -1.133106	 -0.880383
H	 -3.972708	 0.097145	 -0.001528
H	 -3.073405	 -1.133813	 0.877999

	symmetry c1
}
set optking {
	frozen_dihedral = ("
		2 4 11 13
	")
}

ee = optimize('scf')
oeprop('DIPOLE', 'QUADRUPOLE', 'MULLIKEN_CHARGES')
f=open( 'psi4out.xyz', 'w' )
f.write( "17  " )
f.write( str(ee) + "\n" )
f.write( MOL.save_string_xyz() )
f.close()
--------------------------------------------------------------------------

    Molecular point group: c1
  Charge       = 0
  Multiplicity = 1
  Basis Set: 6-31G*
  Basis Set:
  @DF-RHF Final Energy:  -344.90920176749819
    Total Energy =                       -344.9092017674986437
    Molecular point group: c1
  Basis Set: 6-31G*
  Basis Set:
  Basis Set: 6-31G*
  Basis Set:
  @DF-RHF Final Energy:  -344.90949684444365
    Total Energy =                       -344.9094968444434244
  Basis Set: 6-31G*
  Basis Set:
  Basis Set: 6-31G*
  Basis Set:
  @DF-RHF Final Energy:  -344.90977298211919
    Total Energy =                       -344.9097729821190796
  Basis Set: 6-31G*
  Basis Set:
  Basis Set: 6-31G*
  Basis Set:
  @DF-RHF Final Energy:  -344.90992993030403
    Total Energy =                       -344.9099299303040880
  Basis Set: 6-31G*
  Basis Set:
  Basis Set: 6-31G*
  Basis Set:
  @DF-RHF Final Energy:  -344.91001208203198
    Total Energy =                       -344.9100120820318125
  Basis Set: 6-31G*
  Basis Set:
  Charge       = 0
  Multiplicity = 1
  Basis Set: 6-31G*
  Basis Set:

    Orbital Energies (a.u.)
    -----------------------

    Doubly Occupied:

       1A    -20.600066     2A    -20.543861     3A    -11.372891
       4A    -11.283394     5A    -11.237028     6A    -11.221983
       7A    -11.215329     8A     -1.465047     9A     -1.362519
      10A     -1.069524    11A     -1.030843    12A     -0.912721
      13A     -0.849608    14A     -0.768891    15A     -0.700933
      16A     -0.682502    17A     -0.661068    18A     -0.627556
      19A     -0.593840    20A     -0.568766    21A     -0.555747
      22A     -0.529481    23A     -0.520131    24A     -0.514474
      25A     -0.497549    26A     -0.494038    27A     -0.448084
      28A     -0.436235

  @DF-RHF Final Energy:  -344.91002140835252

   => Energetics <=

    Nuclear Repulsion Energy =            315.1025687916576885
    One-Electron Energy =               -1094.4969619466519362
    Two-Electron Energy =                 434.4843717466414432
    DFT Exchange-Correlation Energy =       0.0000000000000000
    Empirical Dispersion Energy =           0.0000000000000000
    PCM Polarization Energy =               0.0000000000000000
    EFP Energy =                            0.0000000000000000
    Total Energy =                       -344.9100214083528613
    Molecular point group: c1
  Basis Set: 6-31G*
  Basis Set:

  -Total Gradient:
     Atom            X                  Y                   Z
    ------   -----------------  -----------------  -----------------
       1        0.000000394000     0.000018307838     0.000016037554
       2       -0.000222654656    -0.000268200256     0.000259033960
       3        0.000026699688    -0.000000522996    -0.000008739799
       4        0.000200497818     0.000337597638    -0.000535187773
       5        0.000003305515    -0.000017379159     0.000001104997
       6       -0.000004901151     0.000002130140     0.000009717892
       7       -0.000001128491     0.000005666389     0.000009921109
       8       -0.000000973385     0.000001138728    -0.000002855351
       9        0.000008809393     0.000001060936     0.000006179217
      10       -0.000000856944     0.000000326271    -0.000002481877
      11        0.000265453163     0.000224823692     0.000505256815
      12       -0.000024807268    -0.000000321962    -0.000028767834
      13       -0.000214855787    -0.000363928791    -0.000227851456
      14       -0.000010891711     0.000055656136     0.000015756892
      15       -0.000013984554    -0.000012208512     0.000002319577
      16       -0.000025472961    -0.000005270424    -0.000003572461
      17        0.000015367330     0.000021124331    -0.000015871463

  **** Optimization is complete! (in 6 steps) ****
    Final optimized geometry and variables:
    Molecular point group: c1

    Geometry (in Angstrom), charge = 0, multiplicity = 1:

    O            0.394332457420     0.984935847561     0.994387778543
    C            0.449247220801     0.121379928512     0.179333852173
    C            1.591165677693    -0.855859088603     0.029110824475
    O           -0.492365486589    -0.112535100083    -0.726135873564
    C            2.703769322177    -0.637519630177     1.046622960412
    H            1.962240422019    -0.766752235872    -0.987506943586
    H            1.175231519663    -1.855925147249     0.106214740280
    H            3.126869584148     0.355353014435     0.954524561713
    H            3.496468960936    -1.362481732889     0.895142870511
    H            2.332850885315    -0.743745454708     2.058790439767
    C           -1.669922466512     0.690603269395    -0.749147602623
    C           -2.879540885551    -0.222626144651    -0.788449134083
    H           -1.618139200033     1.301469801690    -1.641387799850
    H           -1.682172438594     1.335402780914     0.113874230616
    H           -2.834691258259    -0.886116743726    -1.644570534308
    H           -3.787813093063     0.367694812174    -0.859081892878
    H           -2.933474278386    -0.826500945122     0.110673517741

  Mulliken Charges: (a.u.)
   Center  Symbol    Alpha    Beta     Spin     Total
       1     O     4.28569  4.28569  0.00000 -0.57138
       2     C     2.60592  2.60592  0.00000  0.78816
       3     C     3.20572  3.20572  0.00000 -0.41144
       4     O     4.31447  4.31447  0.00000 -0.62895
       5     C     3.23874  3.23874  0.00000 -0.47749
       6     H     0.40061  0.40061  0.00000  0.19879
       7     H     0.40101  0.40101  0.00000  0.19797
       8     H     0.40995  0.40995  0.00000  0.18010
       9     H     0.41839  0.41839  0.00000  0.16322
      10     H     0.41021  0.41021  0.00000  0.17958
      11     C     3.01124  3.01124  0.00000 -0.02248
      12     C     3.24684  3.24684  0.00000 -0.49368
      13     H     0.41454  0.41454  0.00000  0.17091
      14     H     0.39405  0.39405  0.00000  0.21190
      15     H     0.41192  0.41192  0.00000  0.17615
      16     H     0.41735  0.41735  0.00000  0.16530
      17     H     0.41334  0.41334  0.00000  0.17333

   Total alpha = 28.00000, Total beta = 28.00000, Total charge = -0.00000
