                              Psi4 1.0.54 Driver

  ==> Input File <==

--------------------------------------------------------------------------
set {
	reference rhf
	basis cc-pvtz
}

set_num_threads( 4 )
memory 2 gb

molecule MOL {
0 1

H	 2.462485	 -2.216993	 0.000000
O	 2.777472	 -1.330706	 0.000000
C	 1.763288	 -0.447523	 0.000000
C	 1.004042	 -0.344637	 -1.156754
C	 1.465881	 0.338768	 1.092545
H	 1.252447	 -0.965373	 -1.994691
C	 -0.046473	 0.542152	 -1.214836
H	 2.034557	 0.280185	 1.997240
C	 0.404870	 1.217553	 0.998942
H	 -0.627693	 0.614825	 -2.112973
C	 -0.364662	 1.342617	 -0.130421
N	 0.094077	 2.051276	 2.165610
H	 -1.177049	 2.035304	 -0.161012
O	 0.774764	 1.923286	 3.128603
O	 -0.817535	 2.802077	 2.076395

	symmetry c1
}
set optking {
	frozen_dihedral = ("
		4 3 2 1
	")
}

ee,wfn = optimize('scf', return_wfn=True)
oeprop( wfn, 'DIPOLE', 'QUADRUPOLE', 'MULLIKEN_CHARGES')
f=open( 'psi4out.xyz', 'w' )
f.write( "15  " )
f.write( str(ee) + "\n" )
f.write( MOL.save_string_xyz() )
f.close()
--------------------------------------------------------------------------

    Molecular point group: c1
  Charge       = 0
  Multiplicity = 1
  Basis Set: CC-PVTZ
  Basis Set:
  @DF-RHF Final Energy:  -509.21358951846832
    Total Energy =                       -509.2135895184683250
    Molecular point group: c1
  Basis Set: CC-PVTZ
  Basis Set:
  Basis Set: CC-PVTZ
  Basis Set:
  @DF-RHF Final Energy:  -509.21481962802602
    Total Energy =                       -509.2148196280255661
  Basis Set: CC-PVTZ
  Basis Set:
  Basis Set: CC-PVTZ
  Basis Set:
  @DF-RHF Final Energy:  -509.21464520678768
    Total Energy =                       -509.2146452067879636
  Basis Set: CC-PVTZ
  Basis Set:
  Basis Set: CC-PVTZ
  Basis Set:
  @DF-RHF Final Energy:  -509.21423222656443
    Total Energy =                       -509.2142322265646044
  Basis Set: CC-PVTZ
  Basis Set:
  @DF-RHF Final Energy:  -509.21394026958006
    Total Energy =                       -509.2139402695800072
  @DF-RHF Final Energy:  -507.87146850707234
    Total Energy =                       -507.8714685070722226
  @DF-RHF Final Energy:  -508.10013366411744
    Total Energy =                       -508.1001336641174930
  @DF-RHF Final Energy:  -508.62923721928331
    Total Energy =                       -508.6292372192835956
  @DF-RHF Final Energy:  -509.00952024903387
    Total Energy =                       -509.0095202490339261
  @DF-RHF Final Energy:  -509.17200586607748
    Total Energy =                       -509.1720058660775976
  @DF-RHF Final Energy:  -509.21225230185809
    Total Energy =                       -509.2122523018576885
  @DF-RHF Final Energy:  -509.16312045692661
    Total Energy =                       -509.1631204569270039
  @DF-RHF Final Energy:  -509.18455336725214
    Total Energy =                       -509.1845533672521924
  @DF-RHF Final Energy:  -509.20940949211740
    Total Energy =                       -509.2094094921168335
  @DF-RHF Final Energy:  -509.21342011877857
    Total Energy =                       -509.2134201187785720
  Basis Set: CC-PVTZ
  Basis Set:
  @DF-RHF Final Energy:  -509.21480098476252
    Total Energy =                       -509.2148009847625190
  Basis Set: CC-PVTZ
  Basis Set:
  Basis Set: CC-PVTZ
  Basis Set:
  @DF-RHF Final Energy:  -509.21500626856175
    Total Energy =                       -509.2150062685615239
  Basis Set: CC-PVTZ
  Basis Set:
  Basis Set: CC-PVTZ
  Basis Set:
  @DF-RHF Final Energy:  -509.21501222563251
    Total Energy =                       -509.2150122256330178
  Basis Set: CC-PVTZ
  Basis Set:
  Charge       = 0
  Multiplicity = 1
  Basis Set: CC-PVTZ
  Basis Set:

    Orbital Energies (a.u.)
    -----------------------

    Doubly Occupied:

       1A    -20.596072     2A    -20.593198     3A    -20.592954
       4A    -15.849129     5A    -11.319955     6A    -11.306929
       7A    -11.264214     8A    -11.263037     9A    -11.262443
      10A    -11.261776    11A     -1.642874    12A     -1.425556
      13A     -1.425047    14A     -1.202760    15A     -1.094986
      16A     -1.048780    17A     -0.964680    18A     -0.868165
      19A     -0.840464    20A     -0.798348    21A     -0.742345
      22A     -0.738838    23A     -0.722867    24A     -0.712619
      25A     -0.685311    26A     -0.644918    27A     -0.628101
      28A     -0.570927    29A     -0.560936    30A     -0.533104
      31A     -0.516585    32A     -0.493371    33A     -0.488666
      34A     -0.458656    35A     -0.380321    36A     -0.359041

  @DF-RHF Final Energy:  -509.21501330528878

   => Energetics <=

    Nuclear Repulsion Energy =            504.0768162568944604
    One-Electron Energy =               -1694.8677123291854514
    Two-Electron Energy =                 681.5758827670020992
    DFT Exchange-Correlation Energy =       0.0000000000000000
    Empirical Dispersion Energy =           0.0000000000000000
    PCM Polarization Energy =               0.0000000000000000
    EFP Energy =                            0.0000000000000000
    Total Energy =                       -509.2150133052888350
    Molecular point group: c1
  Basis Set: CC-PVTZ
  Basis Set:

  -Total Gradient:
     Atom            X                  Y                   Z
    ------   -----------------  -----------------  -----------------
       1        0.000991209860    -0.000224019931     0.000848702664
       2       -0.001167614557     0.000636158570    -0.001336265194
       3        0.000190572608    -0.001168904115     0.000994057725
       4       -0.000022884525     0.000814173067    -0.000439518450
       5        0.000026994309    -0.000089243444    -0.000030685545
       6       -0.000015885247    -0.000006222496    -0.000027641321
       7        0.000003422013    -0.000038290617    -0.000101028235
       8        0.000030613400     0.000011376809     0.000004457688
       9       -0.000085342589     0.000050967804     0.000001736929
      10       -0.000040958071     0.000002591706     0.000002363505
      11        0.000087037745    -0.000004662957     0.000046672042
      12        0.000040792928     0.000086125135     0.000157780695
      13       -0.000020510628     0.000013552716     0.000012571435
      14       -0.000159783843     0.000026571973     0.000007312280
      15        0.000142336601    -0.000110174217    -0.000140516228

  **** Optimization is complete! (in 16 steps) ****
    Final optimized geometry and variables:
    Molecular point group: c1

    Geometry (in Angstrom), charge = 0, multiplicity = 1:

    H            0.598203324709    -2.665876671466    -2.352340676693
    O            0.747590979309    -1.738470322074    -2.416129307189
    C            0.034535193113    -1.061760537680    -1.475382216980
    C           -1.343449223220    -0.970047202249    -1.557280543875
    C            0.714214040465    -0.408953040528    -0.468801328005
    H           -1.854554395469    -1.464813525520    -2.360670399169
    C           -2.047515546412    -0.240390446856    -0.619915247272
    H            1.779489581420    -0.464567302458    -0.408548036831
    C           -0.014428349302     0.319591557047     0.446768467437
    H           -3.115632098221    -0.176035642890    -0.687671781679
    C           -1.386769945939     0.417694425112     0.398378335721
    N            0.706543488128     1.014103917066     1.518541907736
    H           -1.913194541263     0.992468273398     1.129081991653
    O            1.886728441618     0.910118217779     1.543390041517
    O            0.064546533245     1.636996935793     2.296148357987

  Mulliken Charges: (a.u.)
   Center  Symbol    Alpha    Beta     Spin     Total
       1     H     0.38489  0.38489  0.00000  0.23022
       2     O     4.18374  4.18374  0.00000 -0.36748
       3     C     2.86772  2.86772  0.00000  0.26456
       4     C     3.10367  3.10367  0.00000 -0.20734
       5     C     3.10737  3.10737  0.00000 -0.21475
       6     H     0.41415  0.41415  0.00000  0.17170
       7     C     3.06628  3.06628  0.00000 -0.13255
       8     H     0.39126  0.39126  0.00000  0.21748
       9     C     2.97740  2.97740  0.00000  0.04521
      10     H     0.41540  0.41540  0.00000  0.16920
      11     C     3.08698  3.08698  0.00000 -0.17395
      12     N     3.25050  3.25050  0.00000  0.49900
      13     H     0.39875  0.39875  0.00000  0.20249
      14     O     4.17528  4.17528  0.00000 -0.35056
      15     O     4.17662  4.17662  0.00000 -0.35323

   Total alpha = 36.00000, Total beta = 36.00000, Total charge =  0.00000

*** Psi4 exiting successfully. Buy a developer a beer!
