                              Psi4 1.0.54 Driver

  ==> Input File <==

--------------------------------------------------------------------------
set {
	reference rhf
	basis cc-pvtz
}

set_num_threads( 4 )
memory 2 gb

molecule MOL {
0 1

H	 2.828711	 -0.346904	 0.001083
C	 1.876752	 0.015931	 -0.363450
C	 0.776285	 -0.474665	 0.563092
H	 1.728113	 -0.357244	 -1.367440
H	 1.906171	 1.096574	 -0.386153
N	 -0.540022	 0.017605	 0.071630
H	 0.707111	 -1.548969	 0.573035
H	 0.886169	 -0.084184	 1.560432
O	 -0.998467	 0.968827	 0.609403
O	 -1.053410	 -0.592398	 -0.805140

	symmetry c1
}
set optking {
	frozen_dihedral = ("
		9 6 3 2
	")
}

ee,wfn = optimize('scf', return_wfn=True)
oeprop( wfn, 'DIPOLE', 'QUADRUPOLE', 'MULLIKEN_CHARGES')
f=open( 'psi4out.xyz', 'w' )
f.write( "10  " )
f.write( str(ee) + "\n" )
f.write( MOL.save_string_xyz() )
f.close()
--------------------------------------------------------------------------

    Molecular point group: c1
  Charge       = 0
  Multiplicity = 1
  Basis Set: CC-PVTZ
  Basis Set:
  @DF-RHF Final Energy:  -282.81314363755854
    Total Energy =                       -282.8131436375584826
    Molecular point group: c1
  Basis Set: CC-PVTZ
  Basis Set:
  Basis Set: CC-PVTZ
  Basis Set:
  @DF-RHF Final Energy:  -282.80656770134749
    Total Energy =                       -282.8065677013474328
  Basis Set: CC-PVTZ
  Basis Set:
  Basis Set: CC-PVTZ
  Basis Set:
  @DF-RHF Final Energy:  -282.81193714320466
    Total Energy =                       -282.8119371432046592
  Basis Set: CC-PVTZ
  Basis Set:
  Basis Set: CC-PVTZ
  Basis Set:
  @DF-RHF Final Energy:  -282.81329802575158
    Total Energy =                       -282.8132980257516920
  Basis Set: CC-PVTZ
  Basis Set:
  Basis Set: CC-PVTZ
  Basis Set:
  @DF-RHF Final Energy:  -282.81333618881501
    Total Energy =                       -282.8133361888150148
  Basis Set: CC-PVTZ
  Basis Set:
  Basis Set: CC-PVTZ
  Basis Set:
  @DF-RHF Final Energy:  -282.81333822193426
    Total Energy =                       -282.8133382219341456
  Basis Set: CC-PVTZ
  Basis Set:
  Charge       = 0
  Multiplicity = 1
  Basis Set: CC-PVTZ
  Basis Set:

    Orbital Energies (a.u.)
    -----------------------

    Doubly Occupied:

       1A    -20.592953     2A    -20.590867     3A    -15.838409
       4A    -11.301836     5A    -11.250679     6A     -1.637667
       7A     -1.422104     8A     -1.126490     9A     -0.966842
      10A     -0.839663    11A     -0.763622    12A     -0.739857
      13A     -0.730164    14A     -0.659499    15A     -0.590588
      16A     -0.560385    17A     -0.549300    18A     -0.488558
      19A     -0.479345    20A     -0.454899

  @DF-RHF Final Energy:  -282.81333850630870

   => Energetics <=

    Nuclear Repulsion Energy =            186.7681949231343879
    One-Electron Energy =                -755.9956108034546105
    Two-Electron Energy =                 286.4140773740115264
    DFT Exchange-Correlation Energy =       0.0000000000000000
    Empirical Dispersion Energy =           0.0000000000000000
    PCM Polarization Energy =               0.0000000000000000
    EFP Energy =                            0.0000000000000000
    Total Energy =                       -282.8133385063086962
    Molecular point group: c1
  Basis Set: CC-PVTZ
  Basis Set:

  -Total Gradient:
     Atom            X                  Y                   Z
    ------   -----------------  -----------------  -----------------
       1       -0.000003123643    -0.000000859975     0.000002934660
       2        0.000002145155    -0.000048589092    -0.000038205989
       3       -0.000025093437     0.000043494673     0.000050877048
       4       -0.000001461913    -0.000000195402     0.000002493926
       5        0.000001566366     0.000004028068    -0.000002292614
       6        0.000026633747     0.000050832948    -0.000084083471
       7       -0.000000652507    -0.000002080850     0.000004482460
       8       -0.000007445425     0.000004360710    -0.000004446151
       9       -0.000015504310    -0.000043058262     0.000072870591
      10        0.000022935964    -0.000007932817    -0.000004630461

  **** Optimization is complete! (in 7 steps) ****
    Final optimized geometry and variables:
    Molecular point group: c1

    Geometry (in Angstrom), charge = 0, multiplicity = 1:

    H            2.851428357703     0.004292193280    -0.047762842373
    C            1.856469730958     0.228396150266    -0.409280375337
    C            0.839906061309    -0.350490461903     0.560594597402
    H            1.739549672723    -0.205114605943    -1.392195136710
    H            1.752255565999     1.302983005892    -0.479788168917
    N           -0.536921197486    -0.044171100925     0.083078355161
    H            0.901937839965    -1.425096663059     0.609120475104
    H            0.918765291002     0.084770934222     1.541451899044
    O           -1.101521625902     0.865161740418     0.590619472119
    O           -0.965746804387    -0.719884833633    -0.791418009995

  Mulliken Charges: (a.u.)
   Center  Symbol    Alpha    Beta     Spin     Total
       1     H     0.44797  0.44797  0.00000  0.10406
       2     C     3.14087  3.14087  0.00000 -0.28173
       3     C     3.03744  3.03744  0.00000 -0.07489
       4     H     0.43915  0.43915  0.00000  0.12170
       5     H     0.44249  0.44249  0.00000  0.11502
       6     N     3.27665  3.27665  0.00000  0.44670
       7     H     0.43576  0.43576  0.00000  0.12848
       8     H     0.43391  0.43391  0.00000  0.13219
       9     O     4.17114  4.17114  0.00000 -0.34227
      10     O     4.17463  4.17463  0.00000 -0.34925

   Total alpha = 20.00000, Total beta = 20.00000, Total charge = -0.00000

*** Psi4 exiting successfully. Buy a developer a beer!
