                              Psi4 1.0.54 Driver

  ==> Input File <==

--------------------------------------------------------------------------
set {
	reference rhf
	basis cc-pvtz
}

set_num_threads( 4 )
memory 2 gb

molecule MOL {
0 1

H	 -3.907921	 0.997695	 -0.362894
C	 -3.203596	 0.409279	 0.188469
C	 -2.105997	 -0.000418	 -0.398703
H	 -3.416172	 0.171623	 1.212251
O	 -1.189946	 -0.765863	 0.237511
H	 -1.878966	 0.239041	 -1.421563
C	 0.026572	 -0.995256	 -0.379403
C	 1.057223	 0.049888	 -0.004615
H	 -0.054361	 -1.010670	 -1.459674
H	 0.397526	 -1.952058	 -0.044198
F	 2.203233	 -0.234060	 -0.590375
F	 0.698147	 1.254887	 -0.392621
F	 1.266440	 0.094219	 1.288722

	symmetry c1
}
set optking {
	frozen_dihedral = ("
		6 3 5 7
	")
}

ee,wfn = optimize('scf', return_wfn=True)
oeprop( wfn, 'DIPOLE', 'QUADRUPOLE', 'MULLIKEN_CHARGES')
f=open( 'psi4out.xyz', 'w' )
f.write( "13  " )
f.write( str(ee) + "\n" )
f.write( MOL.save_string_xyz() )
f.close()
--------------------------------------------------------------------------

    Molecular point group: c1
  Charge       = 0
  Multiplicity = 1
  Basis Set: CC-PVTZ
  Basis Set:
  @DF-RHF Final Energy:  -527.74206459646780
    Total Energy =                       -527.7420645964671166
    Molecular point group: c1
  Basis Set: CC-PVTZ
  Basis Set:
  Basis Set: CC-PVTZ
  Basis Set:
  @DF-RHF Final Energy:  -527.74206437671523
    Total Energy =                       -527.7420643767156889
  Basis Set: CC-PVTZ
  Basis Set:
  Basis Set: CC-PVTZ
  Basis Set:
  @DF-RHF Final Energy:  -527.74207086452770
    Total Energy =                       -527.7420708645279319
  Basis Set: CC-PVTZ
  Basis Set:
  Charge       = 0
  Multiplicity = 1
  Basis Set: CC-PVTZ
  Basis Set:

    Orbital Energies (a.u.)
    -----------------------

    Doubly Occupied:

       1A    -26.341677     2A    -26.340341     3A    -26.337920
       4A    -20.604103     5A    -11.497698     6A    -11.320099
       7A    -11.298619     8A    -11.213913     9A     -1.750323
      10A     -1.646792    11A     -1.645242    12A     -1.444668
      13A     -1.088084    14A     -1.020683    15A     -0.932165
      16A     -0.843877    17A     -0.839452    18A     -0.826833
      19A     -0.798607    20A     -0.728298    21A     -0.719160
      22A     -0.703214    23A     -0.681778    24A     -0.668255
      25A     -0.661483    26A     -0.650769    27A     -0.641715
      28A     -0.587351    29A     -0.566427    30A     -0.528379
      31A     -0.518676    32A     -0.356916

  @DF-RHF Final Energy:  -527.74207120965889

   => Energetics <=

    Nuclear Repulsion Energy =            413.7599547836752549
    One-Electron Energy =               -1551.3970219503867156
    Two-Electron Energy =                 609.8949959570525152
    DFT Exchange-Correlation Energy =       0.0000000000000000
    Empirical Dispersion Energy =           0.0000000000000000
    PCM Polarization Energy =               0.0000000000000000
    EFP Energy =                            0.0000000000000000
    Total Energy =                       -527.7420712096588886
    Molecular point group: c1
  Basis Set: CC-PVTZ
  Basis Set:

  -Total Gradient:
     Atom            X                  Y                   Z
    ------   -----------------  -----------------  -----------------
       1       -0.000006659162    -0.000013498226    -0.000005623604
       2        0.000015113677     0.000002633263    -0.000010738358
       3        0.000097893519     0.000234871692     0.000154009211
       4       -0.000000683322    -0.000000472416     0.000003159345
       5       -0.000110989791    -0.000191061055    -0.000128216261
       6       -0.000076775714    -0.000143778535    -0.000070962190
       7        0.000049785714     0.000084570221     0.000059537584
       8       -0.000013538837     0.000021958436     0.000009915223
       9       -0.000000201651     0.000007998006    -0.000001631796
      10       -0.000000271984    -0.000004110467    -0.000005308628
      11        0.000004767736    -0.000002416068    -0.000003929800
      12        0.000041937190     0.000005185365    -0.000002290604
      13       -0.000000377371    -0.000001880215     0.000002079875

  **** Optimization is complete! (in 4 steps) ****
    Final optimized geometry and variables:
    Molecular point group: c1

    Geometry (in Angstrom), charge = 0, multiplicity = 1:

    H           -3.912202255437     0.989255548499    -0.364332351649
    C           -3.208077377656     0.400742347619     0.187231566426
    C           -2.106274709949    -0.001669900708    -0.396938365663
    H           -3.425347385588     0.155102751165     1.208144181700
    O           -1.194518563773    -0.775411382817     0.235381954328
    H           -1.875112463775     0.244375250228    -1.417538257299
    C            0.022383115818    -1.004383860491    -0.380680526394
    C            1.052654043518     0.042325526453    -0.008802429150
    H           -0.058689640035    -1.021987442453    -1.461037229083
    H            0.394132472383    -1.960088078460    -0.043328569387
    F            2.199582364416    -0.244980112238    -0.591216888675
    F            0.695083665225     1.245600918113    -0.403015730130
    F            1.259613908818     0.092327858649     1.284768412465

  Mulliken Charges: (a.u.)
   Center  Symbol    Alpha    Beta     Spin     Total
       1     H     0.42513  0.42513  0.00000  0.14975
       2     C     3.19655  3.19655  0.00000 -0.39310
       3     C     2.95902  2.95902  0.00000  0.08196
       4     H     0.42462  0.42462  0.00000  0.15075
       5     O     4.14459  4.14459  0.00000 -0.28917
       6     H     0.43490  0.43490  0.00000  0.13020
       7     C     3.01938  3.01938  0.00000 -0.03875
       8     C     2.67558  2.67558  0.00000  0.64883
       9     H     0.45516  0.45516  0.00000  0.08968
      10     H     0.43538  0.43538  0.00000  0.12925
      11     F     4.61262  4.61262  0.00000 -0.22524
      12     F     4.61023  4.61023  0.00000 -0.22046
      13     F     4.60685  4.60685  0.00000 -0.21369

   Total alpha = 32.00000, Total beta = 32.00000, Total charge = -0.00000

*** Psi4 exiting successfully. Buy a developer a beer!
