  ==> Input File <==

--------------------------------------------------------------------------
set {
	reference rhf
	basis cc-pvtz
}

set_num_threads( 4 )
memory 2 gb

molecule MOL {
0 1

H	 1.388821	 0.775378	 0.893838
C	 0.848385	 0.440008	 0.000011
C	 -0.623497	 0.751021	 0.000090
O	 1.424667	 -0.118302	 -0.867994
C	 -1.523725	 -0.474323	 -0.000013
H	 -0.813143	 1.382932	 -0.864897
H	 -0.813071	 1.382716	 0.865253
H	 -1.342980	 -1.087348	 -0.873016
H	 -2.565269	 -0.177464	 0.000070
H	 -1.342898	 -1.087564	 0.872820

	symmetry c1
}
set optking {
	frozen_dihedral = ("
		4 2 3 6
	")
}

ee = optimize('scf')
oeprop('DIPOLE', 'QUADRUPOLE', 'MULLIKEN_CHARGES')
f=open( 'psi4out.xyz', 'w' )
f.write( "10  " )
f.write( str(ee) + "\n" )
f.write( MOL.save_string_xyz() )
f.close()
--------------------------------------------------------------------------

    Molecular point group: c1
  Charge       = 0
  Multiplicity = 1
  Basis Set: CC-PVTZ
  Basis Set:
  @DF-RHF Final Energy:  -192.02063151999482
    Total Energy =                       -192.0206315199947653
    Molecular point group: c1
  Basis Set: CC-PVTZ
  Basis Set:
  Basis Set: CC-PVTZ
  Basis Set:
  @DF-RHF Final Energy:  -192.02141748743003
    Total Energy =                       -192.0214174874299715
  Basis Set: CC-PVTZ
  Basis Set:
  Basis Set: CC-PVTZ
  Basis Set:
  @DF-RHF Final Energy:  -192.02144425082116
    Total Energy =                       -192.0214442508210482
  Basis Set: CC-PVTZ
  Basis Set:
  Basis Set: CC-PVTZ
  Basis Set:
  @DF-RHF Final Energy:  -192.02132283480455
    Total Energy =                       -192.0213228348044368
  Basis Set: CC-PVTZ
  Basis Set:
  Basis Set: CC-PVTZ
  Basis Set:
  @DF-RHF Final Energy:  -192.02146120371594
    Total Energy =                       -192.0214612037158872
  Basis Set: CC-PVTZ
  Basis Set:
  Charge       = 0
  Multiplicity = 1
  Basis Set: CC-PVTZ
  Basis Set:

    Orbital Energies (a.u.)
    -----------------------

    Doubly Occupied:

       1A    -20.553487     2A    -11.323478     3A    -11.237706
       4A    -11.225510     5A     -1.409082     6A     -1.061536
       7A     -0.906316     8A     -0.784011     9A     -0.686165
      10A     -0.642080    11A     -0.612032    12A     -0.569543
      13A     -0.538577    14A     -0.512374    15A     -0.495279
      16A     -0.414484

  @DF-RHF Final Energy:  -192.02146150057820

   => Energetics <=

    Nuclear Repulsion Energy =            118.8080261609127746
    One-Electron Energy =                -495.7156551553489976
    Two-Electron Energy =                 184.8861674938579540
    DFT Exchange-Correlation Energy =       0.0000000000000000
    Empirical Dispersion Energy =           0.0000000000000000
    PCM Polarization Energy =               0.0000000000000000
    EFP Energy =                            0.0000000000000000
    Total Energy =                       -192.0214615005782548
    Molecular point group: c1
  Basis Set: CC-PVTZ
  Basis Set:

  -Total Gradient:
     Atom            X                  Y                   Z
    ------   -----------------  -----------------  -----------------
       1        0.000000415821    -0.000002929628    -0.000008955868
       2       -0.000063466517    -0.000432264520     0.000163138411
       3        0.000040673726     0.000383601557     0.000139083354
       4        0.000066196592     0.000266887402    -0.000135914372
       5        0.000030188410     0.000046493789     0.000001271481
       6       -0.000047760053    -0.000246653282    -0.000150974464
       7       -0.000004593202    -0.000005761729    -0.000008245742
       8       -0.000001425415     0.000001655992    -0.000001416711
       9       -0.000017719832    -0.000008316005     0.000000536168
      10       -0.000002509527    -0.000002713577     0.000001477743

  **** Optimization is complete! (in 6 steps) ****
    Final optimized geometry and variables:
    Molecular point group: c1

    Geometry (in Angstrom), charge = 0, multiplicity = 1:

    H            1.423114219300     0.649693889915     1.081322130869
    C            0.829303382797     0.307113973871     0.225847667048
    C           -0.642220563283     0.653483879505     0.240063639807
    O            1.347658916276    -0.299355417219    -0.646821745156
    C           -1.521114347121    -0.598087415609     0.213817440000
    H           -0.836913444987     1.255019391620    -0.641473410024
    H           -0.864167640300     1.260564313953     1.109717307995
    H           -1.297289657658    -1.198684519039    -0.656858773918
    H           -2.567910399493    -0.323505860308     0.184046297505
    H           -1.361073192280    -1.208449186540     1.095363189982

  Mulliken Charges: (a.u.)
   Center  Symbol    Alpha    Beta     Spin     Total
       1     H     0.45732  0.45732  0.00000  0.08535
       2     C     2.90867  2.90867  0.00000  0.18266
       3     C     3.08403  3.08403  0.00000 -0.16806
       4     O     4.16800  4.16800  0.00000 -0.33600
       5     C     3.14375  3.14375  0.00000 -0.28750
       6     H     0.44434  0.44434  0.00000  0.11132
       7     H     0.44986  0.44986  0.00000  0.10029
       8     H     0.44193  0.44193  0.00000  0.11614
       9     H     0.44818  0.44818  0.00000  0.10365
      10     H     0.45393  0.45393  0.00000  0.09214

   Total alpha = 16.00000, Total beta = 16.00000, Total charge = -0.00000
