  ==> Input File <==

--------------------------------------------------------------------------
set {
	reference rhf
	basis 6-31G*
}

set_num_threads( 4 )
memory 2 gb

molecule MOL {
0 1

H	 1.999832	 0.069849	 -0.727879
C	 1.138537	 -0.484033	 -0.414394
C	 1.131025	 -1.867295	 -0.411660
C	 0.000000	 0.183220	 0.000000
H	 2.005206	 -2.404452	 -0.729835
C	 0.000000	 -2.555744	 0.000000
N	 0.000000	 1.642018	 0.000000
C	 -1.138537	 -0.484034	 0.414394
H	 0.000000	 -3.630640	 0.000000
C	 -1.131025	 -1.867295	 0.411660
O	 1.057097	 2.196749	 0.000000
O	 -1.057097	 2.196749	 0.000000
H	 -1.999832	 0.069849	 0.727879
H	 -2.005206	 -2.404452	 0.729835

	symmetry c1
}
set optking {
	frozen_dihedral = ("
		2 4 7 11
	")
}

ee = optimize('scf')
oeprop('DIPOLE', 'QUADRUPOLE', 'MULLIKEN_CHARGES')
f=open( 'psi4out.xyz', 'w' )
f.write( "14  " )
f.write( str(ee) + "\n" )
f.write( MOL.save_string_xyz() )
f.close()
--------------------------------------------------------------------------

    Molecular point group: c1
  Charge       = 0
  Multiplicity = 1
  Basis Set: 6-31G*
  Basis Set:
  @DF-RHF Final Energy:  -434.17353307805939
    Total Energy =                       -434.1735330780591084
    Molecular point group: c1
  Basis Set: 6-31G*
  Basis Set:
  Basis Set: 6-31G*
  Basis Set:
  @DF-RHF Final Energy:  -434.16915896530162
    Total Energy =                       -434.1691589653016763
  Basis Set: 6-31G*
  Basis Set:
  Basis Set: 6-31G*
  Basis Set:
  @DF-RHF Final Energy:  -434.17353044048002
    Total Energy =                       -434.1735304404797944
  Basis Set: 6-31G*
  Basis Set:
  Basis Set: 6-31G*
  Basis Set:
  @DF-RHF Final Energy:  -434.17361125673523
    Total Energy =                       -434.1736112567350574
  Basis Set: 6-31G*
  Basis Set:
  Basis Set: 6-31G*
  Basis Set:
  @DF-RHF Final Energy:  -434.17361138240983
    Total Energy =                       -434.1736113824094900
  Basis Set: 6-31G*
  Basis Set:
  Charge       = 0
  Multiplicity = 1
  Basis Set: 6-31G*
  Basis Set:

    Orbital Energies (a.u.)
    -----------------------

    Doubly Occupied:

       1A    -20.601523     2A    -20.601457     3A    -15.855557
       4A    -11.304090     5A    -11.270966     6A    -11.270890
       7A    -11.267896     8A    -11.261376     9A    -11.261255
      10A     -1.634401    11A     -1.417800    12A     -1.201645
      13A     -1.094668    14A     -1.052800    15A     -0.957980
      16A     -0.865371    17A     -0.825248    18A     -0.783825
      19A     -0.733397    20A     -0.728765    21A     -0.709773
      22A     -0.654015    23A     -0.650041    24A     -0.624498
      25A     -0.553823    26A     -0.536856    27A     -0.529758
      28A     -0.488718    29A     -0.487913    30A     -0.451134
      31A     -0.373297    32A     -0.365752

  @DF-RHF Final Energy:  -434.17361159382330

   => Energetics <=

    Nuclear Repulsion Energy =            417.1639496184341738
    One-Electron Energy =               -1417.8421451430708657
    Two-Electron Energy =                 566.5045839308129416
    DFT Exchange-Correlation Energy =       0.0000000000000000
    Empirical Dispersion Energy =           0.0000000000000000
    PCM Polarization Energy =               0.0000000000000000
    EFP Energy =                            0.0000000000000000
    Total Energy =                       -434.1736115938238072
    Molecular point group: c1
  Basis Set: 6-31G*
  Basis Set:

  -Total Gradient:
     Atom            X                  Y                   Z
    ------   -----------------  -----------------  -----------------
       1       -0.000001261710    -0.000001623128     0.000000864802
       2       -0.000658691016    -0.000028221149    -0.001770473679
       3        0.000004520381     0.000004570306     0.000004565456
       4        0.000963996240     0.000046185283     0.003385314834
       5       -0.000000239516    -0.000000350222    -0.000000351306
       6       -0.000004741172     0.000000185751     0.000005172298
       7       -0.000321668339    -0.000042435029    -0.003758064327
       8        0.000003914077     0.000003408601     0.000001532872
       9        0.000000363623     0.000000324066    -0.000000639459
      10        0.000000358296    -0.000005315321    -0.000010391006
      11        0.000018388060     0.000022882918     0.002146628690
      12       -0.000005603937     0.000000454560    -0.000005099080
      13        0.000000639907    -0.000000964222    -0.000000002020
      14        0.000000025108     0.000000897580     0.000000941924

  **** Optimization is complete! (in 6 steps) ****
    Final optimized geometry and variables:
    Molecular point group: c1

    Geometry (in Angstrom), charge = 0, multiplicity = 1:

    H            2.004322639670     0.072318863697    -0.715252201025
    C            1.141047692712    -0.482521428866    -0.407528342717
    C            1.130437023193    -1.865887783982    -0.413599358896
    C            0.003989224513     0.183281931481     0.011059811820
    H            2.001618945981    -2.403090358565    -0.739699392171
    C           -0.000243295790    -2.554010211701    -0.000166538110
    N           -0.000332812738     1.640696997638    -0.004947448206
    C           -1.139709058222    -0.482191009494     0.411808514666
    H           -0.001311306047    -3.628914545296    -0.002643102557
    C           -1.130660533296    -1.865553570844     0.413666814322
    O            1.056286005074     2.196352448300    -0.021497288710
    O           -1.059331800756     2.191444603223     0.015103796532
    H           -2.004972199692     0.072570749607     0.713808569599
    H           -2.004574602007    -2.402672656438     0.732526266807

  Mulliken Charges: (a.u.)
   Center  Symbol    Alpha    Beta     Spin     Total
       1     H     0.36583  0.36583  0.00000  0.26834
       2     C     3.08553  3.08553  0.00000 -0.17106
       3     C     3.10827  3.10827  0.00000 -0.21654
       4     C     2.91870  2.91870  0.00000  0.16260
       5     H     0.38848  0.38848  0.00000  0.22305
       6     C     3.08659  3.08659  0.00000 -0.17317
       7     N     3.24551  3.24551  0.00000  0.50898
       8     C     3.08484  3.08484  0.00000 -0.16967
       9     H     0.38898  0.38898  0.00000  0.22203
      10     C     3.10833  3.10833  0.00000 -0.21666
      11     O     4.23201  4.23201  0.00000 -0.46402
      12     O     4.23266  4.23266  0.00000 -0.46532
      13     H     0.36580  0.36580  0.00000  0.26840
      14     H     0.38847  0.38847  0.00000  0.22306

   Total alpha = 32.00000, Total beta = 32.00000, Total charge =  0.00000
