  ==> Input File <==

--------------------------------------------------------------------------
set {
	reference rhf
	basis 6-31G*
}

set_num_threads( 1 )
memory 2 gb

molecule MOL {
0 1

H	 -3.057506	 -1.262243	 1.346269
C	 -3.194841	 -0.864029	 0.333261
C	 -2.736710	 0.559190	 0.140450
O	 -3.674742	 -1.543128	 -0.515427
C	 -1.294215	 0.782652	 0.615347
H	 -2.856854	 0.818587	 -0.905011
H	 -3.406881	 1.192306	 0.720701
C	 -0.252658	 0.041456	 -0.226725
H	 -1.085478	 1.848084	 0.591518
H	 -1.206143	 0.480369	 1.657761
C	 1.180775	 0.282413	 0.250794
H	 -0.346944	 0.353352	 -1.264838
H	 -0.459997	 -1.026898	 -0.213733
C	 2.148627	 -0.814315	 -0.201312
H	 1.516199	 1.249228	 -0.115937
H	 1.192670	 0.346017	 1.338083
C	 3.580890	 -0.659131	 0.322722
H	 2.166869	 -0.852443	 -1.289387
H	 1.762857	 -1.776509	 0.128956
C	 4.324889	 0.564933	 -0.213704
H	 4.142010	 -1.551473	 0.056605
H	 3.564836	 -0.624694	 1.410140
H	 4.342616	 0.565491	 -1.300421
H	 3.866655	 1.493402	 0.110242
H	 5.353900	 0.572371	 0.132816

	symmetry c1
}
set optking {
	frozen_dihedral = ("
		6 3 5 8,
		6 3 2 4,
		3 5 8 12,
		8 11 14 18,
		20 17 14 18
	")
}

ee = energy('scf')
oeprop('DIPOLE', 'QUADRUPOLE', 'MULLIKEN_CHARGES')
f=open( 'psi4out.xyz', 'w' )
f.write( "25  " )
f.write( str(ee) + "\n" )
f.write( MOL.save_string_xyz() )
f.close()
--------------------------------------------------------------------------

    Molecular point group: c1

    Geometry (in Angstrom), charge = 0, multiplicity = 1:

       Center              X                  Y                   Z               Mass
    ------------   -----------------  -----------------  -----------------  -----------------
           H         -3.072444395007    -1.073943564636     1.296094531564     1.007825032070
           C         -3.209779395007    -0.675729564636     0.283086531564    12.000000000000
           C         -2.751648395007     0.747489435364     0.090275531564    12.000000000000
           O         -3.689680395007    -1.354828564636    -0.565601468436    15.994914619560
           C         -1.309153395007     0.970951435364     0.565172531564    12.000000000000
           H         -2.871792395007     1.006886435364    -0.955185468436     1.007825032070
           H         -3.421819395007     1.380605435364     0.670526531564     1.007825032070
           C         -0.267596395007     0.229755435364    -0.276899468436    12.000000000000
           H         -1.100416395007     2.036383435364     0.541343531564     1.007825032070
           H         -1.221081395007     0.668668435364     1.607586531564     1.007825032070
           C          1.165836604993     0.470712435364     0.200619531564    12.000000000000
           H         -0.361882395007     0.541651435364    -1.315012468436     1.007825032070
           H         -0.474935395007    -0.838598564636    -0.263907468436     1.007825032070
           C          2.133688604993    -0.626015564636    -0.251486468436    12.000000000000
           H          1.501260604993     1.437527435364    -0.166111468436     1.007825032070
           H          1.177731604993     0.534316435364     1.287908531564     1.007825032070
           C          3.565951604993    -0.470831564636     0.272547531564    12.000000000000
           H          2.151930604993    -0.664143564636    -1.339561468436     1.007825032070
           H          1.747918604993    -1.588209564636     0.078781531564     1.007825032070
           C          4.309950604993     0.753232435364    -0.263878468436    12.000000000000
           H          4.127071604993    -1.363173564636     0.006430531564     1.007825032070
           H          3.549897604993    -0.436394564636     1.359965531564     1.007825032070
           H          4.327677604993     0.753790435364    -1.350595468436     1.007825032070
           H          3.851716604993     1.681701435364     0.060067531564     1.007825032070
           H          5.338961604993     0.760670435364     0.082641531564     1.007825032070

  Charge       = 0
  Multiplicity = 1
  Basis Set: 6-31G*
  Basis Set:

    Orbital Energies (a.u.)
    -----------------------

    Doubly Occupied:

       1A    -20.561984     2A    -11.326116     3A    -11.235427
       4A    -11.234523     5A    -11.223440     6A    -11.219403
       7A    -11.217988     8A    -11.217127     9A    -11.210582
      10A     -1.401950    11A     -1.104051    12A     -1.069659
      13A     -1.013312    14A     -0.942314    15A     -0.875439
      16A     -0.820506    17A     -0.787996    18A     -0.781808
      19A     -0.664305    20A     -0.661883    21A     -0.632074
      22A     -0.626018    23A     -0.600621    24A     -0.592348
      25A     -0.580192    26A     -0.548000    27A     -0.537516
      28A     -0.525068    29A     -0.507051    30A     -0.495781
      31A     -0.491116    32A     -0.479543    33A     -0.463082
      34A     -0.459227    35A     -0.441013    36A     -0.409499

  @DF-RHF Final Energy:  -387.12036187356551

   => Energetics <=

    Nuclear Repulsion Energy =            439.6234179172687959
    One-Electron Energy =               -1395.5718040506806119
    Two-Electron Energy =                 568.8280242598444829
    DFT Exchange-Correlation Energy =       0.0000000000000000
    Empirical Dispersion Energy =           0.0000000000000000
    PCM Polarization Energy =               0.0000000000000000
    EFP Energy =                            0.0000000000000000
    Total Energy =                       -387.1203618735672762

  Mulliken Charges: (a.u.)
   Center  Symbol    Alpha    Beta     Spin     Total
       1     H     0.43267  0.43267  0.00000  0.13466
       2     C     2.83069  2.83069  0.00000  0.33863
       3     C     3.20841  3.20841  0.00000 -0.41682
       4     O     4.23777  4.23777  0.00000 -0.47553
       5     C     3.16723  3.16723  0.00000 -0.33446
       6     H     0.39972  0.39972  0.00000  0.20056
       7     H     0.40674  0.40674  0.00000  0.18651
       8     C     3.15539  3.15539  0.00000 -0.31077
       9     H     0.41274  0.41274  0.00000  0.17453
      10     H     0.41946  0.41946  0.00000  0.16108
      11     C     3.15492  3.15492  0.00000 -0.30985
      12     H     0.41692  0.41692  0.00000  0.16616
      13     H     0.41829  0.41829  0.00000  0.16341
      14     C     3.15390  3.15390  0.00000 -0.30781
      15     H     0.41898  0.41898  0.00000  0.16204
      16     H     0.42400  0.42400  0.00000  0.15200
      17     C     3.15285  3.15285  0.00000 -0.30570
      18     H     0.42244  0.42244  0.00000  0.15512
      19     H     0.42100  0.42100  0.00000  0.15800
      20     C     3.24136  3.24136  0.00000 -0.48273
      21     H     0.42001  0.42001  0.00000  0.15999
      22     H     0.42341  0.42341  0.00000  0.15318
      23     H     0.42172  0.42172  0.00000  0.15655
      24     H     0.42066  0.42066  0.00000  0.15869
      25     H     0.41872  0.41872  0.00000  0.16255

   Total alpha = 36.00000, Total beta = 36.00000, Total charge =  0.00000
