  ==> Input File <==

--------------------------------------------------------------------------
set {
	reference rhf
	basis cc-pvtz
}

set_num_threads( 4 )
memory 2 gb

molecule MOL {
0 1

H	 -3.144994	 -1.202467	 -0.018751
O	 -2.321472	 -0.864941	 -0.318626
C	 -2.021813	 0.336996	 0.342658
C	 -0.669613	 0.837286	 -0.127252
H	 -2.780861	 1.084746	 0.127159
H	 -2.006390	 0.184138	 1.420053
C	 0.490865	 -0.082543	 0.241244
H	 -0.708709	 0.967192	 -1.204587
H	 -0.507562	 1.822272	 0.303070
C	 1.630124	 0.646905	 0.947362
H	 0.866697	 -0.559284	 -0.656823
H	 0.124200	 -0.880512	 0.883836
C	 2.786993	 -0.273089	 1.322929
H	 1.997866	 1.442577	 0.305198
H	 1.249955	 1.130730	 1.843506
H	 3.211673	 -0.745035	 0.443252
H	 3.579758	 0.274252	 1.820167
H	 2.458908	 -1.061107	 1.992879

	symmetry c1
}
set optking {
	frozen_dihedral = ("
		10 7 4 8
	")
}

ee = optimize('scf')
oeprop('DIPOLE', 'QUADRUPOLE', 'MULLIKEN_CHARGES')
f=open( 'psi4out.xyz', 'w' )
f.write( "18  " )
f.write( str(ee) + "\n" )
f.write( MOL.save_string_xyz() )
f.close()
--------------------------------------------------------------------------

    Molecular point group: c1
  Charge       = 0
  Multiplicity = 1
  Basis Set: CC-PVTZ
  Basis Set:
  @DF-RHF Final Energy:  -271.28186676792768
    Total Energy =                       -271.2818667679275109
    Molecular point group: c1
  Basis Set: CC-PVTZ
  Basis Set:
  Basis Set: CC-PVTZ
  Basis Set:
  @DF-RHF Final Energy:  -271.28209012872026
    Total Energy =                       -271.2820901287203128
  Basis Set: CC-PVTZ
  Basis Set:
  Basis Set: CC-PVTZ
  Basis Set:
  @DF-RHF Final Energy:  -271.28215752312491
    Total Energy =                       -271.2821575231249653
  Basis Set: CC-PVTZ
  Basis Set:
  Charge       = 0
  Multiplicity = 1
  Basis Set: CC-PVTZ
  Basis Set:

    Orbital Energies (a.u.)
    -----------------------

    Doubly Occupied:

       1A    -20.546155     2A    -11.265910     3A    -11.210440
       4A    -11.210139     5A    -11.205553     6A    -11.203372
       7A     -1.364204     8A     -1.075218     9A     -1.009963
      10A     -0.914201    11A     -0.821279    12A     -0.784302
      13A     -0.705485    14A     -0.652071    15A     -0.620058
      16A     -0.578941    17A     -0.574020    18A     -0.559591
      19A     -0.524785    20A     -0.507836    21A     -0.485043
      22A     -0.468682    23A     -0.457215    24A     -0.449780
      25A     -0.431096

  @DF-RHF Final Energy:  -271.28215850440972

   => Energetics <=

    Nuclear Repulsion Energy =            249.5409851672744708
    One-Electron Energy =                -862.3956057571813290
    Two-Electron Energy =                 341.5724620854970226
    DFT Exchange-Correlation Energy =       0.0000000000000000
    Empirical Dispersion Energy =           0.0000000000000000
    PCM Polarization Energy =               0.0000000000000000
    EFP Energy =                            0.0000000000000000
    Total Energy =                       -271.2821585044098356
    Molecular point group: c1
  Basis Set: CC-PVTZ
  Basis Set:

  -Total Gradient:
     Atom            X                  Y                   Z
    ------   -----------------  -----------------  -----------------
       1        0.000002978087     0.000015746560     0.000008920641
       2        0.000082413220    -0.000053954541     0.000063611353
       3       -0.000074555285     0.000059601370    -0.000111206150
       4        0.001139553578     0.001597272463     0.000617557982
       5        0.000004489129     0.000044522206     0.000023580081
       6        0.000015075715    -0.000036639596    -0.000020218942
       7        0.000493296948     0.000006626974    -0.001632859339
       8       -0.001088384569    -0.001408971312    -0.000105174756
       9        0.000026037512    -0.000004400512     0.000014976404
      10       -0.000566091492    -0.000213256316     0.001198063840
      11       -0.000002756063    -0.000007788631    -0.000025989337
      12       -0.000031917644     0.000011783433     0.000004624551
      13        0.000010214677    -0.000011764244    -0.000040400320
      14       -0.000012299877     0.000003770921     0.000006772878
      15       -0.000004785761    -0.000003415540     0.000002925770
      16        0.000008867809    -0.000015031956     0.000005653154
      17        0.000001046385     0.000004990250    -0.000010091987
      18       -0.000003182379     0.000010908470    -0.000000745822

  **** Optimization is complete! (in 4 steps) ****
    Final optimized geometry and variables:
    Molecular point group: c1

    Geometry (in Angstrom), charge = 0, multiplicity = 1:

    H           -3.051917109896    -1.295093653289    -0.406022523995
    O           -2.236527829024    -0.942249742746    -0.710329144468
    C           -1.965440284929     0.275826103345    -0.067383543626
    C           -0.610207466038     0.778387577237    -0.524840206866
    H           -2.729994429543     1.010133643005    -0.309199244863
    H           -1.965123722846     0.142795001745     1.012978768070
    C            0.556833871451    -0.151530223374    -0.143544688075
    H           -0.655401081674     0.904260665634    -1.600763843521
    H           -0.460626004975     1.764411000349    -0.095825827503
    C            1.704286423075     0.571487146211     0.558073405865
    H            0.933853682856    -0.651375411553    -1.028588595633
    H            0.192104370301    -0.941326122083     0.505216703564
    C            2.863859220469    -0.351348670643     0.915926329281
    H            2.066969811295     1.375755646267    -0.077095855701
    H            1.328051985704     1.045260950058     1.461253668716
    H            3.284773684600    -0.812163905769     0.028503996762
    H            3.658723817717     0.190459541476     1.415894904198
    H            2.539448079136    -1.148178560534     1.577093268452

  Mulliken Charges: (a.u.)
   Center  Symbol    Alpha    Beta     Spin     Total
       1     H     0.39586  0.39586  0.00000  0.20828
       2     O     4.19931  4.19931  0.00000 -0.39862
       3     C     2.97258  2.97258  0.00000  0.05484
       4     C     3.09593  3.09593  0.00000 -0.19187
       5     H     0.46505  0.46505  0.00000  0.06989
       6     H     0.47427  0.47427  0.00000  0.05146
       7     C     3.08831  3.08831  0.00000 -0.17662
       8     H     0.44920  0.44920  0.00000  0.10161
       9     H     0.45409  0.45409  0.00000  0.09183
      10     C     3.08457  3.08457  0.00000 -0.16914
      11     H     0.44852  0.44852  0.00000  0.10296
      12     H     0.45144  0.45144  0.00000  0.09712
      13     C     3.14972  3.14972  0.00000 -0.29945
      14     H     0.45469  0.45469  0.00000  0.09062
      15     H     0.45691  0.45691  0.00000  0.08619
      16     H     0.45472  0.45472  0.00000  0.09056
      17     H     0.44949  0.44949  0.00000  0.10101
      18     H     0.45533  0.45533  0.00000  0.08933

   Total alpha = 25.00000, Total beta = 25.00000, Total charge =  0.00000
