                              Psi4 1.0.54 Driver

  ==> Input File <==

--------------------------------------------------------------------------
set {
	reference rhf
	basis cc-pvtz
}

set_num_threads( 4 )
memory 2 gb

molecule MOL {
0 1

H	 3.273419	 0.176595	 -0.102789
N	 2.433987	 -0.362316	 -0.080024
C	 1.263552	 0.494993	 0.021953
H	 2.497638	 -0.973615	 0.707122
C	 -0.016533	 -0.325589	 -0.026925
H	 1.280915	 1.180773	 -0.818522
H	 1.263064	 1.106893	 0.925038
C	 -1.280353	 0.525521	 0.047747
H	 -0.016686	 -0.912532	 -0.939714
H	 -0.014099	 -1.037598	 0.796369
C	 -1.016852	 1.942496	 0.546487
H	 -1.999908	 0.042668	 0.703535
H	 -1.745750	 0.571143	 -0.933170
H	 -0.582068	 1.932358	 1.540263
H	 -1.933072	 2.519925	 0.591947
H	 -0.328241	 2.465952	 -0.108484

	symmetry c1
}
set optking {
	frozen_dihedral = ("
		12 8 5 9
	")
}

ee,wfn = optimize('scf', return_wfn=True)
oeprop( wfn, 'DIPOLE', 'QUADRUPOLE', 'MULLIKEN_CHARGES')
f=open( 'psi4out.xyz', 'w' )
f.write( "16  " )
f.write( str(ee) + "\n" )
f.write( MOL.save_string_xyz() )
f.close()
--------------------------------------------------------------------------

    Molecular point group: c1
  Charge       = 0
  Multiplicity = 1
  Basis Set: CC-PVTZ
  Basis Set:
  @DF-RHF Final Energy:  -212.38793900577926
    Total Energy =                       -212.3879390057794581
    Molecular point group: c1
  Basis Set: CC-PVTZ
  Basis Set:
  Basis Set: CC-PVTZ
  Basis Set:
  @DF-RHF Final Energy:  -212.38767847866563
    Total Energy =                       -212.3876784786655207
  Basis Set: CC-PVTZ
  Basis Set:
  Basis Set: CC-PVTZ
  Basis Set:
  @DF-RHF Final Energy:  -212.39131583227018
    Total Energy =                       -212.3913158322699246
  Basis Set: CC-PVTZ
  Basis Set:
  Basis Set: CC-PVTZ
  Basis Set:
  @DF-RHF Final Energy:  -212.39162892093455
    Total Energy =                       -212.3916289209345223
  Basis Set: CC-PVTZ
  Basis Set:
  Basis Set: CC-PVTZ
  Basis Set:
  @DF-RHF Final Energy:  -212.39166195987502
    Total Energy =                       -212.3916619598749094
  Basis Set: CC-PVTZ
  Basis Set:
  Basis Set: CC-PVTZ
  Basis Set:
  @DF-RHF Final Energy:  -212.39166608165911
    Total Energy =                       -212.3916660816592525
  Basis Set: CC-PVTZ
  Basis Set:
  Basis Set: CC-PVTZ
  Basis Set:
  @DF-RHF Final Energy:  -212.39166799416745
    Total Energy =                       -212.3916679941674488
  Basis Set: CC-PVTZ
  Basis Set:
  Charge       = 0
  Multiplicity = 1
  Basis Set: CC-PVTZ
  Basis Set:

    Orbital Energies (a.u.)
    -----------------------

    Doubly Occupied:

       1A    -15.525915     2A    -11.237116     3A    -11.213777
       4A    -11.208463     5A    -11.206467     6A     -1.177823
       7A     -1.055718     8A     -0.954890     9A     -0.863653
      10A     -0.774072    11A     -0.658948    12A     -0.640950
      13A     -0.619508    14A     -0.573959    15A     -0.548494
      16A     -0.534586    17A     -0.514588    18A     -0.466885
      19A     -0.461652    20A     -0.452266    21A     -0.383277

  @DF-RHF Final Energy:  -212.39166811384919

   => Energetics <=

    Nuclear Repulsion Energy =            189.3244068887392757
    One-Electron Energy =                -661.2861372734166707
    Two-Electron Energy =                 259.5700622708280889
    DFT Exchange-Correlation Energy =       0.0000000000000000
    Empirical Dispersion Energy =           0.0000000000000000
    PCM Polarization Energy =               0.0000000000000000
    EFP Energy =                            0.0000000000000000
    Total Energy =                       -212.3916681138492777
    Molecular point group: c1
  Basis Set: CC-PVTZ
  Basis Set:

  -Total Gradient:
     Atom            X                  Y                   Z
    ------   -----------------  -----------------  -----------------
       1        0.000000819292     0.000002883858     0.000001217617
       2       -0.000004805672     0.000000996607     0.000004586064
       3       -0.000002069152     0.000009520977    -0.000021614558
       4        0.000001640498    -0.000000427845     0.000001794367
       5       -0.002618699280    -0.004140113917     0.004027758209
       6        0.000009086170    -0.000004419734     0.000003735372
       7        0.000004316895    -0.000003949936    -0.000003268651
       8       -0.001664534146    -0.002460802550    -0.005500024170
       9        0.002453515774     0.003852240111    -0.002554226383
      10       -0.000007416417    -0.000000780819     0.000000994609
      11        0.000001131346     0.000010939078     0.000013271766
      12        0.001826784400     0.002731043994     0.004026334815
      13        0.000003779982    -0.000008422359    -0.000002906332
      14       -0.000007547514     0.000006928648    -0.000003155501
      15        0.000006311877     0.000003888865    -0.000000835366
      16       -0.000002314053     0.000000475023     0.000006338142

  **** Optimization is complete! (in 8 steps) ****
    Final optimized geometry and variables:
    Molecular point group: c1

    Geometry (in Angstrom), charge = 0, multiplicity = 1:

    H            3.004892142728    -0.396808153067    -0.265269632170
    N            2.139420144685    -0.892325219469    -0.229783120301
    C            1.017507599421     0.025465834018    -0.096434668724
    H            2.187458557059    -1.511328686903     0.552672440229
    C           -0.292547627147    -0.757466904225    -0.087443073896
    H            1.037785212367     0.693045844626    -0.950959510923
    H            1.091353798414     0.648603626236     0.792328178352
    C           -1.591595599923     0.081103659534    -0.069018086184
    H           -0.273614870991    -1.364345984862    -0.984543505922
    H           -0.279146246847    -1.435156069978     0.760973455968
    C           -1.469217459981     1.523664679651     0.428394102647
    H           -2.304315257568    -0.407974045100     0.586021926391
    H           -2.027429889111     0.094223950667    -1.061183591372
    H           -1.097183238353     1.566764478069     1.446033837815
    H           -2.442972737280     2.000115472311     0.418300625650
    H           -0.810077787099     2.119248368127    -0.191314945729

  Mulliken Charges: (a.u.)
   Center  Symbol    Alpha    Beta     Spin     Total
       1     H     0.43009  0.43009  0.00000  0.13982
       2     N     3.69146  3.69146  0.00000 -0.38293
       3     C     3.02683  3.02683  0.00000 -0.05365
       4     H     0.43092  0.43092  0.00000  0.13816
       5     C     3.09178  3.09178  0.00000 -0.18355
       6     H     0.45548  0.45548  0.00000  0.08904
       7     H     0.46529  0.46529  0.00000  0.06942
       8     C     3.09055  3.09055  0.00000 -0.18110
       9     H     0.44637  0.44637  0.00000  0.10725
      10     H     0.45765  0.45765  0.00000  0.08471
      11     C     3.15955  3.15955  0.00000 -0.31910
      12     H     0.45192  0.45192  0.00000  0.09616
      13     H     0.45026  0.45026  0.00000  0.09947
      14     H     0.45402  0.45402  0.00000  0.09196
      15     H     0.44476  0.44476  0.00000  0.11048
      16     H     0.45308  0.45308  0.00000  0.09384

   Total alpha = 21.00000, Total beta = 21.00000, Total charge =  0.00000

*** Psi4 exiting successfully. Buy a developer a beer!
