  ==> Input File <==

--------------------------------------------------------------------------
set {
	reference rhf
	basis 6-31G*
}

set_num_threads( 4 )
memory 2 gb

molecule MOL {
0 1

H	 2.591676	 2.013956	 0.335017
O	 3.341076	 1.666752	 -0.126416
C	 3.569581	 0.339145	 0.272707
C	 3.137577	 0.060135	 1.708065
H	 2.995050	 -0.275850	 -0.408005
H	 4.618268	 0.076168	 0.138992
C	 3.924183	 0.847395	 2.758941
H	 2.078469	 0.286575	 1.799617
H	 3.251329	 -1.006369	 1.895137
C	 3.504126	 0.505035	 4.191128
H	 3.786897	 1.911004	 2.585000
H	 4.988839	 0.645072	 2.640982
C	 4.319819	 1.202878	 5.285660
H	 2.449851	 0.742468	 4.321424
H	 3.591486	 -0.570549	 4.329652
C	 4.146051	 2.722846	 5.348746
H	 4.033258	 0.781044	 6.246782
H	 5.374459	 0.965484	 5.154453
C	 4.895472	 3.360385	 6.520645
H	 3.086181	 2.959963	 5.429752
H	 4.490111	 3.177643	 4.422957
C	 4.728917	 4.878324	 6.582180
H	 4.546300	 2.921312	 7.452730
H	 5.953251	 3.116410	 6.446719
H	 3.683559	 5.154006	 6.689179
H	 5.269698	 5.299980	 7.423843
H	 5.103350	 5.351201	 5.678548

	symmetry c1
}
set optking {
	frozen_dihedral = ("
		4 3 2 1
	")
}

ee = optimize('scf')
oeprop('DIPOLE', 'QUADRUPOLE', 'MULLIKEN_CHARGES')
f=open( 'psi4out.xyz', 'w' )
f.write( "27  " )
f.write( str(ee) + "\n" )
f.write( MOL.save_string_xyz() )
f.close()
--------------------------------------------------------------------------

    Molecular point group: c1
  Charge       = 0
  Multiplicity = 1
  Basis Set: 6-31G*
  Basis Set:
  @DF-RHF Final Energy:  -388.27924273622443
    Total Energy =                       -388.2792427362246599
    Molecular point group: c1
  Basis Set: 6-31G*
  Basis Set:
  Basis Set: 6-31G*
  Basis Set:
  @DF-RHF Final Energy:  -388.28020379470365
    Total Energy =                       -388.2802037947026292
  Basis Set: 6-31G*
  Basis Set:
  Basis Set: 6-31G*
  Basis Set:
  @DF-RHF Final Energy:  -388.28062043246319
    Total Energy =                       -388.2806204324634791
  Basis Set: 6-31G*
  Basis Set:
  Basis Set: 6-31G*
  Basis Set:
  @DF-RHF Final Energy:  -388.28062466337974
    Total Energy =                       -388.2806246633799674
  Basis Set: 6-31G*
  Basis Set:
  Basis Set: 6-31G*
  Basis Set:
  @DF-RHF Final Energy:  -388.28063130438665
    Total Energy =                       -388.2806313043863611
  Basis Set: 6-31G*
  Basis Set:
  Basis Set: 6-31G*
  Basis Set:
  @DF-RHF Final Energy:  -388.28063287866860
    Total Energy =                       -388.2806328786682570
  Basis Set: 6-31G*
  Basis Set:
  Basis Set: 6-31G*
  Basis Set:
  @DF-RHF Final Energy:  -388.28063654155619
    Total Energy =                       -388.2806365415558503
  Basis Set: 6-31G*
  Basis Set:
  Charge       = 0
  Multiplicity = 1
  Basis Set: 6-31G*
  Basis Set:

    Orbital Energies (a.u.)
    -----------------------

    Doubly Occupied:

       1A    -20.551086     2A    -11.266896     3A    -11.223036
       4A    -11.217572     5A    -11.216975     6A    -11.215029
       7A    -11.214927     8A    -11.213183     9A    -11.208306
      10A     -1.358101    11A     -1.094980    12A     -1.061836
      13A     -1.011952    14A     -0.947449    15A     -0.887099
      16A     -0.824769    17A     -0.804187    18A     -0.778370
      19A     -0.665750    20A     -0.654164    21A     -0.644232
      22A     -0.626314    23A     -0.605930    24A     -0.585206
      25A     -0.572593    26A     -0.562694    27A     -0.538361
      28A     -0.523052    29A     -0.512088    30A     -0.488555
      31A     -0.483450    32A     -0.478182    33A     -0.466457
      34A     -0.459493    35A     -0.450207    36A     -0.444894
      37A     -0.422016

  @DF-RHF Final Energy:  -388.28063703239678

   => Energetics <=

    Nuclear Repulsion Energy =            460.0274570237925786
    One-Electron Energy =               -1438.0574027034949722
    Two-Electron Energy =                 589.7493086473060657
    DFT Exchange-Correlation Energy =       0.0000000000000000
    Empirical Dispersion Energy =           0.0000000000000000
    PCM Polarization Energy =               0.0000000000000000
    EFP Energy =                            0.0000000000000000
    Total Energy =                       -388.2806370323963847
    Molecular point group: c1
  Basis Set: 6-31G*
  Basis Set:

  -Total Gradient:
     Atom            X                  Y                   Z
    ------   -----------------  -----------------  -----------------
       1        0.001622086695     0.000856439654     0.001945236189
       2       -0.002667087986    -0.001177583292    -0.002637582230
       3        0.002644703275     0.000814296527     0.001207432330
       4       -0.001572870202    -0.000490749864    -0.000529424947
       5        0.000011481088    -0.000028100991     0.000016311388
       6       -0.000003126143     0.000002162363    -0.000027341329
       7       -0.000012949237     0.000039981277    -0.000013230038
       8       -0.000012299172    -0.000009965532     0.000032672727
       9       -0.000012978441     0.000004016492    -0.000000437864
      10       -0.000003261534    -0.000021795350    -0.000003949938
      11        0.000014041587    -0.000005626623    -0.000000233814
      12       -0.000020852755     0.000013521648     0.000008257023
      13        0.000004404663    -0.000005429319     0.000004749359
      14       -0.000000396586     0.000002040105     0.000004518750
      15       -0.000009453073    -0.000003945961    -0.000012034116
      16        0.000012027247     0.000000916291    -0.000007464358
      17        0.000001696190     0.000005980706     0.000002847772
      18       -0.000000062642     0.000002747589     0.000007648854
      19        0.000004699689     0.000001580003    -0.000003519986
      20        0.000003396168     0.000000498139     0.000000099366
      21        0.000003754172     0.000000838408     0.000002426872
      22       -0.000006805744    -0.000001215656     0.000005318365
      23        0.000003221504    -0.000004459096    -0.000000498248
      24       -0.000000710239     0.000004146411    -0.000003466583
      25       -0.000001841125     0.000002536991    -0.000000590576
      26       -0.000002266159    -0.000000365779     0.000001016210
      27        0.000001448760    -0.000002465145     0.000001238824

  **** Optimization is complete! (in 8 steps) ****
    Final optimized geometry and variables:
    Molecular point group: c1

    Geometry (in Angstrom), charge = 0, multiplicity = 1:

    H           -1.375734662504     0.276415416960    -3.165486814537
    O           -0.629311560863    -0.049139657861    -3.647938946199
    C           -0.374810752099    -1.384280028047    -3.287337009904
    C           -0.776059637981    -1.712295695716    -1.853766340850
    H           -0.897416073597    -2.052398757616    -3.968862254664
    H            0.687735541164    -1.544131146277    -3.427958976477
    C           -0.006057076199    -0.915224753883    -0.797740167349
    H           -1.847138716638    -1.540596687716    -1.739268714651
    H           -0.624321875408    -2.777304362392    -1.692470066257
    C           -0.446987934611    -1.246312582873     0.630535825137
    H           -0.125684597465     0.145753572478    -0.991404858508
    H            1.057041956398    -1.124139684333    -0.904212405659
    C            0.365976110156    -0.551985050116     1.729387706865
    H           -1.499993234258    -0.995603667962     0.751019085685
    H           -0.374854288655    -2.322238540611     0.776927420401
    C            0.211719770045     0.970531955502     1.778690469345
    H            0.064095506053    -0.963047709011     2.690522707806
    H            1.418468734081    -0.803928847134     1.610115904634
    C            0.960418295075     1.607763957091     2.951205322696
    H           -0.845806215420     1.221855876994     1.850588346708
    H            0.568662227662     1.412665834916     0.851929666045
    C            0.809504576668     3.127735855821     3.001562545479
    H            0.601122800279     1.178518451698     3.884099273971
    H            2.015946987632     1.352428758842     2.885006955449
    H           -0.233530195399     3.415113002512     3.100944737219
    H            1.349913308626     3.549359225292     3.843490672767
    H            1.193975555998     3.590261401960     2.096894887495

  Mulliken Charges: (a.u.)
   Center  Symbol    Alpha    Beta     Spin     Total
       1     H     0.28178  0.28178  0.00000  0.43644
       2     O     4.37351  4.37351  0.00000 -0.74702
       3     C     2.98147  2.98147  0.00000  0.03706
       4     C     3.18398  3.18398  0.00000 -0.36796
       5     H     0.42715  0.42715  0.00000  0.14570
       6     H     0.41969  0.41969  0.00000  0.16063
       7     C     3.15375  3.15375  0.00000 -0.30749
       8     H     0.42560  0.42560  0.00000  0.14881
       9     H     0.41810  0.41810  0.00000  0.16381
      10     C     3.15299  3.15299  0.00000 -0.30598
      11     H     0.41669  0.41669  0.00000  0.16661
      12     H     0.42121  0.42121  0.00000  0.15757
      13     C     3.15307  3.15307  0.00000 -0.30614
      14     H     0.42488  0.42488  0.00000  0.15023
      15     H     0.42213  0.42213  0.00000  0.15573
      16     C     3.15332  3.15332  0.00000 -0.30664
      17     H     0.42177  0.42177  0.00000  0.15646
      18     H     0.42327  0.42327  0.00000  0.15346
      19     C     3.15116  3.15116  0.00000 -0.30233
      20     H     0.42546  0.42546  0.00000  0.14908
      21     H     0.42075  0.42075  0.00000  0.15850
      22     C     3.23929  3.23929  0.00000 -0.47857
      23     H     0.42336  0.42336  0.00000  0.15328
      24     H     0.42276  0.42276  0.00000  0.15448
      25     H     0.42218  0.42218  0.00000  0.15565
      26     H     0.41935  0.41935  0.00000  0.16130
      27     H     0.42134  0.42134  0.00000  0.15733

   Total alpha = 37.00000, Total beta = 37.00000, Total charge = -0.00000
