                              Psi4 1.0.54 Driver

  ==> Input File <==

--------------------------------------------------------------------------
set {
	reference rhf
	basis cc-pvtz
}

set_num_threads( 4 )
memory 2 gb

molecule MOL {
0 1

O	 -1.278239	 1.034789	 -0.784693
C	 -1.204115	 0.062668	 -0.112312
C	 -2.386398	 -0.667698	 0.460323
O	 -0.068058	 -0.518372	 0.226882
H	 -2.382952	 -1.693172	 0.114333
H	 -3.296656	 -0.175702	 0.158400
H	 -2.312537	 -0.685191	 1.540100
C	 1.169086	 0.037484	 -0.230612
C	 1.817793	 -1.025413	 -1.094638
C	 2.024035	 0.440184	 0.957454
H	 0.941140	 0.909644	 -0.824301
H	 1.175298	 -1.287794	 -1.925365
H	 2.757306	 -0.659104	 -1.490676
H	 2.014758	 -1.921462	 -0.518237
H	 2.966304	 0.850040	 0.613002
H	 1.525431	 1.193093	 1.551736
H	 2.234065	 -0.419810	 1.583219

	symmetry c1
}
set optking {
	frozen_dihedral = ("
		11 8 4 2
	")
}

ee,wfn = optimize('scf', return_wfn=True)
oeprop( wfn, 'DIPOLE', 'QUADRUPOLE', 'MULLIKEN_CHARGES')
f=open( 'psi4out.xyz', 'w' )
f.write( "17  " )
f.write( str(ee) + "\n" )
f.write( MOL.save_string_xyz() )
f.close()
--------------------------------------------------------------------------

    Molecular point group: c1
  Charge       = 0
  Multiplicity = 1
  Basis Set: CC-PVTZ
  Basis Set:
  @DF-RHF Final Energy:  -345.04197689081337
    Total Energy =                       -345.0419768908130322
    Molecular point group: c1
  Basis Set: CC-PVTZ
  Basis Set:
  Basis Set: CC-PVTZ
  Basis Set:
  @DF-RHF Final Energy:  -345.04228510866068
    Total Energy =                       -345.0422851086603941
  Basis Set: CC-PVTZ
  Basis Set:
  Basis Set: CC-PVTZ
  Basis Set:
  @DF-RHF Final Energy:  -345.04241285310144
    Total Energy =                       -345.0424128531010979
  Basis Set: CC-PVTZ
  Basis Set:
  Basis Set: CC-PVTZ
  Basis Set:
  @DF-RHF Final Energy:  -345.04210569479261
    Total Energy =                       -345.0421056947927241
  Basis Set: CC-PVTZ
  Basis Set:
  Basis Set: CC-PVTZ
  Basis Set:
  @DF-RHF Final Energy:  -345.04242379514608
    Total Energy =                       -345.0424237951459645
  Basis Set: CC-PVTZ
  Basis Set:
  Charge       = 0
  Multiplicity = 1
  Basis Set: CC-PVTZ
  Basis Set:

    Orbital Energies (a.u.)
    -----------------------

    Doubly Occupied:

       1A    -20.590471     2A    -20.530967     3A    -11.367275
       4A    -11.286725     5A    -11.230171     6A    -11.217520
       7A    -11.217487     8A     -1.467081     9A     -1.364674
      10A     -1.080171    11A     -1.005507    12A     -0.949627
      13A     -0.849757    14A     -0.770333    15A     -0.694997
      16A     -0.666005    17A     -0.665065    18A     -0.614286
      19A     -0.587282    20A     -0.579270    21A     -0.568391
      22A     -0.551996    23A     -0.534928    24A     -0.525055
      25A     -0.504624    26A     -0.483034    27A     -0.446720
      28A     -0.440512

  @DF-RHF Final Energy:  -345.04242542509240

   => Energetics <=

    Nuclear Repulsion Energy =            322.2343459853037189
    One-Electron Energy =               -1108.9736811963871332
    Two-Electron Energy =                 441.6969097859913518
    DFT Exchange-Correlation Energy =       0.0000000000000000
    Empirical Dispersion Energy =           0.0000000000000000
    PCM Polarization Energy =               0.0000000000000000
    EFP Energy =                            0.0000000000000000
    Total Energy =                       -345.0424254250921194
    Molecular point group: c1
  Basis Set: CC-PVTZ
  Basis Set:

  -Total Gradient:
     Atom            X                  Y                   Z
    ------   -----------------  -----------------  -----------------
       1       -0.000111911014     0.000039663626    -0.000024237522
       2        0.000116192193    -0.000032616453     0.000039860654
       3        0.000035061892    -0.000031117339    -0.000016855209
       4       -0.000137701219    -0.000062819288    -0.000013417981
       5        0.000009637509     0.000020815186     0.000000476528
       6        0.000034458312     0.000013399382    -0.000006208268
       7        0.000006650016     0.000020377008    -0.000011034286
       8        0.000002811500     0.000041712943     0.000001200006
       9       -0.000006942695     0.000003097673     0.000010072246
      10        0.000036229237    -0.000015679020    -0.000016701936
      11        0.000034304239    -0.000026059912     0.000021564477
      12        0.000005397069     0.000001415440     0.000001029212
      13       -0.000025155592     0.000002334944     0.000011466068
      14       -0.000008995577     0.000009402293     0.000009926240
      15        0.000016545395     0.000010600402     0.000010207774
      16       -0.000004518785    -0.000008676744    -0.000008938623
      17       -0.000002062482     0.000014149860    -0.000008409379

  **** Optimization is complete! (in 6 steps) ****
    Final optimized geometry and variables:
    Molecular point group: c1

    Geometry (in Angstrom), charge = 0, multiplicity = 1:

    O           -1.326960951367     1.123587899955    -0.692184960812
    C           -1.220009038610     0.156244438060    -0.017935082844
    C           -2.377559134534    -0.583432723484     0.592350977988
    O           -0.070903808970    -0.414323406817     0.297233671643
    H           -2.373762017556    -1.609945407473     0.249488484280
    H           -3.301121966838    -0.101644411952     0.315633150474
    H           -2.271435433666    -0.596626729546     1.669413932338
    C            1.164732656484     0.129449900468    -0.179442514557
    C            1.834247387507    -0.926821115245    -1.037998572881
    C            1.991120870409     0.529585735389     1.028129751709
    H            0.940288967311     0.998427145079    -0.774839251621
    H            1.209561828479    -1.183085161353    -1.884442045431
    H            2.780716014596    -0.557087237764    -1.414346097698
    H            2.020871176828    -1.826598655828    -0.463674195945
    H            2.941706931240     0.941420980017     0.710273790141
    H            1.474456697327     1.280786318888     1.612192810109
    H            2.183197167733    -0.327255489463     1.663088977284

  Mulliken Charges: (a.u.)
   Center  Symbol    Alpha    Beta     Spin     Total
       1     O     4.19934  4.19934  0.00000 -0.39867
       2     C     2.80223  2.80223  0.00000  0.39554
       3     C     3.14103  3.14103  0.00000 -0.28206
       4     O     4.16730  4.16730  0.00000 -0.33460
       5     H     0.44614  0.44614  0.00000  0.10773
       6     H     0.43849  0.43849  0.00000  0.12301
       7     H     0.44618  0.44618  0.00000  0.10765
       8     C     2.93777  2.93777  0.00000  0.12447
       9     C     3.14169  3.14169  0.00000 -0.28338
      10     C     3.14167  3.14167  0.00000 -0.28335
      11     H     0.43363  0.43363  0.00000  0.13275
      12     H     0.44649  0.44649  0.00000  0.10702
      13     H     0.45285  0.45285  0.00000  0.09429
      14     H     0.45292  0.45292  0.00000  0.09415
      15     H     0.45285  0.45285  0.00000  0.09430
      16     H     0.44650  0.44650  0.00000  0.10699
      17     H     0.45292  0.45292  0.00000  0.09417

   Total alpha = 28.00000, Total beta = 28.00000, Total charge = -0.00000

*** Psi4 exiting successfully. Buy a developer a beer!
