  ==> Input File <==

--------------------------------------------------------------------------
set {
	reference rhf
	basis 6-31G*
}

set_num_threads( 4 )
memory 2 gb

molecule MOL {
0 1

H	 -3.650283	 0.221984	 0.000000
C	 -2.577024	 0.154109	 0.000000
C	 -1.960329	 -1.089307	 0.000000
C	 -1.811733	 1.307557	 0.000000
H	 -2.554473	 -1.985285	 0.000000
C	 -0.581547	 -1.175855	 0.000000
H	 -2.287118	 2.271701	 0.000000
C	 -0.428719	 1.219221	 0.000000
H	 -0.090826	 -2.129898	 0.000000
C	 0.198341	 -0.021559	 0.000000
H	 0.149947	 2.124040	 0.000000
C	 1.691355	 -0.173192	 0.000000
C	 2.292392	 -1.544139	 -0.229789
O	 2.398280	 0.774258	 0.178801
H	 1.963912	 -2.243903	 0.531926
H	 3.368834	 -1.457108	 -0.195344
H	 1.994680	 -1.940953	 -1.195028

	symmetry c1
}
set optking {
	frozen_dihedral = ("
		13 12 10 8
	")
}

ee = optimize('scf')
oeprop('DIPOLE', 'QUADRUPOLE', 'MULLIKEN_CHARGES')
f=open( 'psi4out.xyz', 'w' )
f.write( "17  " )
f.write( str(ee) + "\n" )
f.write( MOL.save_string_xyz() )
f.close()
--------------------------------------------------------------------------

    Molecular point group: c1
  Charge       = 0
  Multiplicity = 1
  Basis Set: 6-31G*
  Basis Set:
  @DF-RHF Final Energy:  -382.47347700392993
    Total Energy =                       -382.4734770039299292
    Molecular point group: c1
  Basis Set: 6-31G*
  Basis Set:
  Basis Set: 6-31G*
  Basis Set:
  @DF-RHF Final Energy:  -382.47477595418690
    Total Energy =                       -382.4747759541864980
  Basis Set: 6-31G*
  Basis Set:
  Basis Set: 6-31G*
  Basis Set:
  @DF-RHF Final Energy:  -382.47315424088055
    Total Energy =                       -382.4731542408811720
  Basis Set: 6-31G*
  Basis Set:
  Basis Set: 6-31G*
  Basis Set:
  @DF-RHF Final Energy:  -382.47554330575343
    Total Energy =                       -382.4755433057532628
  Basis Set: 6-31G*
  Basis Set:
  Basis Set: 6-31G*
  Basis Set:
  @DF-RHF Final Energy:  -382.47558526697173
    Total Energy =                       -382.4755852669711658
  Basis Set: 6-31G*
  Basis Set:
  Basis Set: 6-31G*
  Basis Set:
  @DF-RHF Final Energy:  -382.47559068632791
    Total Energy =                       -382.4755906863277914
  Basis Set: 6-31G*
  Basis Set:
  Charge       = 0
  Multiplicity = 1
  Basis Set: 6-31G*
  Basis Set:

    Orbital Energies (a.u.)
    -----------------------

    Doubly Occupied:

       1A    -20.550168     2A    -11.331691     3A    -11.248816
       4A    -11.246082     5A    -11.243050     6A    -11.240528
       7A    -11.240340     8A    -11.237949     9A    -11.229655
      10A     -1.396677    11A     -1.165617    12A     -1.049757
      13A     -1.026409    14A     -0.996197    15A     -0.861080
      16A     -0.834797    17A     -0.759633    18A     -0.709136
      19A     -0.654949    20A     -0.646598    21A     -0.625246
      22A     -0.607174    23A     -0.598356    24A     -0.596446
      25A     -0.553189    26A     -0.524576    27A     -0.518056
      28A     -0.500296    29A     -0.491218    30A     -0.410606
      31A     -0.345599    32A     -0.341387

  @DF-RHF Final Energy:  -382.47559141014682

   => Energetics <=

    Nuclear Repulsion Energy =            403.5543382633069882
    One-Electron Energy =               -1318.4972986492055043
    Two-Electron Energy =                 532.4673689757513557
    DFT Exchange-Correlation Energy =       0.0000000000000000
    Empirical Dispersion Energy =           0.0000000000000000
    PCM Polarization Energy =               0.0000000000000000
    EFP Energy =                            0.0000000000000000
    Total Energy =                       -382.4755914101471035
    Molecular point group: c1
  Basis Set: 6-31G*
  Basis Set:

  -Total Gradient:
     Atom            X                  Y                   Z
    ------   -----------------  -----------------  -----------------
       1       -0.000001399007    -0.000013968078    -0.000010712936
       2        0.000034709959     0.000129783053     0.000029675231
       3        0.000100401894    -0.000063322449    -0.000003130989
       4       -0.000110498111    -0.000043050291    -0.000008331529
       5       -0.000011018656     0.000009422208    -0.000003399563
       6       -0.000090113081    -0.000066379579    -0.000016472132
       7        0.000003085719     0.000000626798     0.000004552870
       8        0.000023769825    -0.000032647456    -0.001077714725
       9        0.000001114044     0.000019195293    -0.000006834665
      10        0.000016443639     0.000165230114     0.001085433260
      11        0.000006905179    -0.000000389543     0.000003745124
      12        0.000056904565    -0.000228160861     0.000976050599
      13        0.000025338113     0.000174853909    -0.000990277893
      14       -0.000047976853    -0.000019960916    -0.000011993118
      15       -0.000001350666    -0.000008171372     0.000017687499
      16       -0.000004170262    -0.000025533656     0.000002132115
      17       -0.000002146304     0.000002472824     0.000009590851

  **** Optimization is complete! (in 7 steps) ****
    Final optimized geometry and variables:
    Molecular point group: c1

    Geometry (in Angstrom), charge = 0, multiplicity = 1:

    H           -3.640312094315     0.345669891249    -0.006194530898
    C           -2.569473234999     0.246567685041     0.000001994598
    C           -1.991889299690    -1.011667953697    -0.001916039957
    C           -1.767794201754     1.379229843270     0.007854243258
    H           -2.611020711547    -1.890499502307    -0.007816314293
    C           -0.612131422038    -1.138835154570     0.000928218804
    H           -2.215922219500     2.356438978311     0.006444691927
    C           -0.392025233718     1.250982578261     0.017834613409
    H           -0.180016893077    -2.122157603798    -0.004534450945
    C            0.199377062875    -0.009959784312     0.016291233967
    H            0.240339488083     2.117743199894     0.028084690936
    C            1.697819729099    -0.092114942398     0.013961757395
    C            2.360091362716    -1.434337534241    -0.217670375478
    O            2.360129789667     0.890407281099     0.172561541572
    H            2.126573598789    -2.125132479411     0.586538870269
    H            3.429839578146    -1.287601002450    -0.257372164251
    H            2.019252317165    -1.879729402223    -1.146415744811

  Mulliken Charges: (a.u.)
   Center  Symbol    Alpha    Beta     Spin     Total
       1     H     0.39531  0.39531  0.00000  0.20938
       2     C     3.09225  3.09225  0.00000 -0.18451
       3     C     3.10434  3.10434  0.00000 -0.20867
       4     C     3.10394  3.10394  0.00000 -0.20788
       5     H     0.39642  0.39642  0.00000  0.20716
       6     C     3.10291  3.10291  0.00000 -0.20581
       7     H     0.39519  0.39519  0.00000  0.20963
       8     C     3.08872  3.08872  0.00000 -0.17744
       9     H     0.39353  0.39353  0.00000  0.21294
      10     C     3.05791  3.05791  0.00000 -0.11582
      11     H     0.37640  0.37640  0.00000  0.24721
      12     C     2.72627  2.72627  0.00000  0.54745
      13     C     3.29279  3.29279  0.00000 -0.58558
      14     O     4.26842  4.26842  0.00000 -0.53684
      15     H     0.40654  0.40654  0.00000  0.18692
      16     H     0.39331  0.39331  0.00000  0.21339
      17     H     0.40576  0.40576  0.00000  0.18849

   Total alpha = 32.00000, Total beta = 32.00000, Total charge =  0.00000
