  ==> Input File <==

--------------------------------------------------------------------------
set {
	reference rhf
	basis 6-31G*
}

set_num_threads( 4 )
memory 2 gb

molecule MOL {
0 1

H	 -2.263355	 1.149890	 2.188846
O	 -1.351424	 1.000246	 2.398228
C	 -0.563724	 1.396698	 1.313646
C	 -0.793441	 0.596080	 0.058728
H	 0.466673	 1.286889	 1.632124
H	 -0.710508	 2.453836	 1.094696
C	 -1.530462	 -0.493172	 -0.025500
H	 -0.295078	 0.974767	 -0.820313
H	 -1.092586	 -1.461565	 -0.186463
H	 -2.602122	 -0.450675	 0.050101

	symmetry c1
}
set optking {
	frozen_dihedral = ("
		3 4 7 9
	")
}

ee = optimize('scf')
oeprop('DIPOLE', 'QUADRUPOLE', 'MULLIKEN_CHARGES')
f=open( 'psi4out.xyz', 'w' )
f.write( "10  " )
f.write( str(ee) + "\n" )
f.write( MOL.save_string_xyz() )
f.close()
--------------------------------------------------------------------------

    Molecular point group: c1
  Charge       = 0
  Multiplicity = 1
  Basis Set: 6-31G*
  Basis Set:
  @DF-RHF Final Energy:  -191.80397398314091
    Total Energy =                       -191.8039739831409349
    Molecular point group: c1
  Basis Set: 6-31G*
  Basis Set:
  Basis Set: 6-31G*
  Basis Set:
  @DF-RHF Final Energy:  -191.83574568131826
    Total Energy =                       -191.8357456813182012
  Basis Set: 6-31G*
  Basis Set:
  Basis Set: 6-31G*
  Basis Set:
  @DF-RHF Final Energy:  -191.86430124526231
    Total Energy =                       -191.8643012452623395
  Basis Set: 6-31G*
  Basis Set:
  Basis Set: 6-31G*
  Basis Set:
  @DF-RHF Final Energy:  -191.87117944239537
    Total Energy =                       -191.8711794423953449
  Basis Set: 6-31G*
  Basis Set:
  @DF-RHF Final Energy:  -191.87140860932715
    Total Energy =                       -191.8714086093271760
  @DF-RHF Final Energy:  -191.87148784728791
    Total Energy =                       -191.8714878472879377
  @DF-RHF Final Energy:  -191.87149674695524
    Total Energy =                       -191.8714967469551596
  @DF-RHF Final Energy:  -191.87149696683599
    Total Energy =                       -191.8714969668359345
  @DF-RHF Final Energy:  -191.87149705332658
    Total Energy =                       -191.8714970533265216
  @DF-RHF Final Energy:  -191.87149692802475
    Total Energy =                       -191.8714969280247260
  @DF-RHF Final Energy:  -191.87149685702516
    Total Energy =                       -191.8714968570253063
  @DF-RHF Final Energy:  -191.87149394500540
    Total Energy =                       -191.8714939450053976
  @DF-RHF Final Energy:  -191.87147699987872
    Total Energy =                       -191.8714769998787233
  @DF-RHF Final Energy:  -191.87129006997736
    Total Energy =                       -191.8712900699773627
  @DF-RHF Final Energy:  -191.87148902256820
    Total Energy =                       -191.8714890225682268
  @DF-RHF Final Energy:  -191.87149303512990
    Total Energy =                       -191.8714930351300154
  @DF-RHF Final Energy:  -191.87149195188533
    Total Energy =                       -191.8714919518853037
  @DF-RHF Final Energy:  -191.87149392925494
    Total Energy =                       -191.8714939292548252
  @DF-RHF Final Energy:  -191.87149314713668
    Total Energy =                       -191.8714931471366754
  @DF-RHF Final Energy:  -191.87149334184903
    Total Energy =                       -191.8714933418489750
  @DF-RHF Final Energy:  -191.87149429448303
    Total Energy =                       -191.8714942944829716
  @DF-RHF Final Energy:  -191.87149423482836
    Total Energy =                       -191.8714942348283330
  @DF-RHF Final Energy:  -191.87149430080049
    Total Energy =                       -191.8714943008003218
  @DF-RHF Final Energy:  -191.87149430277350
    Total Energy =                       -191.8714943027734989
  @DF-RHF Final Energy:  -191.87149426976239
    Total Energy =                       -191.8714942697624224
  @DF-RHF Final Energy:  -191.87149422040983
    Total Energy =                       -191.8714942204098293
  @DF-RHF Final Energy:  -191.87149414260227
    Total Energy =                       -191.8714941426022165
  @DF-RHF Final Energy:  -191.87149416095497
    Total Energy =                       -191.8714941609549101
  @DF-RHF Final Energy:  -191.87149409698861
    Total Energy =                       -191.8714940969886413
  @DF-RHF Final Energy:  -191.87149399599002
    Total Energy =                       -191.8714939959901074
  @DF-RHF Final Energy:  -191.87149387462188
    Total Energy =                       -191.8714938746218763
  @DF-RHF Final Energy:  -191.87149410160583
    Total Energy =                       -191.8714941016057765
  @DF-RHF Final Energy:  -191.87149394928309
    Total Energy =                       -191.8714939492830638
  @DF-RHF Final Energy:  -191.87149417885945
    Total Energy =                       -191.8714941788595070
  @DF-RHF Final Energy:  -191.87149424984705
    Total Energy =                       -191.8714942498471032
  @DF-RHF Final Energy:  -191.87149420722247
    Total Energy =                       -191.8714942072224403
  Basis Set: 6-31G*
  Basis Set:
  @DF-RHF Final Energy:  -191.87149408197141
    Total Energy =                       -191.8714940819713775
  Basis Set: 6-31G*
  Basis Set:
  Basis Set: 6-31G*
  Basis Set:
  @DF-RHF Final Energy:  -191.87148975936276
    Total Energy =                       -191.8714897593626461
  Basis Set: 6-31G*
  Basis Set:
  Basis Set: 6-31G*
  Basis Set:
  @DF-RHF Final Energy:  -191.87149417699999
    Total Energy =                       -191.8714941769998745
  Basis Set: 6-31G*
  Basis Set:
  Charge       = 0
  Multiplicity = 1
  Basis Set: 6-31G*
  Basis Set:

    Orbital Energies (a.u.)
    -----------------------

    Doubly Occupied:

       1A    -20.563517     2A    -11.288219     3A    -11.236209
       4A    -11.218145     5A     -1.372359     6A     -1.059127
       7A     -0.930610     8A     -0.769701     9A     -0.691231
      10A     -0.649475    11A     -0.619916    12A     -0.577793
      13A     -0.534120    14A     -0.483337    15A     -0.452001
      16A     -0.345099

  @DF-RHF Final Energy:  -191.87149374620270

   => Energetics <=

    Nuclear Repulsion Energy =            118.5523082540466504
    One-Electron Energy =                -495.2658873329168046
    Two-Electron Energy =                 184.8420853326674660
    DFT Exchange-Correlation Energy =       0.0000000000000000
    Empirical Dispersion Energy =           0.0000000000000000
    PCM Polarization Energy =               0.0000000000000000
    EFP Energy =                            0.0000000000000000
    Total Energy =                       -191.8714937462027024
    Molecular point group: c1
  Basis Set: 6-31G*
  Basis Set:

  -Total Gradient:
     Atom            X                  Y                   Z
    ------   -----------------  -----------------  -----------------
       1       -0.000290462193     0.000100787090     0.000011549195
       2        0.000592593400     0.000006696022    -0.000416461054
       3        0.027845593780    -0.014338794098     0.001298499771
       4       -0.042005355281     0.019355705917     0.016911594026
       5       -0.000302469404     0.000069637923     0.000247379915
       6       -0.000044760503    -0.000013147186     0.000209333566
       7        0.005424270103     0.004919523191    -0.058156809144
       8       -0.000576978040     0.000280738283    -0.000207327418
       9        0.009167765137    -0.010630944489     0.040234151221
      10        0.000189803004     0.000249797347    -0.000131910078

    Molecular point group: c1

    Geometry (in Angstrom), charge = 0, multiplicity = 1:

    H           -1.183401737166     0.779322129259     1.249527473968
    O           -0.333158715297     0.393243732239     1.406979610587
    C            0.520219324142     0.697467537669     0.344362109649
    C            0.219819749168    -0.008291577963    -0.958741578897
    H            1.499291702257     0.331624308767     0.622693259153
    H            0.605917961450     1.775337705360     0.213480091552
    C           -0.374049436703    -1.180046642962    -1.138645141283
    H            0.994605952686     0.244482299492    -1.675813968136
    H            0.112326820414    -2.076178184489    -1.485563355781
    H           -1.099046023633    -1.450938527585    -0.381147224822

  Mulliken Charges: (a.u.)
   Center  Symbol    Alpha    Beta     Spin     Total
       1     H     0.27907  0.27907  0.00000  0.44186
       2     O     4.36531  4.36531  0.00000 -0.73062
       3     C     2.99892  2.99892  0.00000  0.00216
       4     C     3.09421  3.09421  0.00000 -0.18843
       5     H     0.40272  0.40272  0.00000  0.19455
       6     H     0.42575  0.42575  0.00000  0.14851
       7     C     3.19069  3.19069  0.00000 -0.38137
       8     H     0.42135  0.42135  0.00000  0.15731
       9     H     0.40235  0.40235  0.00000  0.19530
      10     H     0.41964  0.41964  0.00000  0.16073

   Total alpha = 16.00000, Total beta = 16.00000, Total charge = -0.00000
