  ==> Input File <==

--------------------------------------------------------------------------
set {
	reference rhf
	basis cc-pvtz
}

set_num_threads( 4 )
memory 2 gb

molecule MOL {
0 1

H	 3.273419	 0.176595	 -0.102789
N	 2.433987	 -0.362316	 -0.080024
C	 1.263552	 0.494993	 0.021953
H	 2.497638	 -0.973615	 0.707122
C	 -0.016533	 -0.325589	 -0.026925
H	 1.280915	 1.180773	 -0.818522
H	 1.263064	 1.106893	 0.925038
C	 -1.280353	 0.525521	 0.047747
H	 -0.016686	 -0.912532	 -0.939714
H	 -0.014099	 -1.037598	 0.796369
C	 -2.421798	 -0.164823	 0.787016
H	 -1.604566	 0.775568	 -0.958895
H	 -1.054289	 1.468869	 0.537506
H	 -2.694666	 -1.096025	 0.302110
H	 -3.305155	 0.462519	 0.819789
H	 -2.142295	 -0.396031	 1.809563

	symmetry c1
}
set optking {
	frozen_dihedral = ("
		12 8 5 9
	")
}

ee = optimize('scf')
oeprop('DIPOLE', 'QUADRUPOLE', 'MULLIKEN_CHARGES')
f=open( 'psi4out.xyz', 'w' )
f.write( "16  " )
f.write( str(ee) + "\n" )
f.write( MOL.save_string_xyz() )
f.close()
--------------------------------------------------------------------------

    Molecular point group: c1
  Charge       = 0
  Multiplicity = 1
  Basis Set: CC-PVTZ
  Basis Set:
  @DF-RHF Final Energy:  -212.39711894383214
    Total Energy =                       -212.3971189438320266
    Molecular point group: c1
  Basis Set: CC-PVTZ
  Basis Set:
  Basis Set: CC-PVTZ
  Basis Set:
  @DF-RHF Final Energy:  -212.39739961064896
    Total Energy =                       -212.3973996106490176
  Basis Set: CC-PVTZ
  Basis Set:
  Basis Set: CC-PVTZ
  Basis Set:
  @DF-RHF Final Energy:  -212.39745040456970
    Total Energy =                       -212.3974504045695539
  Basis Set: CC-PVTZ
  Basis Set:
  Charge       = 0
  Multiplicity = 1
  Basis Set: CC-PVTZ
  Basis Set:

    Orbital Energies (a.u.)
    -----------------------

    Doubly Occupied:

       1A    -15.526481     2A    -11.238172     3A    -11.212943
       4A    -11.207841     5A    -11.206132     6A     -1.178324
       7A     -1.059395     8A     -0.959715     9A     -0.843874
      10A     -0.792390    11A     -0.663580    12A     -0.641243
      13A     -0.598577    14A     -0.586852    15A     -0.565364
      16A     -0.517898    17A     -0.508071    18A     -0.469252
      19A     -0.463547    20A     -0.460223    21A     -0.384117

  @DF-RHF Final Energy:  -212.39745110424406

   => Energetics <=

    Nuclear Repulsion Energy =            186.5885908225194498
    One-Electron Energy =                -655.8041027242501286
    Two-Electron Energy =                 256.8180607974867371
    DFT Exchange-Correlation Energy =       0.0000000000000000
    Empirical Dispersion Energy =           0.0000000000000000
    PCM Polarization Energy =               0.0000000000000000
    EFP Energy =                            0.0000000000000000
    Total Energy =                       -212.3974511042439417
    Molecular point group: c1
  Basis Set: CC-PVTZ
  Basis Set:

  -Total Gradient:
     Atom            X                  Y                   Z
    ------   -----------------  -----------------  -----------------
       1        0.000026654531    -0.000015420354    -0.000000588188
       2        0.000070511913     0.000000493842     0.000006935949
       3       -0.000061573118    -0.000059965253    -0.000013426636
       4        0.000011414694     0.000005874957    -0.000001926908
       5       -0.002994441530    -0.004459158512     0.002339095660
       6        0.000002374544    -0.000000858546     0.000008898629
       7       -0.000003296998     0.000027421932     0.000002348599
       8        0.003263808636     0.004795122310    -0.000287833551
       9        0.001973529198     0.002992635722    -0.001945368302
      10        0.000002695629     0.000030017174    -0.000005492783
      11        0.000000019026     0.000045520181    -0.000018824300
      12       -0.002273777470    -0.003339135011    -0.000101085216
      13        0.000005748959    -0.000012337215     0.000016547626
      14        0.000004758652    -0.000009321653     0.000005912680
      15       -0.000025958989    -0.000006054848    -0.000000064287
      16       -0.000002467679     0.000005165276    -0.000005128970

  **** Optimization is complete! (in 4 steps) ****
    Final optimized geometry and variables:
    Molecular point group: c1

    Geometry (in Angstrom), charge = 0, multiplicity = 1:

    H            3.247702367620     0.154410939845    -0.330723678743
    N            2.410938551458    -0.387630340168    -0.289579705030
    C            1.241850183726     0.462299056138    -0.132811227786
    H            2.503106261757    -1.013284897251     0.483444451460
    C           -0.038772261526    -0.362859412675    -0.141746474697
    H            1.222952898815     1.158571586818    -0.965098044997
    H            1.272343287387     1.063843753452     0.776771863835
    C           -1.303231892296     0.503895374782    -0.092676883510
    H           -0.028723211770    -0.958763717204    -1.047184287167
    H           -0.022271059796    -1.049631080271     0.700504412780
    C           -2.475249346511    -0.187996194849     0.599708069149
    H           -1.608994028204     0.745517586215    -1.105489545213
    H           -1.095150446482     1.442035702512     0.412282354187
    H           -2.712268258880    -1.129978048498     0.115937826181
    H           -3.366655956130     0.428705938920     0.576578862081
    H           -2.245580481455    -0.400924259480     1.638475700452

  Mulliken Charges: (a.u.)
   Center  Symbol    Alpha    Beta     Spin     Total
       1     H     0.43011  0.43011  0.00000  0.13977
       2     N     3.68997  3.68997  0.00000 -0.37994
       3     C     3.02424  3.02424  0.00000 -0.04849
       4     H     0.43094  0.43094  0.00000  0.13812
       5     C     3.08274  3.08274  0.00000 -0.16549
       6     H     0.45683  0.45683  0.00000  0.08633
       7     H     0.46937  0.46937  0.00000  0.06125
       8     C     3.08983  3.08983  0.00000 -0.17965
       9     H     0.44830  0.44830  0.00000  0.10339
      10     H     0.46042  0.46042  0.00000  0.07915
      11     C     3.14857  3.14857  0.00000 -0.29713
      12     H     0.45212  0.45212  0.00000  0.09576
      13     H     0.45667  0.45667  0.00000  0.08666
      14     H     0.45381  0.45381  0.00000  0.09238
      15     H     0.44956  0.44956  0.00000  0.10088
      16     H     0.45650  0.45650  0.00000  0.08700

   Total alpha = 21.00000, Total beta = 21.00000, Total charge = -0.00000
