  ==> Input File <==

--------------------------------------------------------------------------
set {
	reference rhf
	basis 6-31G*
}

set_num_threads( 1 )
memory 2 gb

molecule MOL {
0 1

O	 3.225979	 0.970355	 -0.599647
C	 2.701189	 0.057885	 -0.047330
C	 1.245376	 -0.013843	 0.345420
O	 3.347903	 -1.046386	 0.304773
C	 0.455112	 1.231400	 -0.050772
H	 0.838542	 -0.913825	 -0.103701
H	 1.208210	 -0.175333	 1.419774
C	 -0.998893	 1.219485	 0.433193
H	 0.482531	 1.345121	 -1.130325
H	 0.957290	 2.103070	 0.354729
C	 -1.883438	 0.145884	 -0.207175
H	 -1.431207	 2.195402	 0.224832
H	 -1.019646	 1.105716	 1.516076
C	 -3.347647	 0.245583	 0.225435
H	 -1.822183	 0.231698	 -1.291012
H	 -1.510341	 -0.844814	 0.042401
C	 -4.233160	 -0.847174	 -0.376132
H	 -3.740464	 1.220991	 -0.056537
H	 -3.406318	 0.196866	 1.311659
C	 -5.694508	 -0.738205	 0.057791
H	 -4.174915	 -0.800565	 -1.461525
H	 -3.844627	 -1.822861	 -0.091778
H	 -6.296424	 -1.525978	 -0.384609
H	 -6.122848	 0.213723	 -0.243127
H	 -5.789841	 -0.815841	 1.137216
C	 4.728119	 -1.109107	 -0.004993
H	 4.882018	 -1.033965	 -1.071845
H	 5.068212	 -2.067527	 0.355250
H	 5.265056	 -0.311663	 0.488280

	symmetry c1
}
set optking {
	frozen_dihedral = ("
		21 17 14 11,
		15 11 8 5,
		6 3 5 9,
		11 8 5 9,
		2 4 26 27,
		1 2 4 26,
		6 3 2 1
	")
}

ee = energy('scf')
oeprop('DIPOLE', 'QUADRUPOLE', 'MULLIKEN_CHARGES')
f=open( 'psi4out.xyz', 'w' )
f.write( "29  " )
f.write( str(ee) + "\n" )
f.write( MOL.save_string_xyz() )
f.close()
--------------------------------------------------------------------------

    Molecular point group: c1

    Geometry (in Angstrom), charge = 0, multiplicity = 1:

       Center              X                  Y                   Z               Mass
    ------------   -----------------  -----------------  -----------------  -----------------
           O          3.224730349325     0.974315643351    -0.604784939623    15.994914619560
           C          2.699940349325     0.061845643351    -0.052467939623    12.000000000000
           C          1.244127349325    -0.009882356649     0.340282060377    12.000000000000
           O          3.346654349325    -1.042425356649     0.299635060377    15.994914619560
           C          0.453863349325     1.235360643351    -0.055909939623    12.000000000000
           H          0.837293349325    -0.909864356649    -0.108838939623     1.007825032070
           H          1.206961349325    -0.171372356649     1.414636060377     1.007825032070
           C         -1.000141650675     1.223445643351     0.428055060377    12.000000000000
           H          0.481282349325     1.349081643351    -1.135462939623     1.007825032070
           H          0.956041349325     2.107030643351     0.349591060377     1.007825032070
           C         -1.884686650675     0.149844643351    -0.212312939623    12.000000000000
           H         -1.432455650675     2.199362643351     0.219694060377     1.007825032070
           H         -1.020894650675     1.109676643351     1.510938060377     1.007825032070
           C         -3.348895650675     0.249543643351     0.220297060377    12.000000000000
           H         -1.823431650675     0.235658643351    -1.296149939623     1.007825032070
           H         -1.511589650675    -0.840853356649     0.037263060377     1.007825032070
           C         -4.234408650675    -0.843213356649    -0.381269939623    12.000000000000
           H         -3.741712650675     1.224951643351    -0.061674939623     1.007825032070
           H         -3.407566650675     0.200826643351     1.306521060377     1.007825032070
           C         -5.695756650675    -0.734244356649     0.052653060377    12.000000000000
           H         -4.176163650675    -0.796604356649    -1.466662939623     1.007825032070
           H         -3.845875650675    -1.818900356649    -0.096915939623     1.007825032070
           H         -6.297672650675    -1.522017356649    -0.389746939623     1.007825032070
           H         -6.124096650675     0.217683643351    -0.248264939623     1.007825032070
           H         -5.791089650675    -0.811880356649     1.132078060377     1.007825032070
           C          4.726870349325    -1.105146356649    -0.010130939623    12.000000000000
           H          4.880769349325    -1.030004356649    -1.076982939623     1.007825032070
           H          5.066963349325    -2.063566356649     0.350112060377     1.007825032070
           H          5.263807349325    -0.307702356649     0.483142060377     1.007825032070

  Charge       = 0
  Multiplicity = 1
  Basis Set: 6-31G*
  Basis Set:

    Orbital Energies (a.u.)
    -----------------------

    Doubly Occupied:

       1A    -20.603354     2A    -20.545202     3A    -11.371999
       4A    -11.280660     5A    -11.234739     6A    -11.219099
       7A    -11.217638     8A    -11.215999     9A    -11.215869
      10A    -11.214474    11A    -11.209069    12A     -1.469062
      13A     -1.362509    14A     -1.098077    15A     -1.066816
      16A     -1.019503    17A     -0.977227    18A     -0.928566
      19A     -0.861591    20A     -0.799286    21A     -0.790502
      22A     -0.763799    23A     -0.700724    24A     -0.682305
      25A     -0.672178    26A     -0.650829    27A     -0.628843
      28A     -0.604768    29A     -0.594855    30A     -0.580935
      31A     -0.567075    32A     -0.549218    33A     -0.531790
      34A     -0.530484    35A     -0.516174    36A     -0.511631
      37A     -0.496376    38A     -0.477837    39A     -0.470244
      40A     -0.462406    41A     -0.458815    42A     -0.455781
      43A     -0.441129    44A     -0.435398

  @DF-RHF Final Energy:  -501.04410478113698

   => Energetics <=

    Nuclear Repulsion Energy =            610.2246651177966896
    One-Electron Energy =               -1891.5679814861393879
    Two-Electron Energy =                 780.2992115872070826
    DFT Exchange-Correlation Energy =       0.0000000000000000
    Empirical Dispersion Energy =           0.0000000000000000
    PCM Polarization Energy =               0.0000000000000000
    EFP Energy =                            0.0000000000000000
    Total Energy =                       -501.0441047811355020

  Mulliken Charges: (a.u.)
   Center  Symbol    Alpha    Beta     Spin     Total
       1     O     4.28595  4.28595  0.00000 -0.57191
       2     C     2.60484  2.60484  0.00000  0.79033
       3     C     3.20974  3.20974  0.00000 -0.41947
       4     O     4.30746  4.30746  0.00000 -0.61492
       5     C     3.15379  3.15379  0.00000 -0.30758
       6     H     0.39878  0.39878  0.00000  0.20244
       7     H     0.40125  0.40125  0.00000  0.19750
       8     C     3.15665  3.15665  0.00000 -0.31329
       9     H     0.41308  0.41308  0.00000  0.17383
      10     H     0.40874  0.40874  0.00000  0.18251
      11     C     3.15506  3.15506  0.00000 -0.31013
      12     H     0.41823  0.41823  0.00000  0.16354
      13     H     0.42386  0.42386  0.00000  0.15229
      14     C     3.15031  3.15031  0.00000 -0.30062
      15     H     0.42255  0.42255  0.00000  0.15490
      16     H     0.42366  0.42366  0.00000  0.15269
      17     C     3.15148  3.15148  0.00000 -0.30296
      18     H     0.42325  0.42325  0.00000  0.15349
      19     H     0.42400  0.42400  0.00000  0.15199
      20     C     3.23935  3.23935  0.00000 -0.47870
      21     H     0.42281  0.42281  0.00000  0.15437
      22     H     0.42342  0.42342  0.00000  0.15315
      23     H     0.41923  0.41923  0.00000  0.16154
      24     H     0.42154  0.42154  0.00000  0.15691
      25     H     0.42182  0.42182  0.00000  0.15636
      26     C     3.09240  3.09240  0.00000 -0.18481
      27     H     0.40909  0.40909  0.00000  0.18183
      28     H     0.40852  0.40852  0.00000  0.18296
      29     H     0.40913  0.40913  0.00000  0.18174

   Total alpha = 44.00000, Total beta = 44.00000, Total charge = -0.00000
