  ==> Input File <==

--------------------------------------------------------------------------
set {
	reference rhf
	basis 6-31G*
}

set_num_threads( 1 )
memory 2 gb

molecule MOL {
0 1

H	 -3.161837	 0.500524	 -0.000234
C	 -2.367097	 -0.232926	 -0.000000
O	 -1.158440	 0.455814	 -0.000122
H	 -2.468853	 -0.861886	 -0.882833
H	 -2.468942	 -0.861421	 0.883154
C	 -0.029776	 -0.365156	 0.000148
C	 1.212217	 0.508981	 0.000007
H	 -0.036772	 -1.013236	 -0.877259
H	 -0.036869	 -1.012778	 0.877897
C	 0.883402	 1.991579	 0.169320
H	 1.867206	 0.176553	 0.799471
H	 1.747006	 0.347197	 -0.930867
H	 0.368714	 2.178859	 1.107641
H	 1.787198	 2.591564	 0.165188
H	 0.246988	 2.350636	 -0.634706

	symmetry c1
}
set optking {
	frozen_dihedral = ("
		6 3 2 4,
		8 6 3 2
	")
}

ee = energy('scf')
oeprop('DIPOLE', 'QUADRUPOLE', 'MULLIKEN_CHARGES')
f=open( 'psi4out.xyz', 'w' )
f.write( "15  " )
f.write( str(ee) + "\n" )
f.write( MOL.save_string_xyz() )
f.close()
--------------------------------------------------------------------------

    Molecular point group: c1

    Geometry (in Angstrom), charge = 0, multiplicity = 1:

       Center              X                  Y                   Z               Mass
    ------------   -----------------  -----------------  -----------------  -----------------
           H         -2.833550366906     0.034081760423    -0.034567235938     1.007825032070
           C         -2.038810366906    -0.699368239577    -0.034333235938    12.000000000000
           O         -0.830153366906    -0.010628239577    -0.034455235938    15.994914619560
           H         -2.140566366906    -1.328328239577    -0.917166235938     1.007825032070
           H         -2.140655366906    -1.327863239577     0.848820764062     1.007825032070
           C          0.298510633094    -0.831598239577    -0.034185235938    12.000000000000
           C          1.540503633094     0.042538760423    -0.034326235938    12.000000000000
           H          0.291514633094    -1.479678239577    -0.911592235938     1.007825032070
           H          0.291417633094    -1.479220239577     0.843563764062     1.007825032070
           C          1.211688633094     1.525136760423     0.134986764062    12.000000000000
           H          2.195492633094    -0.289889239577     0.765137764062     1.007825032070
           H          2.075292633094    -0.119245239577    -0.965200235938     1.007825032070
           H          0.697000633094     1.712416760423     1.073307764062     1.007825032070
           H          2.115484633094     2.125121760423     0.130854764062     1.007825032070
           H          0.575274633094     1.884193760423    -0.669039235938     1.007825032070

  Charge       = 0
  Multiplicity = 1
  Basis Set: 6-31G*
  Basis Set:

    Orbital Energies (a.u.)
    -----------------------

    Doubly Occupied:

       1A    -20.553721     2A    -11.265328     3A    -11.264377
       4A    -11.212318     5A    -11.197956     6A     -1.380105
       7A     -1.051785     8A     -0.945166     9A     -0.891968
      10A     -0.789995    11A     -0.674693    12A     -0.659746
      13A     -0.635026    14A     -0.601479    15A     -0.545734
      16A     -0.538407    17A     -0.505535    18A     -0.477396
      19A     -0.474318    20A     -0.462566    21A     -0.407711

  @DF-RHF Final Energy:  -232.12979852001772

   => Energetics <=

    Nuclear Repulsion Energy =            195.2039196966629504
    One-Electron Energy =                -701.5969412055950443
    Two-Electron Energy =                 274.2632229889142081
    DFT Exchange-Correlation Energy =       0.0000000000000000
    Empirical Dispersion Energy =           0.0000000000000000
    PCM Polarization Energy =               0.0000000000000000
    EFP Energy =                            0.0000000000000000
    Total Energy =                       -232.1297985200178573

  Mulliken Charges: (a.u.)
   Center  Symbol    Alpha    Beta     Spin     Total
       1     H     0.41256  0.41256  0.00000  0.17487
       2     C     3.07812  3.07812  0.00000 -0.15625
       3     O     4.30593  4.30593  0.00000 -0.61186
       4     H     0.43043  0.43043  0.00000  0.13914
       5     H     0.43034  0.43034  0.00000  0.13932
       6     C     2.98308  2.98308  0.00000  0.03385
       7     C     3.17550  3.17550  0.00000 -0.35099
       8     H     0.43041  0.43041  0.00000  0.13918
       9     H     0.43114  0.43114  0.00000  0.13772
      10     C     3.22893  3.22893  0.00000 -0.45786
      11     H     0.41957  0.41957  0.00000  0.16086
      12     H     0.41917  0.41917  0.00000  0.16166
      13     H     0.41675  0.41675  0.00000  0.16649
      14     H     0.42589  0.42589  0.00000  0.14822
      15     H     0.41218  0.41218  0.00000  0.17564

   Total alpha = 21.00000, Total beta = 21.00000, Total charge =  0.00000
