  ==> Input File <==

--------------------------------------------------------------------------
set {
	reference rhf
	basis 6-31G*
}

set_num_threads( 4 )
memory 2 gb

molecule MOL {
0 1

O	 -1.276010	 1.052711	 -0.768302
C	 -1.204840	 0.067374	 -0.106123
C	 -2.388195	 -0.672128	 0.458071
O	 -0.067104	 -0.527208	 0.221609
H	 -2.388023	 -1.694060	 0.097175
H	 -3.300579	 -0.174919	 0.164318
H	 -2.315377	 -0.706351	 1.539059
C	 1.118504	 0.267759	 0.364043
C	 2.283398	 -0.670207	 0.101689
C	 1.155937	 0.890519	 1.750914
H	 1.088500	 1.045347	 -0.384933
H	 2.210169	 -1.103851	 -0.889188
H	 3.221559	 -0.129454	 0.170782
H	 2.297667	 -1.476245	 0.827466
H	 2.062327	 1.474923	 1.873172
H	 0.308229	 1.547143	 1.899953
H	 1.141442	 0.118533	 2.513695

	symmetry c1
}
set optking {
	frozen_dihedral = ("
		8 4 2 1
	")
}

ee = optimize('scf')
oeprop('DIPOLE', 'QUADRUPOLE', 'MULLIKEN_CHARGES')
f=open( 'psi4out.xyz', 'w' )
f.write( "17  " )
f.write( str(ee) + "\n" )
f.write( MOL.save_string_xyz() )
f.close()
--------------------------------------------------------------------------

    Molecular point group: c1
  Charge       = 0
  Multiplicity = 1
  Basis Set: 6-31G*
  Basis Set:
  @DF-RHF Final Energy:  -344.90992481678256
    Total Energy =                       -344.9099248167823362
    Molecular point group: c1
  Basis Set: 6-31G*
  Basis Set:
  Basis Set: 6-31G*
  Basis Set:
  @DF-RHF Final Energy:  -344.90625386639800
    Total Energy =                       -344.9062538663978330
  Basis Set: 6-31G*
  Basis Set:
  Basis Set: 6-31G*
  Basis Set:
  @DF-RHF Final Energy:  -344.91032008258975
    Total Energy =                       -344.9103200825895783
  Basis Set: 6-31G*
  Basis Set:
  Basis Set: 6-31G*
  Basis Set:
  @DF-RHF Final Energy:  -344.91040323714407
    Total Energy =                       -344.9104032371437825
  Basis Set: 6-31G*
  Basis Set:
  Basis Set: 6-31G*
  Basis Set:
  @DF-RHF Final Energy:  -344.91042926160708
    Total Energy =                       -344.9104292616070779
  Basis Set: 6-31G*
  Basis Set:
  Basis Set: 6-31G*
  Basis Set:
  @DF-RHF Final Energy:  -344.91044083807896
    Total Energy =                       -344.9104408380793529
  Basis Set: 6-31G*
  Basis Set:
  Basis Set: 6-31G*
  Basis Set:
  @DF-RHF Final Energy:  -344.91044289215631
    Total Energy =                       -344.9104428921561976
  Basis Set: 6-31G*
  Basis Set:
  Charge       = 0
  Multiplicity = 1
  Basis Set: 6-31G*
  Basis Set:

    Orbital Energies (a.u.)
    -----------------------

    Doubly Occupied:

       1A    -20.594357     2A    -20.545198     3A    -11.374828
       4A    -11.291400     5A    -11.232525     6A    -11.221125
       7A    -11.219637     8A     -1.462650     9A     -1.362059
      10A     -1.077953    11A     -1.006355    12A     -0.950968
      13A     -0.847883    14A     -0.763392    15A     -0.693320
      16A     -0.665666    17A     -0.662790    18A     -0.618597
      19A     -0.586450    20A     -0.578998    21A     -0.562254
      22A     -0.551580    23A     -0.533840    24A     -0.525176
      25A     -0.503967    26A     -0.483583    27A     -0.447292
      28A     -0.434133

  @DF-RHF Final Energy:  -344.91044294672048

   => Energetics <=

    Nuclear Repulsion Energy =            323.1323799366793423
    One-Electron Energy =               -1110.4896901279248596
    Two-Electron Energy =                 442.4468672445249240
    DFT Exchange-Correlation Energy =       0.0000000000000000
    Empirical Dispersion Energy =           0.0000000000000000
    PCM Polarization Energy =               0.0000000000000000
    EFP Energy =                            0.0000000000000000
    Total Energy =                       -344.9104429467205364
    Molecular point group: c1
  Basis Set: 6-31G*
  Basis Set:

  -Total Gradient:
     Atom            X                  Y                   Z
    ------   -----------------  -----------------  -----------------
       1       -0.000751951423    -0.003867500791    -0.006830176447
       2        0.000703891935     0.006015301656     0.013306840222
       3        0.000099593637     0.000059097536     0.000194930759
       4        0.001062322272    -0.002539473846    -0.012686560025
       5       -0.000004943351    -0.000043790924    -0.000052129797
       6        0.000045147587     0.000008108669    -0.000037227399
       7       -0.000005054134    -0.000029517654    -0.000039814642
       8       -0.001134522761     0.000341824844     0.006184619513
       9       -0.000035958895    -0.000022711857    -0.000015136350
      10        0.000063886129     0.000025987795    -0.000001675228
      11       -0.000014034613     0.000025698234    -0.000015872071
      12        0.000005718372    -0.000006344626    -0.000006059019
      13       -0.000025868459     0.000013576711     0.000000826772
      14       -0.000001806559     0.000002184145    -0.000000686157
      15        0.000011281678     0.000023936016     0.000029077095
      16       -0.000010117285    -0.000003519195    -0.000001154308
      17       -0.000007584128    -0.000002856711    -0.000029802916

  **** Optimization is complete! (in 8 steps) ****
    Final optimized geometry and variables:
    Molecular point group: c1

    Geometry (in Angstrom), charge = 0, multiplicity = 1:

    O           -1.247202992733     1.081001337664    -0.911688812007
    C           -1.158330360659     0.041453910902    -0.344264129448
    C           -2.328363574157    -0.772798660562     0.136990755277
    O           -0.005880487966    -0.589127971836    -0.129351574978
    H           -2.276062157445    -1.771154570992    -0.281470075829
    H           -3.251703997832    -0.294218189026    -0.153625791292
    H           -2.284104475408    -0.868307262321     1.216347955031
    C            1.189826048744     0.187237403252     0.020433925094
    C            2.344040493749    -0.773519891312    -0.200887714594
    C            1.208621515898     0.832500934805     1.397912340197
    H            1.191416100522     0.950637524355    -0.743878924706
    H            2.280683108472    -1.223092672501    -1.184962056611
    H            3.289867852022    -0.247605851927    -0.123420197044
    H            2.329641358600    -1.566447628122     0.539273280800
    H            2.121756408238     1.403453356373     1.530937782333
    H            0.372156504907     1.511441324749     1.521022805641
    H            1.161167985502     0.075222488793     2.173739791824

  Mulliken Charges: (a.u.)
   Center  Symbol    Alpha    Beta     Spin     Total
       1     O     4.27914  4.27914  0.00000 -0.55828
       2     C     2.61602  2.61602  0.00000  0.76796
       3     C     3.28306  3.28306  0.00000 -0.56611
       4     O     4.31741  4.31741  0.00000 -0.63483
       5     H     0.39921  0.39921  0.00000  0.20157
       6     H     0.39775  0.39775  0.00000  0.20450
       7     H     0.40306  0.40306  0.00000  0.19388
       8     C     2.92784  2.92784  0.00000  0.14433
       9     C     3.24283  3.24283  0.00000 -0.48565
      10     C     3.25299  3.25299  0.00000 -0.50598
      11     H     0.39939  0.39939  0.00000  0.20121
      12     H     0.40956  0.40956  0.00000  0.18087
      13     H     0.41786  0.41786  0.00000  0.16427
      14     H     0.41453  0.41453  0.00000  0.17094
      15     H     0.41556  0.41556  0.00000  0.16888
      16     H     0.40839  0.40839  0.00000  0.18322
      17     H     0.41540  0.41540  0.00000  0.16921

   Total alpha = 28.00000, Total beta = 28.00000, Total charge = -0.00000
