  ==> Input File <==

--------------------------------------------------------------------------
set {
	reference rhf
	basis 6-31G*
}

set_num_threads( 4 )
memory 2 gb

molecule MOL {
0 1

O	 0.448130	 1.153082	 -0.665756
C	 0.486307	 0.169203	 0.000779
C	 1.608116	 -0.841643	 0.000302
O	 -0.473052	 -0.176598	 0.847926
C	 2.990107	 -0.200498	 -0.000684
H	 1.468623	 -1.481519	 -0.865924
H	 1.469683	 -1.481289	 0.866878
H	 3.129736	 0.423364	 -0.875135
H	 3.757882	 -0.966877	 -0.001197
H	 3.130964	 0.423383	 0.873533
C	 -1.600225	 0.686968	 0.953454
C	 -2.543248	 0.080045	 1.970638
H	 -2.065906	 0.779104	 -0.018264
H	 -1.264548	 1.669568	 1.255794
H	 -2.865949	 -0.905833	 1.655891
H	 -3.420409	 0.709088	 2.082631
H	 -2.060315	 -0.010486	 2.936991

	symmetry c1
}
set optking {
	frozen_dihedral = ("
		4 2 3 6
	")
}

ee = optimize('scf')
oeprop('DIPOLE', 'QUADRUPOLE', 'MULLIKEN_CHARGES')
f=open( 'psi4out.xyz', 'w' )
f.write( "17  " )
f.write( str(ee) + "\n" )
f.write( MOL.save_string_xyz() )
f.close()
--------------------------------------------------------------------------

    Molecular point group: c1
  Charge       = 0
  Multiplicity = 1
  Basis Set: 6-31G*
  Basis Set:
  @DF-RHF Final Energy:  -344.91032081253348
    Total Energy =                       -344.9103208125335414
    Molecular point group: c1
  Basis Set: 6-31G*
  Basis Set:
  Basis Set: 6-31G*
  Basis Set:
  @DF-RHF Final Energy:  -344.91075790273419
    Total Energy =                       -344.9107579027340194
  Basis Set: 6-31G*
  Basis Set:
  Basis Set: 6-31G*
  Basis Set:
  @DF-RHF Final Energy:  -344.91019574833177
    Total Energy =                       -344.9101957483318301
  Basis Set: 6-31G*
  Basis Set:
  Basis Set: 6-31G*
  Basis Set:
  @DF-RHF Final Energy:  -344.91081247360927
    Total Energy =                       -344.9108124736093259
  Basis Set: 6-31G*
  Basis Set:
  Charge       = 0
  Multiplicity = 1
  Basis Set: 6-31G*
  Basis Set:

    Orbital Energies (a.u.)
    -----------------------

    Doubly Occupied:

       1A    -20.602915     2A    -20.542063     3A    -11.371206
       4A    -11.284834     5A    -11.236683     6A    -11.222489
       7A    -11.219154     8A     -1.468048     9A     -1.361130
      10A     -1.069703    11A     -1.032237    12A     -0.909873
      13A     -0.849416    14A     -0.774800    15A     -0.694320
      16A     -0.687762    17A     -0.665872    18A     -0.624620
      19A     -0.588041    20A     -0.574655    21A     -0.556767
      22A     -0.527241    23A     -0.523804    24A     -0.511005
      25A     -0.502766    26A     -0.492160    27A     -0.452147
      28A     -0.434251

  @DF-RHF Final Energy:  -344.91081221564366

   => Energetics <=

    Nuclear Repulsion Energy =            314.8536828680913686
    One-Electron Energy =               -1093.9690641575077734
    Two-Electron Energy =                 434.2045690737721770
    DFT Exchange-Correlation Energy =       0.0000000000000000
    Empirical Dispersion Energy =           0.0000000000000000
    PCM Polarization Energy =               0.0000000000000000
    EFP Energy =                            0.0000000000000000
    Total Energy =                       -344.9108122156442278
    Molecular point group: c1
  Basis Set: 6-31G*
  Basis Set:

  -Total Gradient:
     Atom            X                  Y                   Z
    ------   -----------------  -----------------  -----------------
       1        0.000109113705    -0.000033227748     0.000207422631
       2       -0.000538897559    -0.000452706570    -0.001400053189
       3       -0.000630743076    -0.000630707593     0.000847652489
       4        0.000422366517     0.000500168737     0.000988165022
       5        0.000047605340     0.000008346211     0.000084371207
       6        0.000561078069     0.000658345543    -0.000579610877
       7       -0.000011257155     0.000088783791    -0.000027271091
       8       -0.000036252479    -0.000046461735     0.000015889176
       9        0.000038401288     0.000004863102     0.000011131135
      10        0.000061414669     0.000027904338     0.000010670803
      11       -0.000166304806    -0.000356038364    -0.000448967382
      12        0.000062970866     0.000088902190     0.000121291832
      13       -0.000016737122     0.000067402724     0.000109595662
      14        0.000090580197     0.000068069259     0.000047896672
      15        0.000033115769     0.000024176429    -0.000037392505
      16        0.000004301302     0.000008431831     0.000012051101
      17       -0.000030755524    -0.000026252146     0.000037157317

  **** Optimization is complete! (in 5 steps) ****
    Final optimized geometry and variables:
    Molecular point group: c1

    Geometry (in Angstrom), charge = 0, multiplicity = 1:

    O            0.362880269748     1.023915740050    -1.071672044139
    C            0.376267543261     0.030766464600    -0.416526074162
    C            1.493388531686    -0.987067121285    -0.434676007862
    O           -0.602171636033    -0.311779337990     0.407314484417
    C            2.871165503921    -0.328205158439    -0.494223816914
    H            1.342746101339    -1.594626133561    -1.323532082682
    H            1.398286340384    -1.639041159794     0.423436429144
    H            2.945455126564     0.325294404611    -1.353465435958
    H            3.645631467159    -1.084055303679    -0.566161085600
    H            3.062048269678     0.262962716807     0.395398437618
    C           -1.731963611741     0.552152726878     0.480261859119
    C           -2.690787815553    -0.039263725332     1.491823157370
    H           -2.181377625650     0.629055911203    -0.500322713602
    H           -1.400884508321     1.539272334574     0.772463205507
    H           -3.008632940653    -1.029888587441     1.187152739334
    H           -3.569496315056     0.591344532584     1.580359258052
    H           -2.223255087221    -0.114930991924     2.466985077610

  Mulliken Charges: (a.u.)
   Center  Symbol    Alpha    Beta     Spin     Total
       1     O     4.28724  4.28724  0.00000 -0.57447
       2     C     2.60431  2.60431  0.00000  0.79138
       3     C     3.20604  3.20604  0.00000 -0.41209
       4     O     4.31170  4.31170  0.00000 -0.62339
       5     C     3.24465  3.24465  0.00000 -0.48930
       6     H     0.40042  0.40042  0.00000  0.19916
       7     H     0.40047  0.40047  0.00000  0.19907
       8     H     0.40223  0.40223  0.00000  0.19555
       9     H     0.41603  0.41603  0.00000  0.16795
      10     H     0.41553  0.41553  0.00000  0.16894
      11     C     3.00335  3.00335  0.00000 -0.00670
      12     C     3.24856  3.24856  0.00000 -0.49712
      13     H     0.41040  0.41040  0.00000  0.17920
      14     H     0.40930  0.40930  0.00000  0.18140
      15     H     0.41182  0.41182  0.00000  0.17637
      16     H     0.41620  0.41620  0.00000  0.16760
      17     H     0.41177  0.41177  0.00000  0.17646

   Total alpha = 28.00000, Total beta = 28.00000, Total charge = -0.00000
