  ==> Input File <==

--------------------------------------------------------------------------
set {
	reference rhf
	basis 6-31G*
}

set_num_threads( 1 )
memory 2 gb

molecule MOL {
0 1

H	 -2.653099	 -0.308434	 0.975738
O	 -2.347518	 -0.290803	 0.079804
C	 -1.184022	 0.487508	 -0.006784
C	 0.062599	 -0.378592	 0.031606
H	 -1.176523	 1.099369	 -0.904519
H	 -1.187323	 1.153111	 0.844927
O	 1.171513	 0.459272	 -0.058250
H	 0.050699	 -1.089204	 -0.797170
H	 0.078739	 -0.954914	 0.954740
C	 2.397842	 -0.198080	 -0.002151
H	 2.508049	 -0.905315	 -0.822092
H	 3.173794	 0.550865	 -0.078850
H	 2.517602	 -0.735921	 0.936026

	symmetry c1
}
set optking {
	frozen_dihedral = ("
		8 4 3 5,
		10 7 4 8,
		4 7 10 13
	")
}

ee = energy('scf')
oeprop('DIPOLE', 'QUADRUPOLE', 'MULLIKEN_CHARGES')
f=open( 'psi4out.xyz', 'w' )
f.write( "13  " )
f.write( str(ee) + "\n" )
f.write( MOL.save_string_xyz() )
f.close()
--------------------------------------------------------------------------

    Molecular point group: c1

    Geometry (in Angstrom), charge = 0, multiplicity = 1:

       Center              X                  Y                   Z               Mass
    ------------   -----------------  -----------------  -----------------  -----------------
           H         -2.651058071825    -0.314021211601     0.952934221123     1.007825032070
           O         -2.345477071825    -0.296390211601     0.057000221123    15.994914619560
           C         -1.181981071825     0.481920788399    -0.029587778877    12.000000000000
           C          0.064639928175    -0.384179211601     0.008802221123    12.000000000000
           H         -1.174482071825     1.093781788399    -0.927322778877     1.007825032070
           H         -1.185282071825     1.147523788399     0.822123221123     1.007825032070
           O          1.173553928175     0.453684788399    -0.081053778877    15.994914619560
           H          0.052739928175    -1.094791211601    -0.819973778877     1.007825032070
           H          0.080779928175    -0.960501211601     0.931936221123     1.007825032070
           C          2.399882928175    -0.203667211601    -0.024954778877    12.000000000000
           H          2.510089928175    -0.910902211601    -0.844895778877     1.007825032070
           H          3.175834928175     0.545277788399    -0.101653778877     1.007825032070
           H          2.519642928175    -0.741508211601     0.913222221123     1.007825032070

  Charge       = 0
  Multiplicity = 1
  Basis Set: 6-31G*
  Basis Set:

    Orbital Energies (a.u.)
    -----------------------

    Doubly Occupied:

       1A    -20.560764     2A    -20.558332     3A    -11.269764
       4A    -11.269113     5A    -11.268261     6A     -1.387286
       7A     -1.364480     8A     -1.017578     9A     -0.912250
      10A     -0.837271    11A     -0.710877    12A     -0.675892
      13A     -0.653780    14A     -0.641699    15A     -0.600770
      16A     -0.559331    17A     -0.548035    18A     -0.485277
      19A     -0.481443    20A     -0.437135    21A     -0.420105

  @DF-RHF Final Energy:  -267.94852691792505

   => Energetics <=

    Nuclear Repulsion Energy =            190.1067622625246543
    One-Electron Energy =                -742.7916815289927399
    Two-Electron Energy =                 284.7363923485436885
    DFT Exchange-Correlation Energy =       0.0000000000000000
    Empirical Dispersion Energy =           0.0000000000000000
    PCM Polarization Energy =               0.0000000000000000
    EFP Energy =                            0.0000000000000000
    Total Energy =                       -267.9485269179244256

  Mulliken Charges: (a.u.)
   Center  Symbol    Alpha    Beta     Spin     Total
       1     H     0.27806  0.27806  0.00000  0.44389
       2     O     4.37345  4.37345  0.00000 -0.74690
       3     C     3.00519  3.00519  0.00000 -0.01038
       4     C     2.99300  2.99300  0.00000  0.01400
       5     H     0.41043  0.41043  0.00000  0.17913
       6     H     0.42542  0.42542  0.00000  0.14916
       7     O     4.30813  4.30813  0.00000 -0.61625
       8     H     0.42424  0.42424  0.00000  0.15152
       9     H     0.43423  0.43423  0.00000  0.13153
      10     C     3.07962  3.07962  0.00000 -0.15924
      11     H     0.42792  0.42792  0.00000  0.14416
      12     H     0.41115  0.41115  0.00000  0.17770
      13     H     0.42915  0.42915  0.00000  0.14170

   Total alpha = 21.00000, Total beta = 21.00000, Total charge =  0.00000
