                              Psi4 1.0.54 Driver

  ==> Input File <==

--------------------------------------------------------------------------
set {
	reference rhf
	basis cc-pvtz
}

set_num_threads( 4 )
memory 2 gb

molecule MOL {
0 1

O	 -1.278239	 1.034789	 -0.784693
C	 -1.204115	 0.062668	 -0.112312
C	 -2.386398	 -0.667698	 0.460323
O	 -0.068058	 -0.518372	 0.226882
H	 -2.382952	 -1.693172	 0.114333
H	 -3.296656	 -0.175702	 0.158400
H	 -2.312537	 -0.685191	 1.540100
C	 0.898040	 -0.816820	 -0.786225
C	 1.703909	 -1.992335	 -0.270617
C	 1.748425	 0.409450	 -1.064999
H	 0.363867	 -1.097543	 -1.681179
H	 1.061391	 -2.842282	 -0.079539
H	 2.447059	 -2.282685	 -1.003513
H	 2.213074	 -1.734543	 0.650377
H	 2.488515	 0.181668	 -1.823209
H	 1.138142	 1.226551	 -1.423538
H	 2.266155	 0.725008	 -0.166299

	symmetry c1
}
set optking {
	frozen_dihedral = ("
		8 4 2 1
	")
}

ee,wfn = optimize('scf', return_wfn=True)
oeprop( wfn, 'DIPOLE', 'QUADRUPOLE', 'MULLIKEN_CHARGES')
f=open( 'psi4out.xyz', 'w' )
f.write( "17  " )
f.write( str(ee) + "\n" )
f.write( MOL.save_string_xyz() )
f.close()
--------------------------------------------------------------------------

    Molecular point group: c1
  Charge       = 0
  Multiplicity = 1
  Basis Set: CC-PVTZ
  Basis Set:
  @DF-RHF Final Energy:  -345.03148025076740
    Total Energy =                       -345.0314802507671175
    Molecular point group: c1
  Basis Set: CC-PVTZ
  Basis Set:
  Basis Set: CC-PVTZ
  Basis Set:
  @DF-RHF Final Energy:  -345.02892939096677
    Total Energy =                       -345.0289293909671073
  Basis Set: CC-PVTZ
  Basis Set:
  Basis Set: CC-PVTZ
  Basis Set:
  @DF-RHF Final Energy:  -345.03115838609381
    Total Energy =                       -345.0311583860940345
  Basis Set: CC-PVTZ
  Basis Set:
  Basis Set: CC-PVTZ
  Basis Set:
  @DF-RHF Final Energy:  -345.03281591334058
    Total Energy =                       -345.0328159133401869
  Basis Set: CC-PVTZ
  Basis Set:
  @DF-RHF Final Energy:  -345.03293001307975
    Total Energy =                       -345.0329300130799766
  Basis Set: CC-PVTZ
  Basis Set:
  @DF-RHF Final Energy:  -345.03299442900743
    Total Energy =                       -345.0329944290071467
  Basis Set: CC-PVTZ
  Basis Set:
  Basis Set: CC-PVTZ
  Basis Set:
  @DF-RHF Final Energy:  -345.03301396708912
    Total Energy =                       -345.0330139670888911
  Basis Set: CC-PVTZ
  Basis Set:
  Basis Set: CC-PVTZ
  Basis Set:
  @DF-RHF Final Energy:  -345.03301925972346
    Total Energy =                       -345.0330192597238010
  Basis Set: CC-PVTZ
  Basis Set:
  Charge       = 0
  Multiplicity = 1
  Basis Set: CC-PVTZ
  Basis Set:

    Orbital Energies (a.u.)
    -----------------------

    Doubly Occupied:

       1A    -20.580386     2A    -20.537464     3A    -11.368137
       4A    -11.294126     5A    -11.232101     6A    -11.219936
       7A    -11.211599     8A     -1.462607     9A     -1.365299
      10A     -1.077167    11A     -1.007684    12A     -0.948308
      13A     -0.846458    14A     -0.772224    15A     -0.694374
      16A     -0.674285    17A     -0.654616    18A     -0.610862
      19A     -0.590983    20A     -0.582239    21A     -0.565263
      22A     -0.550951    23A     -0.546771    24A     -0.515943
      25A     -0.498949    26A     -0.488233    27A     -0.446245
      28A     -0.439793

  @DF-RHF Final Energy:  -345.03302005983392

   => Energetics <=

    Nuclear Repulsion Energy =            322.3989855421796165
    One-Electron Energy =               -1109.2980035191599200
    Two-Electron Energy =                 441.8659979171466148
    DFT Exchange-Correlation Energy =       0.0000000000000000
    Empirical Dispersion Energy =           0.0000000000000000
    PCM Polarization Energy =               0.0000000000000000
    EFP Energy =                            0.0000000000000000
    Total Energy =                       -345.0330200598336887
    Molecular point group: c1
  Basis Set: CC-PVTZ
  Basis Set:

  -Total Gradient:
     Atom            X                  Y                   Z
    ------   -----------------  -----------------  -----------------
       1       -0.000050374279     0.007961104832     0.006287269028
       2       -0.001045844358    -0.015827211962    -0.008675379004
       3        0.000025624277     0.000052191085     0.000086167407
       4        0.003325781453     0.015302618356     0.000880212225
       5       -0.000007742083    -0.000009034166    -0.000016219693
       6        0.000017110822    -0.000012245581     0.000000531031
       7       -0.000008948059    -0.000008231550    -0.000013332148
       8       -0.002159037040    -0.007495524518     0.001408759470
       9       -0.000008644767     0.000020841842     0.000021722540
      10       -0.000027036540     0.000030881837     0.000015210654
      11       -0.000040470155     0.000006669224     0.000008775338
      12        0.000005029413     0.000004775404     0.000001550175
      13       -0.000015139891     0.000005522646     0.000003361057
      14       -0.000004958348    -0.000006608044    -0.000009278086
      15       -0.000008229085    -0.000009374070    -0.000000198678
      16        0.000015498418    -0.000009308734     0.000011761368
      17       -0.000012619774    -0.000007066599    -0.000010912687

  **** Optimization is complete! (in 9 steps) ****
    Final optimized geometry and variables:
    Molecular point group: c1

    Geometry (in Angstrom), charge = 0, multiplicity = 1:

    O           -1.413518528232     1.038902291965    -0.765275773860
    C           -1.172894992321     0.338404671330     0.154667346750
    C           -2.210260063841    -0.240719033869     1.073890173365
    O            0.066747933028     0.056098294619     0.553729490362
    H           -2.189786637441    -1.321667666329     1.000149152039
    H           -3.187735753375     0.128418358763     0.808723270852
    H           -1.971549886928     0.019715210265     2.096659855568
    C            1.020796144263    -0.393514274392    -0.417400943187
    C            1.768696667839    -1.555316262157     0.205653473851
    C            1.929445808848     0.754924945307    -0.815341779420
    H            0.473511661085    -0.730896135409    -1.288190681068
    H            1.088906683426    -2.355821938935     0.468703956517
    H            2.502038002387    -1.943136256141    -0.491435853822
    H            2.283683387297    -1.236180243827     1.103587021504
    H            2.658458748368     0.421202308548    -1.545144971553
    H            1.351637896968     1.560230277602    -1.245764169077
    H            2.460116507016     1.132185343348     0.051257261246

  Mulliken Charges: (a.u.)
   Center  Symbol    Alpha    Beta     Spin     Total
       1     O     4.18640  4.18640  0.00000 -0.37280
       2     C     2.81102  2.81102  0.00000  0.37796
       3     C     3.13500  3.13500  0.00000 -0.26999
       4     O     4.17428  4.17428  0.00000 -0.34856
       5     H     0.45034  0.45034  0.00000  0.09931
       6     H     0.43824  0.43824  0.00000  0.12353
       7     H     0.44333  0.44333  0.00000  0.11334
       8     C     2.92924  2.92924  0.00000  0.14153
       9     C     3.13546  3.13546  0.00000 -0.27093
      10     C     3.14470  3.14470  0.00000 -0.28939
      11     H     0.45419  0.45419  0.00000  0.09161
      12     H     0.44946  0.44946  0.00000  0.10108
      13     H     0.45332  0.45332  0.00000  0.09335
      14     H     0.45053  0.45053  0.00000  0.09894
      15     H     0.45306  0.45306  0.00000  0.09389
      16     H     0.43733  0.43733  0.00000  0.12533
      17     H     0.45410  0.45410  0.00000  0.09180

   Total alpha = 28.00000, Total beta = 28.00000, Total charge = -0.00000

*** Psi4 exiting successfully. Buy a developer a beer!
