  ==> Input File <==

--------------------------------------------------------------------------
set {
	reference rhf
	basis cc-pvtz
}

set_num_threads( 4 )
memory 2 gb

molecule MOL {
0 1

H	 -1.088256	 -1.364742	 0.152233
O	 -1.432053	 -0.565244	 -0.200812
C	 -0.727158	 0.534527	 0.310686
C	 0.680222	 0.664433	 -0.252229
H	 -1.306802	 1.408001	 0.044211
H	 -0.690821	 0.490158	 1.397609
C	 1.162314	 2.105892	 -0.385751
H	 1.360410	 0.107861	 0.384014
H	 0.696195	 0.186439	 -1.227891
H	 1.217158	 2.598478	 0.578860
H	 2.153605	 2.144882	 -0.820922
H	 0.500258	 2.684861	 -1.022488

	symmetry c1
}
set optking {
	frozen_dihedral = ("
		8 4 3 2
	")
}

ee = optimize('scf')
oeprop('DIPOLE', 'QUADRUPOLE', 'MULLIKEN_CHARGES')
f=open( 'psi4out.xyz', 'w' )
f.write( "12  " )
f.write( str(ee) + "\n" )
f.write( MOL.save_string_xyz() )
f.close()
--------------------------------------------------------------------------

    Molecular point group: c1
  Charge       = 0
  Multiplicity = 1
  Basis Set: CC-PVTZ
  Basis Set:
  @DF-RHF Final Energy:  -193.18764351395532
    Total Energy =                       -193.1876435139554076
    Molecular point group: c1
  Basis Set: CC-PVTZ
  Basis Set:
  Basis Set: CC-PVTZ
  Basis Set:
  @DF-RHF Final Energy:  -193.18812225605541
    Total Energy =                       -193.1881222560553795
  Basis Set: CC-PVTZ
  Basis Set:
  Basis Set: CC-PVTZ
  Basis Set:
  @DF-RHF Final Energy:  -193.18818125935545
    Total Energy =                       -193.1881812593554741
  Basis Set: CC-PVTZ
  Basis Set:
  Basis Set: CC-PVTZ
  Basis Set:
  @DF-RHF Final Energy:  -193.18818632909083
    Total Energy =                       -193.1881863290908541
  Basis Set: CC-PVTZ
  Basis Set:
  Charge       = 0
  Multiplicity = 1
  Basis Set: CC-PVTZ
  Basis Set:

    Orbital Energies (a.u.)
    -----------------------

    Doubly Occupied:

       1A    -20.546114     2A    -11.265540     3A    -11.216686
       4A    -11.213013     5A     -1.363559     6A     -1.052666
       7A     -0.918070     8A     -0.819484     9A     -0.694706
      10A     -0.633325    11A     -0.605385    12A     -0.588065
      13A     -0.538185    14A     -0.507246    15A     -0.494815
      16A     -0.468201    17A     -0.432101

  @DF-RHF Final Energy:  -193.18818694856930

   => Energetics <=

    Nuclear Repulsion Energy =            131.0576801404912430
    One-Electron Energy =                -521.7774115109602917
    Two-Electron Energy =                 197.5315444218995822
    DFT Exchange-Correlation Energy =       0.0000000000000000
    Empirical Dispersion Energy =           0.0000000000000000
    PCM Polarization Energy =               0.0000000000000000
    EFP Energy =                            0.0000000000000000
    Total Energy =                       -193.1881869485694665
    Molecular point group: c1
  Basis Set: CC-PVTZ
  Basis Set:

  -Total Gradient:
     Atom            X                  Y                   Z
    ------   -----------------  -----------------  -----------------
       1       -0.000005964918    -0.000004007757     0.000003696668
       2       -0.001412722106     0.002177583133    -0.002907808979
       3        0.002139384777    -0.001939202247     0.004615713961
       4       -0.001559562200    -0.004327451155    -0.004331398916
       5        0.000011425589    -0.000005139900    -0.000002116311
       6       -0.000006910904    -0.000038256780     0.000002822469
       7        0.000025350623     0.000011430873    -0.000009242771
       8        0.000809446411     0.004129030125     0.002615738455
       9        0.000002324405    -0.000004176576     0.000002558851
      10        0.000000099811    -0.000010112471     0.000018970839
      11       -0.000007660185     0.000015599085     0.000007205604
      12        0.000004788694    -0.000005296329    -0.000016139871

  **** Optimization is complete! (in 5 steps) ****
    Final optimized geometry and variables:
    Molecular point group: c1

    Geometry (in Angstrom), charge = 0, multiplicity = 1:

    H           -0.931266746437    -2.005695211279     0.253746166456
    O           -1.334875558498    -1.205979084042    -0.031594350273
    C           -0.607665382626    -0.101954358447     0.437351341255
    C            0.793222723662     0.001031009918    -0.164493599987
    H           -1.190774801576     0.762374810382     0.146766311927
    H           -0.557525546144    -0.103229783265     1.523225193942
    C            1.274712400041     1.447241902548    -0.262148087612
    H            1.501342261713    -0.542773448878     0.454909270432
    H            0.782054757661    -0.454710843407    -1.147055745726
    H            1.260078343492     1.932420987506     0.708756793987
    H            2.289969356524     1.496408911466    -0.637076733687
    H            0.644384544475     2.024583422295    -0.929364002395

  Mulliken Charges: (a.u.)
   Center  Symbol    Alpha    Beta     Spin     Total
       1     H     0.39510  0.39510  0.00000  0.20979
       2     O     4.20055  4.20055  0.00000 -0.40110
       3     C     2.96414  2.96414  0.00000  0.07173
       4     C     3.09397  3.09397  0.00000 -0.18794
       5     H     0.46052  0.46052  0.00000  0.07897
       6     H     0.46961  0.46961  0.00000  0.06079
       7     C     3.15165  3.15165  0.00000 -0.30330
       8     H     0.45916  0.45916  0.00000  0.08167
       9     H     0.44840  0.44840  0.00000  0.10321
      10     H     0.45545  0.45545  0.00000  0.08910
      11     H     0.44846  0.44846  0.00000  0.10309
      12     H     0.45299  0.45299  0.00000  0.09401

   Total alpha = 17.00000, Total beta = 17.00000, Total charge =  0.00000
