  ==> Input File <==

--------------------------------------------------------------------------
set {
	reference rhf
	basis 6-31G*
}

set_num_threads( 4 )
memory 2 gb

molecule MOL {
0 1

H	 -0.216825	 0.021369	 -3.357402
C	 0.374198	 0.036393	 -2.447010
C	 -0.521757	 -0.028637	 -1.217342
H	 0.969602	 0.942322	 -2.434777
H	 1.053364	 -0.811668	 -2.481329
N	 0.263400	 0.031178	 0.000000
H	 -1.199035	 0.820290	 -1.219355
H	 -1.147901	 -0.924895	 -1.265384
C	 -0.521757	 -0.028637	 1.217342
H	 0.935769	 -0.712709	 0.000000
C	 0.270097	 -0.677377	 2.344796
H	 -0.780849	 0.988156	 1.497324
H	 -1.467002	 -0.562089	 1.077398
H	 1.190096	 -0.132595	 2.524174
H	 -0.308130	 -0.694706	 3.263328
H	 0.529838	 -1.704105	 2.099817

	symmetry c1
}
set optking {
	frozen_dihedral = ("
		12 9 6 3
	")
}

ee = optimize('scf')
oeprop('DIPOLE', 'QUADRUPOLE', 'MULLIKEN_CHARGES')
f=open( 'psi4out.xyz', 'w' )
f.write( "16  " )
f.write( str(ee) + "\n" )
f.write( MOL.save_string_xyz() )
f.close()
--------------------------------------------------------------------------

    Molecular point group: c1
  Charge       = 0
  Multiplicity = 1
  Basis Set: 6-31G*
  Basis Set:
  @DF-RHF Final Energy:  -212.31112437119086
    Total Energy =                       -212.3111243711908287
    Molecular point group: c1
  Basis Set: 6-31G*
  Basis Set:
  Basis Set: 6-31G*
  Basis Set:
  @DF-RHF Final Energy:  -212.31133361222888
    Total Energy =                       -212.3113336122289070
  Basis Set: 6-31G*
  Basis Set:
  Basis Set: 6-31G*
  Basis Set:
  @DF-RHF Final Energy:  -212.31136903043742
    Total Energy =                       -212.3113690304372199
  Basis Set: 6-31G*
  Basis Set:
  Basis Set: 6-31G*
  Basis Set:
  @DF-RHF Final Energy:  -212.31137021213254
    Total Energy =                       -212.3113702121327719
  Basis Set: 6-31G*
  Basis Set:
  Charge       = 0
  Multiplicity = 1
  Basis Set: 6-31G*
  Basis Set:

    Orbital Energies (a.u.)
    -----------------------

    Doubly Occupied:

       1A    -15.533385     2A    -11.240368     3A    -11.240348
       4A    -11.212412     5A    -11.207765     6A     -1.204311
       7A     -1.028938     8A     -0.963115     9A     -0.833587
      10A     -0.821974    11A     -0.654298    12A     -0.628170
      13A     -0.610171    14A     -0.586546    15A     -0.552721
      16A     -0.521683    17A     -0.507919    18A     -0.490035
      19A     -0.484926    20A     -0.471518    21A     -0.359760

  @DF-RHF Final Energy:  -212.31137032608356

   => Energetics <=

    Nuclear Repulsion Energy =            189.2927455562542889
    One-Electron Energy =                -660.9003318853565361
    Two-Electron Energy =                 259.2962160030186283
    DFT Exchange-Correlation Energy =       0.0000000000000000
    Empirical Dispersion Energy =           0.0000000000000000
    PCM Polarization Energy =               0.0000000000000000
    EFP Energy =                            0.0000000000000000
    Total Energy =                       -212.3113703260835905
    Molecular point group: c1
  Basis Set: 6-31G*
  Basis Set:

  -Total Gradient:
     Atom            X                  Y                   Z
    ------   -----------------  -----------------  -----------------
       1       -0.000000209144    -0.000000888630     0.000000345252
       2        0.000000712546    -0.000010371313    -0.000002476088
       3        0.000226243474    -0.003348512923     0.000012230616
       4       -0.000003140650     0.000000286357     0.000003498227
       5        0.000004017642    -0.000000359495    -0.000003386620
       6        0.000529257692     0.004803863691     0.000579472736
       7       -0.000010143440     0.000002255695    -0.000005449687
       8       -0.000003042396    -0.000004642284    -0.000006580770
       9       -0.004440911308    -0.001658960631    -0.002967564150
      10        0.000035749489    -0.000002162765     0.000014451366
      11        0.000016980244    -0.000011781610    -0.000003230274
      12        0.003657088764     0.000217398047     0.002367106168
      13       -0.000003410680     0.000006030310     0.000006615198
      14        0.000002302553    -0.000001776127    -0.000006602044
      15       -0.000012745585     0.000000003415     0.000006677457
      16        0.000001250799     0.000009618262     0.000004892611

  **** Optimization is complete! (in 5 steps) ****
    Final optimized geometry and variables:
    Molecular point group: c1

    Geometry (in Angstrom), charge = 0, multiplicity = 1:

    H           -0.190471943838     0.180760484456    -3.341554284717
    C            0.398522215157     0.195345825925    -2.429765467605
    C           -0.499116548729     0.119070681753    -1.202309355877
    H            0.988518146326     1.104596765409    -2.412337549357
    H            1.083226870011    -0.648319551921    -2.466276817879
    N            0.284532799843     0.166554129937     0.017752873595
    H           -1.178040649188     0.967081460846    -1.199509783253
    H           -1.124280638004    -0.777085418266    -1.255912673627
    C           -0.504925703791     0.109765104688     1.239117792786
    H            0.933757762703    -0.596978904040     0.008880514652
    C            0.290888389689    -0.523109714392     2.375626706039
    H           -0.761572863236     1.123208853100     1.534613234260
    H           -1.436386914022    -0.441233420064     1.098879792730
    H            1.224212872740     0.009140037031     2.528551175131
    H           -0.271346076612    -0.494693480061     3.303267309367
    H            0.525250176607    -1.562718283638     2.161083645420

  Mulliken Charges: (a.u.)
   Center  Symbol    Alpha    Beta     Spin     Total
       1     H     0.42048  0.42048  0.00000  0.15905
       2     C     3.24172  3.24172  0.00000 -0.48344
       3     C     3.05583  3.05583  0.00000 -0.11166
       4     H     0.41181  0.41181  0.00000  0.17638
       5     H     0.42507  0.42507  0.00000  0.14986
       6     N     3.85076  3.85076  0.00000 -0.70151
       7     H     0.42018  0.42018  0.00000  0.15965
       8     H     0.43484  0.43484  0.00000  0.13031
       9     C     3.04583  3.04583  0.00000 -0.09167
      10     H     0.33475  0.33475  0.00000  0.33051
      11     C     3.25296  3.25296  0.00000 -0.50591
      12     H     0.41962  0.41962  0.00000  0.16076
      13     H     0.43238  0.43238  0.00000  0.13523
      14     H     0.41283  0.41283  0.00000  0.17434
      15     H     0.41712  0.41712  0.00000  0.16576
      16     H     0.42383  0.42383  0.00000  0.15234

   Total alpha = 21.00000, Total beta = 21.00000, Total charge = -0.00000
