  ==> Input File <==

--------------------------------------------------------------------------
set {
	reference rhf
	basis cc-pvtz
}

set_num_threads( 4 )
memory 2 gb

molecule MOL {
0 1

H	 1.097439	 2.844206	 -2.318902
O	 0.464060	 2.493891	 -1.720433
C	 1.074195	 1.569096	 -0.857586
C	 0.027642	 1.012027	 0.090274
H	 1.856693	 2.052063	 -0.277753
H	 1.539265	 0.769028	 -1.426852
C	 -1.138737	 0.285728	 -0.581921
H	 -0.362565	 1.835448	 0.679531
H	 0.528300	 0.339511	 0.782573
C	 -1.933983	 -0.631436	 0.343653
H	 -0.763151	 -0.285569	 -1.422081
H	 -1.808359	 1.035291	 -0.992333
H	 -2.789188	 -1.049673	 -0.174718
H	 -1.335629	 -1.461368	 0.700418
H	 -2.305435	 -0.092167	 1.209725

	symmetry c1
}
set optking {
	frozen_dihedral = ("
		8 4 7 11
	")
}

ee = optimize('scf')
oeprop('DIPOLE', 'QUADRUPOLE', 'MULLIKEN_CHARGES')
f=open( 'psi4out.xyz', 'w' )
f.write( "15  " )
f.write( str(ee) + "\n" )
f.write( MOL.save_string_xyz() )
f.close()
--------------------------------------------------------------------------

    Molecular point group: c1
  Charge       = 0
  Multiplicity = 1
  Basis Set: CC-PVTZ
  Basis Set:
  @DF-RHF Final Energy:  -232.23743277301645
    Total Energy =                       -232.2374327730162236
    Molecular point group: c1
  Basis Set: CC-PVTZ
  Basis Set:
  Basis Set: CC-PVTZ
  Basis Set:
  @DF-RHF Final Energy:  -232.23786897353571
    Total Energy =                       -232.2378689735357966
  Basis Set: CC-PVTZ
  Basis Set:
  Basis Set: CC-PVTZ
  Basis Set:
  @DF-RHF Final Energy:  -232.23789356854112
    Total Energy =                       -232.2378935685410397
  Basis Set: CC-PVTZ
  Basis Set:
  Charge       = 0
  Multiplicity = 1
  Basis Set: CC-PVTZ
  Basis Set:

    Orbital Energies (a.u.)
    -----------------------

    Doubly Occupied:

       1A    -20.546230     2A    -11.265816     3A    -11.210599
       4A    -11.207478     5A    -11.203639     6A     -1.364202
       7A     -1.065837     8A     -0.975299     9A     -0.857414
      10A     -0.787350    11A     -0.707368    12A     -0.644081
      13A     -0.607047    14A     -0.591851    15A     -0.548853
      16A     -0.535541    17A     -0.510930    18A     -0.476672
      19A     -0.466997    20A     -0.456135    21A     -0.433137

  @DF-RHF Final Energy:  -232.23789446793239

   => Energetics <=

    Nuclear Repulsion Energy =            188.8558372774700729
    One-Electron Energy =                -689.2625121883343127
    Two-Electron Energy =                 268.1687804429317339
    DFT Exchange-Correlation Energy =       0.0000000000000000
    Empirical Dispersion Energy =           0.0000000000000000
    PCM Polarization Energy =               0.0000000000000000
    EFP Energy =                            0.0000000000000000
    Total Energy =                       -232.2378944679325059
    Molecular point group: c1
  Basis Set: CC-PVTZ
  Basis Set:

  -Total Gradient:
     Atom            X                  Y                   Z
    ------   -----------------  -----------------  -----------------
       1       -0.000002884043    -0.000005218037     0.000012830473
       2       -0.000054300711     0.000035575824    -0.000022390507
       3        0.000025775917     0.000022278931    -0.000029832419
       4       -0.000532864331    -0.001865383636     0.002676409563
       5       -0.000000925600    -0.000020801005     0.000017169687
       6        0.000017194415    -0.000042927596     0.000021720165
       7        0.000632389447    -0.002614247328     0.001852094087
       8        0.000318927043     0.001955538214    -0.002548614104
       9       -0.000003098907     0.000003472706    -0.000008311156
      10       -0.000020388446    -0.000024932728    -0.000003613845
      11       -0.000398083160     0.002531351889    -0.001945810924
      12       -0.000005909797     0.000013628706    -0.000017457721
      13        0.000003733238     0.000007666179     0.000002977307
      14        0.000009032408    -0.000000572554     0.000002825823
      15        0.000011402529     0.000004570436    -0.000009996430

  **** Optimization is complete! (in 4 steps) ****
    Final optimized geometry and variables:
    Molecular point group: c1

    Geometry (in Angstrom), charge = 0, multiplicity = 1:

    H            1.347844576885     1.876176431466    -1.722749333441
    O            0.728139584494     1.533179865732    -1.106138565451
    C            1.342556600501     0.574383080515    -0.284829096935
    C            0.309351608504     0.012701758232     0.673048913252
    H            2.155931908597     1.024729064508     0.278830820701
    H            1.763473292414    -0.228295390545    -0.887238889130
    C           -0.846301273436    -0.704278728494    -0.026145774333
    H           -0.076116721728     0.841088597294     1.259428495189
    H            0.816232810331    -0.665485734212     1.353840382956
    C           -1.648421966529    -1.600253878235     0.910072388367
    H           -0.462145347882    -1.280855013680    -0.863362084818
    H           -1.501106561515     0.037721374986    -0.467533125434
    H           -2.480874519953    -2.063356881226     0.392868930488
    H           -1.031741117756    -2.392591570779     1.321816531631
    H           -2.052347737498    -1.032451601641     1.742090403788

  Mulliken Charges: (a.u.)
   Center  Symbol    Alpha    Beta     Spin     Total
       1     H     0.39589  0.39589  0.00000  0.20822
       2     O     4.19929  4.19929  0.00000 -0.39858
       3     C     2.97255  2.97255  0.00000  0.05489
       4     C     3.08870  3.08870  0.00000 -0.17739
       5     H     0.46643  0.46643  0.00000  0.06714
       6     H     0.47441  0.47441  0.00000  0.05117
       7     C     3.08105  3.08105  0.00000 -0.16210
       8     H     0.45166  0.45166  0.00000  0.09667
       9     H     0.45558  0.45558  0.00000  0.08883
      10     C     3.14921  3.14921  0.00000 -0.29842
      11     H     0.45825  0.45825  0.00000  0.08349
      12     H     0.44572  0.44572  0.00000  0.10857
      13     H     0.44896  0.44896  0.00000  0.10208
      14     H     0.45736  0.45736  0.00000  0.08528
      15     H     0.45493  0.45493  0.00000  0.09014

   Total alpha = 21.00000, Total beta = 21.00000, Total charge = -0.00000
