                              Psi4 1.0.54 Driver

  ==> Input File <==

--------------------------------------------------------------------------
set {
	reference rhf
	basis cc-pvtz
}

set_num_threads( 4 )
memory 2 gb

molecule MOL {
0 1

H	 2.614283	 2.028610	 0.296620
O	 3.358864	 1.662087	 -0.142800
C	 3.565468	 0.338079	 0.273842
C	 2.533667	 -0.637565	 -0.272227
H	 4.548038	 0.064914	 -0.086598
H	 3.593945	 0.282242	 1.360360
C	 1.114816	 -0.402372	 0.240993
H	 2.544552	 -0.580764	 -1.356576
H	 2.850574	 -1.642962	 -0.005497
C	 0.470615	 0.848705	 -0.354529
H	 1.133893	 -0.319023	 1.322516
H	 0.498216	 -1.267935	 0.004579
C	 -0.979156	 1.092849	 0.068331
H	 1.071110	 1.717258	 -0.095204
H	 0.503768	 0.771491	 -1.437769
C	 -1.173431	 1.433348	 1.544834
H	 -1.375688	 1.909006	 -0.529312
H	 -1.577242	 0.219159	 -0.180896
C	 -2.621583	 1.765162	 1.895781
H	 -0.540290	 2.279409	 1.803256
H	 -0.843728	 0.605802	 2.165694
C	 -2.819745	 2.101946	 3.369959
H	 -2.955461	 2.601417	 1.287685
H	 -3.256622	 0.924122	 1.630375
H	 -2.221858	 2.959919	 3.659185
H	 -3.856605	 2.334728	 3.584066
H	 -2.530176	 1.270506	 4.004160

	symmetry c1
}
set optking {
	frozen_dihedral = ("
		10 7 4 8
	")
}

ee,wfn = optimize('scf', return_wfn=True)
oeprop( wfn, 'DIPOLE', 'QUADRUPOLE', 'MULLIKEN_CHARGES')
f=open( 'psi4out.xyz', 'w' )
f.write( "27  " )
f.write( str(ee) + "\n" )
f.write( MOL.save_string_xyz() )
f.close()
--------------------------------------------------------------------------

    Molecular point group: c1
  Charge       = 0
  Multiplicity = 1
  Basis Set: CC-PVTZ
  Basis Set:
  @DF-RHF Final Energy:  -388.41849699459902
    Total Energy =                       -388.4184969945995363
    Molecular point group: c1
  Basis Set: CC-PVTZ
  Basis Set:
  Basis Set: CC-PVTZ
  Basis Set:
  @DF-RHF Final Energy:  -388.37838618895319
    Total Energy =                       -388.3783861889530726
  Basis Set: CC-PVTZ
  Basis Set:
  Basis Set: CC-PVTZ
  Basis Set:
  @DF-RHF Final Energy:  -388.42190357839286
    Total Energy =                       -388.4219035783928575
  Basis Set: CC-PVTZ
  Basis Set:
  Basis Set: CC-PVTZ
  Basis Set:
  @DF-RHF Final Energy:  -388.42359071580682
    Total Energy =                       -388.4235907158069949
  Basis Set: CC-PVTZ
  Basis Set:
  @DF-RHF Final Energy:  -388.42258091184431
    Total Energy =                       -388.4225809118445341
  @DF-RHF Final Energy:  -388.42382867302257
    Total Energy =                       -388.4238286730220580
  @DF-RHF Final Energy:  -388.42380213445864
    Total Energy =                       -388.4238021344588105
  Basis Set: CC-PVTZ
  Basis Set:
  @DF-RHF Final Energy:  -388.42388843789519
    Total Energy =                       -388.4238884378951298
  Basis Set: CC-PVTZ
  Basis Set:
  Basis Set: CC-PVTZ
  Basis Set:
  @DF-RHF Final Energy:  -388.42389713078592
    Total Energy =                       -388.4238971307867132
  Basis Set: CC-PVTZ
  Basis Set:
  Basis Set: CC-PVTZ
  Basis Set:
  @DF-RHF Final Energy:  -388.42390209334599
    Total Energy =                       -388.4239020933462143
  Basis Set: CC-PVTZ
  Basis Set:
  Charge       = 0
  Multiplicity = 1
  Basis Set: CC-PVTZ
  Basis Set:

    Orbital Energies (a.u.)
    -----------------------

    Doubly Occupied:

       1A    -20.543481     2A    -11.264512     3A    -11.218525
       4A    -11.217355     5A    -11.214995     6A    -11.214876
       7A    -11.213948     8A    -11.213402     9A    -11.208172
      10A     -1.361831    11A     -1.097046    12A     -1.061869
      13A     -1.013880    14A     -0.949613    15A     -0.890891
      16A     -0.824948    17A     -0.802162    18A     -0.776928
      19A     -0.699596    20A     -0.649742    21A     -0.631228
      22A     -0.623863    23A     -0.599120    24A     -0.584673
      25A     -0.570002    26A     -0.560438    27A     -0.549321
      28A     -0.529601    29A     -0.517656    30A     -0.497581
      31A     -0.488744    32A     -0.473828    33A     -0.468615
      34A     -0.460615    35A     -0.449668    36A     -0.440985
      37A     -0.424879

  @DF-RHF Final Energy:  -388.42390298507178

   => Energetics <=

    Nuclear Repulsion Energy =            465.5341637054813191
    One-Electron Energy =               -1449.2989446197202597
    Two-Electron Energy =                 595.3408779291671635
    DFT Exchange-Correlation Energy =       0.0000000000000000
    Empirical Dispersion Energy =           0.0000000000000000
    PCM Polarization Energy =               0.0000000000000000
    EFP Energy =                            0.0000000000000000
    Total Energy =                       -388.4239029850717770
    Molecular point group: c1
  Basis Set: CC-PVTZ
  Basis Set:

  -Total Gradient:
     Atom            X                  Y                   Z
    ------   -----------------  -----------------  -----------------
       1       -0.000093832739     0.000056643926     0.000016061563
       2        0.000030862919    -0.000014837401    -0.000030828456
       3        0.000015844425    -0.000037165232    -0.000050636761
       4       -0.000075307026    -0.001432359522     0.000425402785
       5        0.000054465164    -0.000032501082     0.000006564125
       6       -0.000001791858     0.000037565335     0.000036985562
       7        0.000332644522     0.001091891103     0.000286804240
       8       -0.000010665992     0.000915324955    -0.000416693757
       9       -0.000015461381     0.000006113819     0.000017294769
      10       -0.000149204051    -0.000584302534    -0.000275472264
      11        0.000017671881     0.000011586753    -0.000007216080
      12       -0.000016351757    -0.000020081970    -0.000005347081
      13       -0.000034610968    -0.000034618679     0.000018992745
      14       -0.000044058885     0.000004812830     0.000005696892
      15       -0.000010928973    -0.000006900052    -0.000012989666
      16        0.000009655611     0.000031756415    -0.000005760013
      17       -0.000006148557     0.000012105097    -0.000010312389
      18        0.000004290934    -0.000027628194    -0.000006834058
      19       -0.000008712645     0.000011346268    -0.000028882042
      20       -0.000001849570     0.000029932142     0.000005576138
      21        0.000004213770    -0.000003609334     0.000010923139
      22        0.000011494029    -0.000009489570     0.000022849938
      23       -0.000004721678     0.000013287687    -0.000012603436
      24       -0.000007264003    -0.000017763236    -0.000001616242
      25        0.000002028209     0.000013715553    -0.000007715911
      26       -0.000012843390    -0.000010305943     0.000000103010
      27        0.000010582008    -0.000004519135     0.000019653245

  **** Optimization is complete! (in 11 steps) ****
    Final optimized geometry and variables:
    Molecular point group: c1

    Geometry (in Angstrom), charge = 0, multiplicity = 1:

    H            2.181643085659     1.296149686740    -1.641028968913
    O            2.965220874477     0.816954713185    -1.831555793953
    C            3.277136303729    -0.056049716132    -0.778211623128
    C            2.349193375135    -1.259846487470    -0.659834127243
    H            4.280062613489    -0.405851789413    -0.983249291688
    H            3.313065146941     0.483023477583     0.166835587469
    C            0.966899331910    -1.006051839935    -0.047681683526
    H            2.244024136987    -1.701047195184    -1.646467565176
    H            2.858615797920    -1.991905476209    -0.039193601394
    C           -0.033701652519    -0.260990476246    -0.936216955707
    H            1.090038962719    -0.485045544642     0.897228630579
    H            0.534993458386    -1.972495726905     0.198195025190
    C           -1.479732440669    -0.319003465606    -0.438797544633
    H            0.247610270463     0.784398386663    -1.035742507929
    H            0.005142288836    -0.681718656490    -1.936017115383
    C           -1.732681710054     0.389461698636     0.890585085540
    H           -2.120224569051     0.124466249749    -1.196155357935
    H           -1.785427150900    -1.359235453260    -0.355709647518
    C           -3.203243093726     0.384750135759     1.299898778235
    H           -1.385395887252     1.418386498707     0.820246887532
    H           -1.147711786144    -0.076393162304     1.677762714238
    C           -3.458015509591     1.085043858834     2.630493245728
    H           -3.793655330309     0.862414434226     0.522842790098
    H           -3.554652928700    -0.641730002417     1.360652998175
    H           -3.148054787985     2.124143451207     2.591602389877
    H           -4.510141063059     1.063994387853     2.890439475129
    H           -2.909177883246     0.607869337986     3.435692723347

  Mulliken Charges: (a.u.)
   Center  Symbol    Alpha    Beta     Spin     Total
       1     H     0.39077  0.39077  0.00000  0.21845
       2     O     4.20585  4.20585  0.00000 -0.41170
       3     C     2.97678  2.97678  0.00000  0.04645
       4     C     3.09912  3.09912  0.00000 -0.19824
       5     H     0.44863  0.44863  0.00000  0.10274
       6     H     0.47165  0.47165  0.00000  0.05670
       7     C     3.10718  3.10718  0.00000 -0.21436
       8     H     0.45100  0.45100  0.00000  0.09799
       9     H     0.44862  0.44862  0.00000  0.10276
      10     C     3.10270  3.10270  0.00000 -0.20541
      11     H     0.45041  0.45041  0.00000  0.09918
      12     H     0.44714  0.44714  0.00000  0.10572
      13     C     3.09682  3.09682  0.00000 -0.19365
      14     H     0.46540  0.46540  0.00000  0.06920
      15     H     0.44051  0.44051  0.00000  0.11898
      16     C     3.08793  3.08793  0.00000 -0.17586
      17     H     0.44720  0.44720  0.00000  0.10559
      18     H     0.45260  0.45260  0.00000  0.09480
      19     C     3.08454  3.08454  0.00000 -0.16908
      20     H     0.45636  0.45636  0.00000  0.08727
      21     H     0.45263  0.45263  0.00000  0.09474
      22     C     3.14962  3.14962  0.00000 -0.29924
      23     H     0.45359  0.45359  0.00000  0.09281
      24     H     0.45420  0.45420  0.00000  0.09159
      25     H     0.45524  0.45524  0.00000  0.08953
      26     H     0.44809  0.44809  0.00000  0.10382
      27     H     0.45539  0.45539  0.00000  0.08921

   Total alpha = 37.00000, Total beta = 37.00000, Total charge = -0.00000

*** Psi4 exiting successfully. Buy a developer a beer!
