  ==> Input File <==

--------------------------------------------------------------------------
set {
	reference rhf
	basis cc-pvtz
}

set_num_threads( 4 )
memory 2 gb

molecule MOL {
0 1

H	 -3.084579	 2.155105	 -0.470445
O	 -2.391225	 1.565884	 -0.703412
C	 -2.302264	 0.528872	 0.237390
C	 -1.175688	 -0.398187	 -0.171891
H	 -2.109350	 0.930790	 1.229871
H	 -3.238242	 -0.023919	 0.284274
C	 0.196029	 0.106276	 0.266738
H	 -1.201873	 -0.515469	 -1.250677
H	 -1.365975	 -1.378728	 0.252664
C	 1.330220	 -0.826136	 -0.155230
H	 0.359542	 1.097229	 -0.145561
H	 0.212134	 0.218135	 1.348778
C	 2.719700	 -0.407669	 0.328325
H	 1.339388	 -0.911200	 -1.239363
H	 1.119001	 -1.821953	 0.224128
C	 3.241564	 0.893452	 -0.276737
H	 3.418299	 -1.204729	 0.093035
H	 2.711776	 -0.323368	 1.411960
H	 3.254204	 0.841071	 -1.360784
H	 2.634460	 1.745075	 0.005842
H	 4.254264	 1.092401	 0.054971

	symmetry c1
}
set optking {
	frozen_dihedral = ("
		2 3 4 8
	")
}

ee = optimize('scf')
oeprop('DIPOLE', 'QUADRUPOLE', 'MULLIKEN_CHARGES')
f=open( 'psi4out.xyz', 'w' )
f.write( "21  " )
f.write( str(ee) + "\n" )
f.write( MOL.save_string_xyz() )
f.close()
--------------------------------------------------------------------------

    Molecular point group: c1
  Charge       = 0
  Multiplicity = 1
  Basis Set: CC-PVTZ
  Basis Set:
  @DF-RHF Final Energy:  -310.33152573218297
    Total Energy =                       -310.3315257321829677
    Molecular point group: c1
  Basis Set: CC-PVTZ
  Basis Set:
  Basis Set: CC-PVTZ
  Basis Set:
  @DF-RHF Final Energy:  -310.33179331157055
    Total Energy =                       -310.3317933115702090
  Basis Set: CC-PVTZ
  Basis Set:
  Basis Set: CC-PVTZ
  Basis Set:
  @DF-RHF Final Energy:  -310.33184937461135
    Total Energy =                       -310.3318493746116360
  Basis Set: CC-PVTZ
  Basis Set:
  Basis Set: CC-PVTZ
  Basis Set:
  @DF-RHF Final Energy:  -310.33185188093995
    Total Energy =                       -310.3318518809401212
  Basis Set: CC-PVTZ
  Basis Set:
  Basis Set: CC-PVTZ
  Basis Set:
  @DF-RHF Final Energy:  -310.33185325782119
    Total Energy =                       -310.3318532578208533
  Basis Set: CC-PVTZ
  Basis Set:
  Charge       = 0
  Multiplicity = 1
  Basis Set: CC-PVTZ
  Basis Set:

    Orbital Energies (a.u.)
    -----------------------

    Doubly Occupied:

       1A    -20.546258     2A    -11.265589     3A    -11.210059
       4A    -11.209768     5A    -11.207746     6A    -11.206192
       7A    -11.202344     8A     -1.363604     9A     -1.083280
      10A     -1.031435    11A     -0.953958    12A     -0.875825
      13A     -0.803808    14A     -0.774644    15A     -0.708882
      16A     -0.638777    17A     -0.629755    18A     -0.601555
      19A     -0.591778    20A     -0.563963    21A     -0.541544
      22A     -0.518871    23A     -0.504409    24A     -0.494633
      25A     -0.476599    26A     -0.458559    27A     -0.456095
      28A     -0.445383    29A     -0.426632

  @DF-RHF Final Energy:  -310.33185364660125

   => Energetics <=

    Nuclear Repulsion Energy =            316.8726778599182694
    One-Electron Energy =               -1048.8251730162733111
    Two-Electron Energy =                 421.6206415097534546
    DFT Exchange-Correlation Energy =       0.0000000000000000
    Empirical Dispersion Energy =           0.0000000000000000
    PCM Polarization Energy =               0.0000000000000000
    EFP Energy =                            0.0000000000000000
    Total Energy =                       -310.3318536466016440
    Molecular point group: c1
  Basis Set: CC-PVTZ
  Basis Set:

  -Total Gradient:
     Atom            X                  Y                   Z
    ------   -----------------  -----------------  -----------------
       1       -0.000000872961     0.000019388593    -0.000011760513
       2       -0.001868666625    -0.001560812617    -0.001566276839
       3        0.002916283325     0.002629583696     0.001987648135
       4       -0.003376347831    -0.004011178849    -0.000034449866
       5       -0.000005056303    -0.000000700197    -0.000014313677
       6       -0.000018939554     0.000017618345    -0.000004980072
       7        0.000020827195     0.000032377447    -0.000011550768
       8        0.002324326666     0.002870939756    -0.000322341235
       9        0.000002416708     0.000007070491    -0.000020013722
      10       -0.000011826495    -0.000005807510     0.000020485293
      11        0.000011569511     0.000017469789    -0.000000475282
      12       -0.000012170287    -0.000008469397    -0.000018729351
      13        0.000017963789    -0.000020715908    -0.000011318895
      14        0.000008238011    -0.000000406116     0.000007139338
      15       -0.000004626330     0.000003135048    -0.000001273818
      16       -0.000003256793     0.000009436490     0.000005585145
      17        0.000001140190    -0.000000501686    -0.000001468752
      18        0.000003365955    -0.000004055689    -0.000001399219
      19        0.000005755008    -0.000003325945    -0.000000194313
      20       -0.000004636355     0.000006226060    -0.000003568139
      21       -0.000005486827     0.000002728202     0.000003256547

  **** Optimization is complete! (in 6 steps) ****
    Final optimized geometry and variables:
    Molecular point group: c1

    Geometry (in Angstrom), charge = 0, multiplicity = 1:

    H           -3.169080055072     1.955390485003    -0.410901715930
    O           -2.537386747962     1.305601138662    -0.657643453288
    C           -2.490625058376     0.284305179271     0.306522028880
    C           -1.362237653343    -0.668541316640    -0.050862074464
    H           -2.335769283419     0.698677150081     1.300028883898
    H           -3.435859372055    -0.252455040536     0.318615181132
    C            0.015270936815    -0.157604604154     0.369533767741
    H           -1.371118599179    -0.796000920540    -1.128196368770
    H           -1.551772595823    -1.636549110827     0.402190046244
    C            1.149528402727    -1.075862340427    -0.080127676578
    H            0.153791206780     0.837081499935    -0.037729182594
    H            0.045154338163    -0.057995436327     1.452697337147
    C            2.541934387061    -0.655538945926     0.393607308576
    H            1.147016308329    -1.142737690003    -1.165629691951
    H            0.950697939077    -2.080315829822     0.284898739506
    C            3.044509334551     0.660388292349    -0.195334974254
    H            3.244439505075    -1.442418974890     0.136160921758
    H            2.546577805247    -0.589708251428     1.478598345612
    H            3.047424116369     0.624987587446    -1.280045519408
    H            2.430040041147     1.500186507700     0.105350318509
    H            4.058109390812     0.864993623019     0.130438805118

  Mulliken Charges: (a.u.)
   Center  Symbol    Alpha    Beta     Spin     Total
       1     H     0.39546  0.39546  0.00000  0.20909
       2     O     4.19916  4.19916  0.00000 -0.39832
       3     C     2.97210  2.97210  0.00000  0.05581
       4     C     3.09022  3.09022  0.00000 -0.18045
       5     H     0.47453  0.47453  0.00000  0.05095
       6     H     0.46587  0.46587  0.00000  0.06827
       7     C     3.09480  3.09480  0.00000 -0.18960
       8     H     0.45067  0.45067  0.00000  0.09867
       9     H     0.45145  0.45145  0.00000  0.09710
      10     C     3.09526  3.09526  0.00000 -0.19052
      11     H     0.44535  0.44535  0.00000  0.10930
      12     H     0.45852  0.45852  0.00000  0.08296
      13     C     3.08989  3.08989  0.00000 -0.17977
      14     H     0.45297  0.45297  0.00000  0.09406
      15     H     0.45148  0.45148  0.00000  0.09704
      16     C     3.15170  3.15170  0.00000 -0.30340
      17     H     0.44924  0.44924  0.00000  0.10152
      18     H     0.45577  0.45577  0.00000  0.08847
      19     H     0.45462  0.45462  0.00000  0.09075
      20     H     0.45336  0.45336  0.00000  0.09328
      21     H     0.44760  0.44760  0.00000  0.10479

   Total alpha = 29.00000, Total beta = 29.00000, Total charge = -0.00000
