  ==> Input File <==

--------------------------------------------------------------------------
set {
	reference rhf
	basis 6-31G*
}

set_num_threads( 4 )
memory 2 gb

molecule MOL {
0 1

H	 -1.141675	 2.637925	 3.685941
O	 -0.452068	 2.056831	 3.398405
C	 -0.730570	 1.599514	 2.099988
C	 0.393648	 0.672799	 1.672110
H	 -1.681111	 1.068258	 2.076594
H	 -0.807752	 2.436517	 1.407306
C	 0.198102	 0.111031	 0.262842
H	 0.461173	 -0.137999	 2.392370
H	 1.329778	 1.221156	 1.730784
C	 1.331804	 -0.827780	 -0.158768
H	 -0.753349	 -0.413096	 0.215902
H	 0.131732	 0.932087	 -0.449886
C	 2.723619	 -0.410569	 0.329459
H	 1.342964	 -0.912588	 -1.244120
H	 1.116806	 -1.824343	 0.220779
C	 3.243875	 0.895854	 -0.272975
H	 3.424222	 -1.207124	 0.091250
H	 2.714788	 -0.329854	 1.414619
H	 3.251977	 0.848779	 -1.358681
H	 2.637085	 1.747371	 0.016682
H	 4.259473	 1.094070	 0.055697

	symmetry c1
}
set optking {
	frozen_dihedral = ("
		4 7 10 14
	")
}

ee = optimize('scf')
oeprop('DIPOLE', 'QUADRUPOLE', 'MULLIKEN_CHARGES')
f=open( 'psi4out.xyz', 'w' )
f.write( "21  " )
f.write( str(ee) + "\n" )
f.write( MOL.save_string_xyz() )
f.close()
--------------------------------------------------------------------------

    Molecular point group: c1
  Charge       = 0
  Multiplicity = 1
  Basis Set: 6-31G*
  Basis Set:
  @DF-RHF Final Energy:  -310.20663760756042
    Total Energy =                       -310.2066376075606513
    Molecular point group: c1
  Basis Set: 6-31G*
  Basis Set:
  Basis Set: 6-31G*
  Basis Set:
  @DF-RHF Final Energy:  -310.20792474421415
    Total Energy =                       -310.2079247442145515
  Basis Set: 6-31G*
  Basis Set:
  Basis Set: 6-31G*
  Basis Set:
  @DF-RHF Final Energy:  -310.20860982894499
    Total Energy =                       -310.2086098289450433
  Basis Set: 6-31G*
  Basis Set:
  Basis Set: 6-31G*
  Basis Set:
  @DF-RHF Final Energy:  -310.20875132472651
    Total Energy =                       -310.2087513247265065
  Basis Set: 6-31G*
  Basis Set:
  Basis Set: 6-31G*
  Basis Set:
  @DF-RHF Final Energy:  -310.20879796021410
    Total Energy =                       -310.2087979602139285
  Basis Set: 6-31G*
  Basis Set:
  Charge       = 0
  Multiplicity = 1
  Basis Set: 6-31G*
  Basis Set:

    Orbital Energies (a.u.)
    -----------------------

    Doubly Occupied:

       1A    -20.552006     2A    -11.267231     3A    -11.216379
       4A    -11.214231     5A    -11.212731     6A    -11.210526
       7A    -11.206931     8A     -1.358847     9A     -1.085367
      10A     -1.029026    11A     -0.955523    12A     -0.874711
      13A     -0.820247    14A     -0.763197    15A     -0.689110
      16A     -0.660811    17A     -0.627497    18A     -0.617170
      19A     -0.570716    20A     -0.562322    21A     -0.548447
      22A     -0.526229    23A     -0.502254    24A     -0.493135
      25A     -0.478102    26A     -0.453857    27A     -0.448275
      28A     -0.446613    29A     -0.434365

  @DF-RHF Final Energy:  -310.20879747098382

   => Energetics <=

    Nuclear Repulsion Energy =            320.0945243507678128
    One-Electron Energy =               -1054.9549325456077895
    Two-Electron Energy =                 424.6516107238561517
    DFT Exchange-Correlation Energy =       0.0000000000000000
    Empirical Dispersion Energy =           0.0000000000000000
    PCM Polarization Energy =               0.0000000000000000
    EFP Energy =                            0.0000000000000000
    Total Energy =                       -310.2087974709837681
    Molecular point group: c1
  Basis Set: 6-31G*
  Basis Set:

  -Total Gradient:
     Atom            X                  Y                   Z
    ------   -----------------  -----------------  -----------------
       1        0.000003884686     0.000002091771    -0.000022327427
       2        0.000029343591    -0.000018427819    -0.000011898001
       3       -0.000022553157     0.000109190039    -0.000037797854
       4        0.002320986724     0.003365925089    -0.001446366411
       5        0.000040056937    -0.000016478604     0.000025085328
       6       -0.000030942756     0.000007934065    -0.000027467595
       7       -0.002691720027    -0.004099655691     0.002285344668
       8       -0.000060626846     0.000033844033     0.000048277697
       9        0.000239506378     0.000007331429    -0.000036711475
      10       -0.004011302489    -0.004303027668    -0.000567235884
      11        0.000008663797    -0.000060106845    -0.000062486599
      12       -0.000023171707    -0.000030946827    -0.000002001917
      13       -0.000056587063     0.000117572911     0.000038465497
      14        0.004142247095     0.004759107412    -0.000129519216
      15       -0.000114350407     0.000044219491     0.000047949689
      16        0.000265142955    -0.000036782369    -0.000136553072
      17        0.000003834863     0.000041713732    -0.000043065856
      18       -0.000004396547    -0.000012208149     0.000045870560
      19        0.000023255179     0.000016238586    -0.000014082554
      20       -0.000081742613     0.000006546627     0.000051195991
      21        0.000020471407     0.000065918786    -0.000004675576

  **** Optimization is complete! (in 6 steps) ****
    Final optimized geometry and variables:
    Molecular point group: c1

    Geometry (in Angstrom), charge = 0, multiplicity = 1:

    H           -2.229014021267     1.984969424832     2.586733302449
    O           -1.502214133264     1.440415378800     2.319978853958
    C           -1.730004152176     0.950718109241     1.023485689756
    C           -0.546636937170     0.083465564849     0.630158684831
    H           -2.648637197364     0.366818992412     0.990396123243
    H           -1.840531800045     1.772879276114     0.317416188319
    C           -0.682603045852    -0.468921332510    -0.791302934547
    H           -0.464427069646    -0.726377391184     1.350880405309
    H            0.352766846604     0.680647023991     0.728123630342
    C            0.423410633607    -1.444379679949    -1.238072808109
    H           -1.641681137573    -0.970993364251    -0.897529807643
    H           -0.712159006733     0.372597768630    -1.480804380653
    C            1.857023795963    -1.087686725669    -0.816953907665
    H            0.423174705037    -1.478806068281    -2.325281035479
    H            0.191835749622    -2.442514343501    -0.876714398961
    C            2.390527103439     0.197438310459    -1.453594233622
    H            2.504366655985    -1.911339346923    -1.108441218169
    H            1.929814429281    -1.019835950069     0.264337691194
    H            2.371363470614     0.130137700022    -2.538137998304
    H            1.805946936182     1.066390265923    -1.168678303746
    H            3.417284053504     0.382523573704    -1.153251410305

  Mulliken Charges: (a.u.)
   Center  Symbol    Alpha    Beta     Spin     Total
       1     H     0.28115  0.28115  0.00000  0.43770
       2     O     4.37202  4.37202  0.00000 -0.74403
       3     C     2.98915  2.98915  0.00000  0.02169
       4     C     3.16340  3.16340  0.00000 -0.32681
       5     H     0.43264  0.43264  0.00000  0.13471
       6     H     0.43304  0.43304  0.00000  0.13392
       7     C     3.16335  3.16335  0.00000 -0.32669
       8     H     0.41542  0.41542  0.00000  0.16916
       9     H     0.41132  0.41132  0.00000  0.17736
      10     C     3.15165  3.15165  0.00000 -0.30331
      11     H     0.42115  0.42115  0.00000  0.15769
      12     H     0.42273  0.42273  0.00000  0.15453
      13     C     3.15752  3.15752  0.00000 -0.31503
      14     H     0.42263  0.42263  0.00000  0.15474
      15     H     0.42065  0.42065  0.00000  0.15871
      16     C     3.24122  3.24122  0.00000 -0.48244
      17     H     0.42092  0.42092  0.00000  0.15815
      18     H     0.41824  0.41824  0.00000  0.16352
      19     H     0.42279  0.42279  0.00000  0.15442
      20     H     0.42026  0.42026  0.00000  0.15948
      21     H     0.41874  0.41874  0.00000  0.16253

   Total alpha = 29.00000, Total beta = 29.00000, Total charge =  0.00000
