  ==> Input File <==

--------------------------------------------------------------------------
set {
	reference rhf
	basis 6-31G*
}

set_num_threads( 4 )
memory 2 gb

molecule MOL {
0 1

H	 -0.000158	 1.970498	 0.756846
O	 -0.000074	 1.880206	 -0.189275
C	 -0.000015	 0.544847	 -0.545111
C	 0.324870	 0.403045	 -2.028461
C	 -1.319277	 -0.101465	 -0.135444
H	 0.787610	 0.055860	 0.008642
F	 1.512838	 0.914024	 -2.271730
F	 0.334146	 -0.853767	 -2.419224
F	 -0.555767	 1.058569	 -2.767625
F	 -1.474391	 -0.002341	 1.167496
F	 -1.370648	 -1.377001	 -0.455986
F	 -2.341703	 0.510351	 -0.711555

	symmetry c1
}
set optking {
	frozen_dihedral = ("
		6 3 2 1
	")
}

ee = optimize('scf')
oeprop('DIPOLE', 'QUADRUPOLE', 'MULLIKEN_CHARGES')
f=open( 'psi4out.xyz', 'w' )
f.write( "12  " )
f.write( str(ee) + "\n" )
f.write( MOL.save_string_xyz() )
f.close()
--------------------------------------------------------------------------

    Molecular point group: c1
  Charge       = 0
  Multiplicity = 1
  Basis Set: 6-31G*
  Basis Set:
  @DF-RHF Final Energy:  -786.27399751816870
    Total Energy =                       -786.2739975181688123
    Molecular point group: c1
  Basis Set: 6-31G*
  Basis Set:
  Basis Set: 6-31G*
  Basis Set:
  @DF-RHF Final Energy:  -786.27602668882093
    Total Energy =                       -786.2760266888196838
  Basis Set: 6-31G*
  Basis Set:
  Basis Set: 6-31G*
  Basis Set:
  @DF-RHF Final Energy:  -786.27648488544048
    Total Energy =                       -786.2764848854403681
  Basis Set: 6-31G*
  Basis Set:
  Basis Set: 6-31G*
  Basis Set:
  @DF-RHF Final Energy:  -786.27653471481062
    Total Energy =                       -786.2765347148101682
  Basis Set: 6-31G*
  Basis Set:
  Basis Set: 6-31G*
  Basis Set:
  @DF-RHF Final Energy:  -786.27654384999039
    Total Energy =                       -786.2765438499908441
  Basis Set: 6-31G*
  Basis Set:
  Basis Set: 6-31G*
  Basis Set:
  @DF-RHF Final Energy:  -786.27654549512033
    Total Energy =                       -786.2765454951206721
  Basis Set: 6-31G*
  Basis Set:
  Charge       = 0
  Multiplicity = 1
  Basis Set: 6-31G*
  Basis Set:

    Orbital Energies (a.u.)
    -----------------------

    Doubly Occupied:

       1A    -26.362321     2A    -26.359701     3A    -26.357425
       4A    -26.355572     5A    -26.352150     6A    -26.351215
       7A    -20.616612     8A    -11.523916     9A    -11.521771
      10A    -11.349298    11A     -1.761512    12A     -1.753600
      13A     -1.657868    14A     -1.656830    15A     -1.650761
      16A     -1.649326    17A     -1.435083    18A     -1.102295
      19A     -0.994012    20A     -0.932961    21A     -0.864600
      22A     -0.855689    23A     -0.851319    24A     -0.839554
      25A     -0.828889    26A     -0.781225    27A     -0.758783
      28A     -0.727986    29A     -0.720239    30A     -0.716098
      31A     -0.712920    32A     -0.681299    33A     -0.677881
      34A     -0.666088    35A     -0.665713    36A     -0.658981
      37A     -0.651080    38A     -0.632042    39A     -0.617095
      40A     -0.550702    41A     -0.505737

  @DF-RHF Final Energy:  -786.27654578592001

   => Energetics <=

    Nuclear Repulsion Energy =            670.2341707641044195
    One-Electron Energy =               -2427.6051396317420767
    Two-Electron Energy =                 971.0944230817178777
    DFT Exchange-Correlation Energy =       0.0000000000000000
    Empirical Dispersion Energy =           0.0000000000000000
    PCM Polarization Energy =               0.0000000000000000
    EFP Energy =                            0.0000000000000000
    Total Energy =                       -786.2765457859197795
    Molecular point group: c1
  Basis Set: 6-31G*
  Basis Set:

  -Total Gradient:
     Atom            X                  Y                   Z
    ------   -----------------  -----------------  -----------------
       1        0.000112918197    -0.000004624382     0.000001467532
       2       -0.000160031867     0.000004894803     0.000017729825
       3        0.000093167567    -0.000003117660    -0.000131427184
       4        0.000000351047     0.000005849311     0.000062663724
       5        0.000063160180     0.000020790866    -0.000004392713
       6       -0.000059739386    -0.000019368688     0.000079482842
       7       -0.000002594558     0.000014257475    -0.000033166368
       8       -0.000009776466     0.000020824188    -0.000008686630
       9        0.000031771998    -0.000019379566    -0.000013153563
      10       -0.000035489950    -0.000001099631     0.000003475060
      11       -0.000040294394     0.000021967281    -0.000007553615
      12        0.000006557636    -0.000040994002     0.000033561101

  **** Optimization is complete! (in 7 steps) ****
    Final optimized geometry and variables:
    Molecular point group: c1

    Geometry (in Angstrom), charge = 0, multiplicity = 1:

    H            0.540927589513     1.676648311020     1.792607459608
    O            0.522115741012     1.573406154633     0.850352927178
    C            0.517701460008     0.233154210217     0.511290452698
    C            0.818290690978     0.160524393395    -0.979328032496
    C           -0.812266437866    -0.401466603696     0.902264904629
    H            1.295320532934    -0.329933373534     1.016137967084
    F            2.032650452219     0.617030895956    -1.206525288618
    F            0.770079910427    -1.090646915949    -1.399367287888
    F           -0.026918013642     0.866390107112    -1.693499920377
    F           -1.019244216323    -0.164519362475     2.191508800282
    F           -0.794056262490    -1.707959167233     0.734241854410
    F           -1.830296487927     0.088519414157     0.234452718809

  Mulliken Charges: (a.u.)
   Center  Symbol    Alpha    Beta     Spin     Total
       1     H     0.26408  0.26408  0.00000  0.47184
       2     O     4.36337  4.36337  0.00000 -0.72674
       3     C     3.05155  3.05155  0.00000 -0.10311
       4     C     2.43317  2.43317  0.00000  1.13366
       5     C     2.44236  2.44236  0.00000  1.11528
       6     H     0.38764  0.38764  0.00000  0.22472
       7     F     4.67714  4.67714  0.00000 -0.35429
       8     F     4.67874  4.67874  0.00000 -0.35749
       9     F     4.67031  4.67031  0.00000 -0.34063
      10     F     4.68721  4.68721  0.00000 -0.37441
      11     F     4.67480  4.67480  0.00000 -0.34961
      12     F     4.66961  4.66961  0.00000 -0.33922

   Total alpha = 41.00000, Total beta = 41.00000, Total charge = -0.00000
