  ==> Input File <==

--------------------------------------------------------------------------
set {
	reference rhf
	basis 6-31G*
}

set_num_threads( 4 )
memory 2 gb

molecule MOL {
0 1

H	 3.047510	 0.276398	 0.906719
O	 2.347136	 0.831294	 0.594859
C	 1.135793	 0.118896	 0.612333
C	 0.031547	 1.023609	 0.088541
H	 0.892412	 -0.193477	 1.626274
H	 1.213753	 -0.781267	 0.006749
C	 -1.134819	 0.293262	 -0.585751
H	 0.474374	 1.714721	 -0.623187
H	 -0.338529	 1.620940	 0.920081
C	 -1.917817	 -0.639439	 0.339494
H	 -0.758119	 -0.268455	 -1.433105
H	 -1.813832	 1.041889	 -0.986690
H	 -2.777680	 -1.057197	 -0.174994
H	 -1.310268	 -1.471279	 0.680599
H	 -2.283753	 -0.111424	 1.216626

	symmetry c1
}
set optking {
	frozen_dihedral = ("
		2 3 4 8
	")
}

ee = optimize('scf')
oeprop('DIPOLE', 'QUADRUPOLE', 'MULLIKEN_CHARGES')
f=open( 'psi4out.xyz', 'w' )
f.write( "15  " )
f.write( str(ee) + "\n" )
f.write( MOL.save_string_xyz() )
f.close()
--------------------------------------------------------------------------

    Molecular point group: c1
  Charge       = 0
  Multiplicity = 1
  Basis Set: 6-31G*
  Basis Set:
  @DF-RHF Final Energy:  -232.14105064703770
    Total Energy =                       -232.1410506470375594
    Molecular point group: c1
  Basis Set: 6-31G*
  Basis Set:
  Basis Set: 6-31G*
  Basis Set:
  @DF-RHF Final Energy:  -232.14146781090716
    Total Energy =                       -232.1414678109071019
  Basis Set: 6-31G*
  Basis Set:
  Basis Set: 6-31G*
  Basis Set:
  @DF-RHF Final Energy:  -232.14151472566496
    Total Energy =                       -232.1415147256649334
  Basis Set: 6-31G*
  Basis Set:
  Basis Set: 6-31G*
  Basis Set:
  @DF-RHF Final Energy:  -232.14150555810014
    Total Energy =                       -232.1415055581001070
  Basis Set: 6-31G*
  Basis Set:
  Basis Set: 6-31G*
  Basis Set:
  @DF-RHF Final Energy:  -232.14152157445943
    Total Energy =                       -232.1415215744596026
  Basis Set: 6-31G*
  Basis Set:
  Charge       = 0
  Multiplicity = 1
  Basis Set: 6-31G*
  Basis Set:

    Orbital Energies (a.u.)
    -----------------------

    Doubly Occupied:

       1A    -20.552072     2A    -11.267448     3A    -11.218147
       4A    -11.211849     5A    -11.210837     6A     -1.358567
       7A     -1.069674     8A     -0.969599     9A     -0.870105
      10A     -0.784528    11A     -0.698476    12A     -0.648142
      13A     -0.610280    14A     -0.590213    15A     -0.555541
      16A     -0.535792    17A     -0.509576    18A     -0.474556
      19A     -0.472413    20A     -0.455899    21A     -0.431787

  @DF-RHF Final Energy:  -232.14152166999980

   => Energetics <=

    Nuclear Repulsion Energy =            188.2005884336488748
    One-Electron Energy =                -687.6932146963024479
    Two-Electron Energy =                 267.3511045926538827
    DFT Exchange-Correlation Energy =       0.0000000000000000
    Empirical Dispersion Energy =           0.0000000000000000
    PCM Polarization Energy =               0.0000000000000000
    EFP Energy =                            0.0000000000000000
    Total Energy =                       -232.1415216699996904
    Molecular point group: c1
  Basis Set: 6-31G*
  Basis Set:

  -Total Gradient:
     Atom            X                  Y                   Z
    ------   -----------------  -----------------  -----------------
       1       -0.000001335599     0.000001809765    -0.000001730776
       2        0.000569005925    -0.000916218197    -0.002847865869
       3       -0.000569246305     0.001706250139     0.004271511094
       4       -0.000672872011    -0.003263577231    -0.004391039399
       5       -0.000014713886     0.000007797961    -0.000004417698
       6       -0.000003231527    -0.000006131469     0.000003665655
       7        0.000026011023    -0.000015091651    -0.000011651596
       8        0.000692357347     0.002473834003     0.002972292944
       9        0.000000546934     0.000008255775     0.000006778728
      10       -0.000008256216     0.000002138503    -0.000002248956
      11       -0.000013205612     0.000002831793    -0.000008135316
      12        0.000001564972    -0.000002654096     0.000010925468
      13       -0.000001715342    -0.000009229547     0.000003367670
      14        0.000003015216     0.000009572805    -0.000002773111
      15       -0.000007924926     0.000000411446     0.000001321161

  **** Optimization is complete! (in 6 steps) ****
    Final optimized geometry and variables:
    Molecular point group: c1

    Geometry (in Angstrom), charge = 0, multiplicity = 1:

    H            2.873644301352    -0.021425238767     0.753257243581
    O            2.189091265896     0.506881435779     0.368044345419
    C            0.982770120652    -0.214571690763     0.364323904314
    C           -0.119401378981     0.707030521690    -0.150725960203
    H            0.749863647867    -0.580649141378     1.361450307961
    H            1.073655278997    -1.083428434565    -0.287401977247
    C           -1.289225522992    -0.019410994328    -0.816733798552
    H            0.342245540371     1.406069411531    -0.840266467344
    H           -0.488735336842     1.312837884646     0.674047499526
    C           -2.060928690728    -0.947815320702     0.123636343152
    H           -0.922485453604    -0.589338849167    -1.667784717168
    H           -1.973638490111     0.722204700715    -1.219542853823
    H           -2.905980661919    -1.401276031416    -0.384821885616
    H           -1.436611039119    -1.754055493924     0.497682254109
    H           -2.444696172354    -0.402539930483     0.981568285854

  Mulliken Charges: (a.u.)
   Center  Symbol    Alpha    Beta     Spin     Total
       1     H     0.28159  0.28159  0.00000  0.43683
       2     O     4.37210  4.37210  0.00000 -0.74419
       3     C     2.99216  2.99216  0.00000  0.01569
       4     C     3.16331  3.16331  0.00000 -0.32662
       5     H     0.43040  0.43040  0.00000  0.13919
       6     H     0.43231  0.43231  0.00000  0.13537
       7     C     3.15964  3.15964  0.00000 -0.31928
       8     H     0.40628  0.40628  0.00000  0.18744
       9     H     0.41949  0.41949  0.00000  0.16101
      10     C     3.24239  3.24239  0.00000 -0.48477
      11     H     0.42131  0.42131  0.00000  0.15739
      12     H     0.41842  0.41842  0.00000  0.16316
      13     H     0.41784  0.41784  0.00000  0.16432
      14     H     0.42212  0.42212  0.00000  0.15576
      15     H     0.42064  0.42064  0.00000  0.15872

   Total alpha = 21.00000, Total beta = 21.00000, Total charge =  0.00000
