  ==> Input File <==

--------------------------------------------------------------------------
set {
	reference rhf
	basis 6-31G*
}

set_num_threads( 4 )
memory 2 gb

molecule MOL {
0 1

H	 2.176868	 -0.646004	 -0.217325
O	 1.337496	 -0.537251	 0.205931
C	 0.702312	 0.627605	 -0.264544
C	 -0.714990	 0.596302	 0.266387
H	 0.682322	 0.642550	 -1.350929
H	 1.215941	 1.520383	 0.085680
O	 -1.405996	 -0.526611	 -0.195820
H	 -1.257453	 1.468809	 -0.075599
H	 -0.688972	 0.618407	 1.353696
H	 -2.044229	 -0.764878	 0.464408

	symmetry c1
}
set optking {
	frozen_dihedral = ("
		10 7 4 3
	")
}

ee = optimize('scf')
oeprop('DIPOLE', 'QUADRUPOLE', 'MULLIKEN_CHARGES')
f=open( 'psi4out.xyz', 'w' )
f.write( "10  " )
f.write( str(ee) + "\n" )
f.write( MOL.save_string_xyz() )
f.close()
--------------------------------------------------------------------------

    Molecular point group: c1
  Charge       = 0
  Multiplicity = 1
  Basis Set: 6-31G*
  Basis Set:
  @DF-RHF Final Energy:  -228.91732237554965
    Total Energy =                       -228.9173223755496167
    Molecular point group: c1
  Basis Set: 6-31G*
  Basis Set:
  Basis Set: 6-31G*
  Basis Set:
  @DF-RHF Final Energy:  -228.91923238525979
    Total Energy =                       -228.9192323852597610
  Basis Set: 6-31G*
  Basis Set:
  Basis Set: 6-31G*
  Basis Set:
  @DF-RHF Final Energy:  -228.91944650212915
    Total Energy =                       -228.9194465021291194
  Basis Set: 6-31G*
  Basis Set:
  Basis Set: 6-31G*
  Basis Set:
  @DF-RHF Final Energy:  -228.91947459119589
    Total Energy =                       -228.9194745911960354
  Basis Set: 6-31G*
  Basis Set:
  Basis Set: 6-31G*
  Basis Set:
  @DF-RHF Final Energy:  -228.91947898611335
    Total Energy =                       -228.9194789861134041
  Basis Set: 6-31G*
  Basis Set:
  Charge       = 0
  Multiplicity = 1
  Basis Set: 6-31G*
  Basis Set:

    Orbital Energies (a.u.)
    -----------------------

    Doubly Occupied:

       1A    -20.552908     2A    -20.551639     3A    -11.269776
       4A    -11.269022     5A     -1.370544     6A     -1.349798
       7A     -1.001684     8A     -0.830917     9A     -0.715822
      10A     -0.706147    11A     -0.612218    12A     -0.595292
      13A     -0.590885    14A     -0.524990    15A     -0.472858
      16A     -0.442207    17A     -0.437603

  @DF-RHF Final Energy:  -228.91947984669150

   => Energetics <=

    Nuclear Repulsion Energy =            133.4416628639369264
    One-Electron Energy =                -578.1336654338671224
    Two-Electron Energy =                 215.7725227232386658
    DFT Exchange-Correlation Energy =       0.0000000000000000
    Empirical Dispersion Energy =           0.0000000000000000
    PCM Polarization Energy =               0.0000000000000000
    EFP Energy =                            0.0000000000000000
    Total Energy =                       -228.9194798466915302
    Molecular point group: c1
  Basis Set: 6-31G*
  Basis Set:

  -Total Gradient:
     Atom            X                  Y                   Z
    ------   -----------------  -----------------  -----------------
       1        0.000017696341     0.000001756308     0.000009614439
       2       -0.000038309846     0.000012852032    -0.000009930594
       3        0.000120396734    -0.000078963448     0.000109909378
       4       -0.000047488494     0.000120506547    -0.000078646772
       5       -0.000002101666     0.000005806728    -0.000028614079
       6        0.000010257747    -0.000033216542    -0.000017272815
       7       -0.000196884403     0.000152631434    -0.000104299156
       8       -0.000012343812    -0.000023535826     0.000008738695
       9       -0.000007005832     0.000020945480     0.000019138551
      10        0.000155783230    -0.000178782710     0.000091362352

  **** Optimization is complete! (in 6 steps) ****
    Final optimized geometry and variables:
    Molecular point group: c1

    Geometry (in Angstrom), charge = 0, multiplicity = 1:

    H            2.209905715127    -0.648403494476    -0.209317955722
    O            1.412442373341    -0.500388044667     0.277835930205
    C            0.699735948480     0.563582812973    -0.290832926019
    C           -0.700886640686     0.565759427209     0.275302848682
    H            0.639640531603     0.466794591943    -1.371574681131
    H            1.177474211737     1.514986631978    -0.060838669214
    O           -1.420205888998    -0.505926949549    -0.271868986804
    H           -1.183395342677     1.510300899093     0.030792410988
    H           -0.636826462105     0.489272544076     1.356803030813
    H           -2.069884931401    -0.808886528716     0.344350112676

  Mulliken Charges: (a.u.)
   Center  Symbol    Alpha    Beta     Spin     Total
       1     H     0.27958  0.27958  0.00000  0.44085
       2     O     4.36764  4.36764  0.00000 -0.73527
       3     C     3.00014  3.00014  0.00000 -0.00028
       4     C     3.00076  3.00076  0.00000 -0.00153
       5     H     0.42189  0.42189  0.00000  0.15622
       6     H     0.43194  0.43194  0.00000  0.13612
       7     O     4.36798  4.36798  0.00000 -0.73595
       8     H     0.42944  0.42944  0.00000  0.14112
       9     H     0.42198  0.42198  0.00000  0.15605
      10     H     0.27866  0.27866  0.00000  0.44268

   Total alpha = 17.00000, Total beta = 17.00000, Total charge =  0.00000
