                              Psi4 1.0.54 Driver

  ==> Input File <==

--------------------------------------------------------------------------
set {
	reference rhf
	basis cc-pvtz
}

set_num_threads( 4 )
memory 2 gb

molecule MOL {
0 1

O	 -2.817697	 1.304178	 0.001046
C	 -2.664672	 0.129869	 0.003507
C	 -3.797908	 -0.860100	 -0.001145
O	 -1.481217	 -0.452708	 0.001092
H	 -4.408836	 -0.679689	 -0.875387
H	 -3.443486	 -1.878443	 -0.002770
H	 -4.412123	 -0.683688	 0.871605
C	 -0.332055	 0.384012	 -0.000250
C	 0.892252	 -0.506059	 -0.000295
H	 -0.360822	 1.020205	 -0.874146
H	 -0.359817	 1.021310	 0.872861
C	 2.188199	 0.299473	 -0.001416
H	 0.857046	 -1.152781	 -0.871031
H	 0.857910	 -1.151798	 0.871202
C	 3.437151	 -0.577593	 -0.000991
H	 2.209565	 0.950707	 -0.871712
H	 2.210062	 0.952234	 0.867721
C	 3.364573	 -1.720329	 1.005932
H	 4.306438	 0.037517	 0.213567
H	 3.589719	 -0.983647	 -0.996948
H	 3.246401	 -1.344503	 2.016692
H	 4.265080	 -2.322790	 0.980733
H	 2.523922	 -2.373399	 0.796983

	symmetry c1
}
set optking {
	frozen_dihedral = ("
		19 15 12 16
	")
}

ee,wfn = optimize('scf', return_wfn=True)
oeprop( wfn, 'DIPOLE', 'QUADRUPOLE', 'MULLIKEN_CHARGES')
f=open( 'psi4out.xyz', 'w' )
f.write( "23  " )
f.write( str(ee) + "\n" )
f.write( MOL.save_string_xyz() )
f.close()
--------------------------------------------------------------------------

    Molecular point group: c1
  Charge       = 0
  Multiplicity = 1
  Basis Set: CC-PVTZ
  Basis Set:
  @DF-RHF Final Energy:  -423.13019164277256
    Total Energy =                       -423.1301916427722745
    Molecular point group: c1
  Basis Set: CC-PVTZ
  Basis Set:
  Basis Set: CC-PVTZ
  Basis Set:
  @DF-RHF Final Energy:  -423.10402602861546
    Total Energy =                       -423.1040260286155217
  Basis Set: CC-PVTZ
  Basis Set:
  Basis Set: CC-PVTZ
  Basis Set:
  @DF-RHF Final Energy:  -423.13107011177254
    Total Energy =                       -423.1310701117727149
  Basis Set: CC-PVTZ
  Basis Set:
  Basis Set: CC-PVTZ
  Basis Set:
  @DF-RHF Final Energy:  -423.13139174415699
    Total Energy =                       -423.1313917441569856
  Basis Set: CC-PVTZ
  Basis Set:
  @DF-RHF Final Energy:  -423.12887233097524
    Total Energy =                       -423.1288723309747866
  Basis Set: CC-PVTZ
  Basis Set:
  @DF-RHF Final Energy:  -423.13187692272226
    Total Energy =                       -423.1318769227226539
  Basis Set: CC-PVTZ
  Basis Set:
  Basis Set: CC-PVTZ
  Basis Set:
  @DF-RHF Final Energy:  -423.13189882591746
    Total Energy =                       -423.1318988259180287
  Basis Set: CC-PVTZ
  Basis Set:
  Basis Set: CC-PVTZ
  Basis Set:
  @DF-RHF Final Energy:  -423.13190753646319
    Total Energy =                       -423.1319075364633591
  Basis Set: CC-PVTZ
  Basis Set:
  Charge       = 0
  Multiplicity = 1
  Basis Set: CC-PVTZ
  Basis Set:

    Orbital Energies (a.u.)
    -----------------------

    Doubly Occupied:

       1A    -20.595801     2A    -20.529427     3A    -11.366318
       4A    -11.279246     5A    -11.230624     6A    -11.222116
       7A    -11.221323     8A    -11.220064     9A    -11.210723
      10A     -1.471039    11A     -1.363879    12A     -1.094956
      13A     -1.041661    14A     -1.002304    15A     -0.931753
      16A     -0.856654    17A     -0.791720    18A     -0.771391
      19A     -0.694242    20A     -0.687884    21A     -0.673195
      22A     -0.641546    23A     -0.614299    24A     -0.601978
      25A     -0.576198    26A     -0.571116    27A     -0.548870
      28A     -0.538824    29A     -0.527170    30A     -0.508352
      31A     -0.498489    32A     -0.470055    33A     -0.467812
      34A     -0.466924    35A     -0.455163    36A     -0.438658

  @DF-RHF Final Energy:  -423.13190783571446

   => Energetics <=

    Nuclear Repulsion Energy =            455.6422683607178783
    One-Electron Energy =               -1479.1848039144074392
    Two-Electron Energy =                 600.4106277179746485
    DFT Exchange-Correlation Energy =       0.0000000000000000
    Empirical Dispersion Energy =           0.0000000000000000
    PCM Polarization Energy =               0.0000000000000000
    EFP Energy =                            0.0000000000000000
    Total Energy =                       -423.1319078357148555
    Molecular point group: c1
  Basis Set: CC-PVTZ
  Basis Set:

  -Total Gradient:
     Atom            X                  Y                   Z
    ------   -----------------  -----------------  -----------------
       1       -0.000035814206     0.000050683838    -0.000011874542
       2        0.000061521439    -0.000059941824     0.000012408150
       3        0.000004457031     0.000014041565     0.000053441628
       4       -0.000023442064     0.000001367698    -0.000068807864
       5        0.000000130595    -0.000010416480    -0.000023734682
       6        0.000002088728     0.000001846098    -0.000002378859
       7       -0.000015642848     0.000000413566    -0.000014179063
       8        0.000000276518     0.000023461722     0.000149043492
       9        0.000005723965    -0.000012042914    -0.000046205888
      10       -0.000010876606    -0.000015913952    -0.000010554743
      11        0.000014892417     0.000002187387    -0.000032511009
      12        0.001578033773     0.003941429726     0.002924976278
      13        0.000011033883    -0.000012766161     0.000006291035
      14       -0.000013093713     0.000013121180    -0.000017059071
      15       -0.000361507418    -0.000235784503    -0.005126056078
      16       -0.001289014950    -0.003304298225    -0.001683244891
      17       -0.000000746393     0.000009050511    -0.000011394789
      18       -0.000000518524     0.000000061426     0.000005623489
      19        0.000067699150    -0.000420759501     0.003908565050
      20       -0.000001054916     0.000006682921    -0.000003301565
      21        0.000004223986    -0.000008992625    -0.000018040260
      22       -0.000008556501     0.000000885835     0.000009141634
      23        0.000010186658     0.000015682708    -0.000000147450

  **** Optimization is complete! (in 9 steps) ****
    Final optimized geometry and variables:
    Molecular point group: c1

    Geometry (in Angstrom), charge = 0, multiplicity = 1:

    O           -2.966652313461     0.827413153297    -0.218242932257
    C           -2.544184946815    -0.265504807565    -0.045942698754
    C           -3.415860950370    -1.477719019715     0.142495841855
    O           -1.257682818345    -0.552064377660     0.002741664239
    H           -4.063246445078    -1.573489030370    -0.718768793735
    H           -2.834089236641    -2.376736903337     0.269117208157
    H           -4.042958864572    -1.318600329563     1.009577577400
    C           -0.335172696515     0.516874724318    -0.160525666553
    C            1.063124948603    -0.056286223222    -0.070140419198
    H           -0.510528758904     0.989989268271    -1.116867146593
    H           -0.511487897107     1.255397003297     0.609690013659
    C            2.126321522223     1.033321216485    -0.211290468664
    H            1.188611671947    -0.801795168722    -0.849742496708
    H            1.163732682879    -0.571775077603     0.877130418996
    C            3.566063369307     0.514776584899    -0.288764121298
    H            1.915569983213     1.581698302222    -1.125185890581
    H            2.034929124417     1.734753394168     0.612973764633
    C            3.953192093205    -0.477867309495     0.806652706716
    H            4.234002459620     1.366260038791    -0.206997304578
    H            3.738673126725     0.063363166210    -1.260665180201
    H            3.762550372700    -0.067026011347     1.793172852612
    H            5.009502422970    -0.713273601739     0.747969779320
    H            3.407413400657    -1.409681961794     0.725005287955

  Mulliken Charges: (a.u.)
   Center  Symbol    Alpha    Beta     Spin     Total
       1     O     4.20240  4.20240  0.00000 -0.40481
       2     C     2.81534  2.81534  0.00000  0.36931
       3     C     3.13990  3.13990  0.00000 -0.27980
       4     O     4.14467  4.14467  0.00000 -0.28934
       5     H     0.44199  0.44199  0.00000  0.11602
       6     H     0.44192  0.44192  0.00000  0.11616
       7     H     0.44225  0.44225  0.00000  0.11550
       8     C     2.97960  2.97960  0.00000  0.04081
       9     C     3.08614  3.08614  0.00000 -0.17229
      10     H     0.45301  0.45301  0.00000  0.09398
      11     H     0.45429  0.45429  0.00000  0.09141
      12     C     3.10508  3.10508  0.00000 -0.21016
      13     H     0.45016  0.45016  0.00000  0.09968
      14     H     0.44823  0.44823  0.00000  0.10355
      15     C     3.08983  3.08983  0.00000 -0.17966
      16     H     0.44892  0.44892  0.00000  0.10216
      17     H     0.44994  0.44994  0.00000  0.10013
      18     C     3.15652  3.15652  0.00000 -0.31305
      19     H     0.44834  0.44834  0.00000  0.10331
      20     H     0.45151  0.45151  0.00000  0.09699
      21     H     0.45355  0.45355  0.00000  0.09291
      22     H     0.44471  0.44471  0.00000  0.11058
      23     H     0.45170  0.45170  0.00000  0.09660

   Total alpha = 36.00000, Total beta = 36.00000, Total charge = -0.00000

*** Psi4 exiting successfully. Buy a developer a beer!
