                              Psi4 1.0.54 Driver

  ==> Input File <==

--------------------------------------------------------------------------
set {
	reference rhf
	basis cc-pvtz
}

set_num_threads( 4 )
memory 2 gb

molecule MOL {
0 1

H	 2.646708	 0.758099	 0.000000
O	 2.258158	 -0.097743	 0.000000
C	 0.911162	 -0.015915	 0.000000
C	 0.224001	 -0.765133	 -0.940896
C	 0.217660	 0.777841	 0.894106
H	 0.778417	 -1.375139	 -1.626472
C	 -1.152572	 -0.713071	 -0.978443
H	 0.750806	 1.359338	 1.624359
C	 -1.164448	 0.820342	 0.844787
H	 -1.679814	 -1.295819	 -1.709758
C	 -1.858646	 0.078530	 -0.087809
H	 -1.695239	 1.439428	 1.542870
H	 -2.929812	 0.113893	 -0.123150

	symmetry c1
}
set optking {
	frozen_dihedral = ("
		4 3 2 1
	")
}

ee,wfn = optimize('scf', return_wfn=True)
oeprop( wfn, 'DIPOLE', 'QUADRUPOLE', 'MULLIKEN_CHARGES')
f=open( 'psi4out.xyz', 'w' )
f.write( "13  " )
f.write( str(ee) + "\n" )
f.write( MOL.save_string_xyz() )
f.close()
--------------------------------------------------------------------------

    Molecular point group: c1
  Charge       = 0
  Multiplicity = 1
  Basis Set: CC-PVTZ
  Basis Set:
  @DF-RHF Final Energy:  -305.66762867466531
    Total Energy =                       -305.6676286746654227
    Molecular point group: c1
  Basis Set: CC-PVTZ
  Basis Set:
  Basis Set: CC-PVTZ
  Basis Set:
  @DF-RHF Final Energy:  -305.66783252915127
    Total Energy =                       -305.6678325291512124
  Basis Set: CC-PVTZ
  Basis Set:
  Basis Set: CC-PVTZ
  Basis Set:
  @DF-RHF Final Energy:  -305.66785852224939
    Total Energy =                       -305.6678585222495030
  Basis Set: CC-PVTZ
  Basis Set:
  Charge       = 0
  Multiplicity = 1
  Basis Set: CC-PVTZ
  Basis Set:

    Orbital Energies (a.u.)
    -----------------------

    Doubly Occupied:

       1A    -20.576341     2A    -11.292303     3A    -11.234435
       4A    -11.233188     5A    -11.226319     6A    -11.223310
       7A    -11.222829     8A     -1.404703     9A     -1.153135
      10A     -1.022569    11A     -1.008386    12A     -0.844420
      13A     -0.827552    14A     -0.739717    15A     -0.686109
      16A     -0.652603    17A     -0.626281    18A     -0.598408
      19A     -0.591958    20A     -0.538851    21A     -0.517404
      22A     -0.496877    23A     -0.477744    24A     -0.342441
      25A     -0.323228

  @DF-RHF Final Energy:  -305.66786125808676

   => Energetics <=

    Nuclear Repulsion Energy =            273.5247027723762585
    One-Electron Energy =                -956.6629016590106858
    Two-Electron Energy =                 377.4703376285473837
    DFT Exchange-Correlation Energy =       0.0000000000000000
    Empirical Dispersion Energy =           0.0000000000000000
    PCM Polarization Energy =               0.0000000000000000
    EFP Energy =                            0.0000000000000000
    Total Energy =                       -305.6678612580870436
    Molecular point group: c1
  Basis Set: CC-PVTZ
  Basis Set:

  -Total Gradient:
     Atom            X                  Y                   Z
    ------   -----------------  -----------------  -----------------
       1       -0.000057825787    -0.000006544785    -0.002511640855
       2        0.000183169596     0.000564171817     0.002529286492
       3       -0.000400973737    -0.001802368072     0.001206108308
       4       -0.000060015048     0.001385066879    -0.001203516680
       5        0.000246381956    -0.000176351085    -0.000028796751
       6        0.000040934538    -0.000016698469    -0.000035823237
       7        0.000276963448    -0.000201247423    -0.000059396347
       8       -0.000011096932     0.000004118408    -0.000010660098
       9       -0.000326785683    -0.000048596140    -0.000125071087
      10        0.000024563843     0.000031782506     0.000018386835
      11        0.000083943203     0.000277675104     0.000225524538
      12        0.000019322292     0.000005012501    -0.000005403488
      13       -0.000018581687    -0.000016021242     0.000001002372

  **** Optimization is complete! (in 4 steps) ****
    Final optimized geometry and variables:
    Molecular point group: c1

    Geometry (in Angstrom), charge = 0, multiplicity = 1:

    H            2.648164971415     0.745026863394     0.053878525491
    O            2.264813953884    -0.113673510493     0.053471410641
    C            0.906576130645    -0.032249370937     0.028293620054
    C            0.220156036108    -0.779695643163    -0.909551458227
    C            0.216832128294     0.762030391954     0.925046328583
    H            0.774145527987    -1.386421305862    -1.598626456421
    C           -1.159817455128    -0.738327842404    -0.938650667531
    H            0.758410663723     1.330279985951     1.657866034978
    C           -1.163980185559     0.807983956249     0.878210160238
    H           -1.689904498765    -1.323687714003    -1.665612744454
    C           -1.859219345077     0.057584808128    -0.049835306604
    H           -1.695223216346     1.427590991004     1.575385601173
    H           -2.930957687334     0.090581277108    -0.079867880483

  Mulliken Charges: (a.u.)
   Center  Symbol    Alpha    Beta     Spin     Total
       1     H     0.38566  0.38566  0.00000  0.22869
       2     O     4.18671  4.18671  0.00000 -0.37341
       3     C     2.86644  2.86644  0.00000  0.26711
       4     C     3.10838  3.10838  0.00000 -0.21675
       5     C     3.12223  3.12223  0.00000 -0.24446
       6     H     0.41684  0.41684  0.00000  0.16633
       7     C     3.06340  3.06340  0.00000 -0.12681
       8     H     0.42402  0.42402  0.00000  0.15196
       9     C     3.06768  3.06768  0.00000 -0.13537
      10     H     0.42192  0.42192  0.00000  0.15616
      11     C     3.09123  3.09123  0.00000 -0.18246
      12     H     0.42208  0.42208  0.00000  0.15584
      13     H     0.42342  0.42342  0.00000  0.15316

   Total alpha = 25.00000, Total beta = 25.00000, Total charge = -0.00000

*** Psi4 exiting successfully. Buy a developer a beer!
