  ==> Input File <==

--------------------------------------------------------------------------
set {
	reference rhf
	basis 6-31G*
}

set_num_threads( 4 )
memory 2 gb

molecule MOL {
0 1

O	 1.319589	 0.666084	 0.982544
C	 1.705091	 0.115954	 0.001797
C	 1.130240	 0.284685	 -1.383462
O	 2.721346	 -0.737485	 -0.000216
C	 -0.042335	 1.259191	 -1.438687
H	 1.939491	 0.605094	 -2.033974
H	 0.839992	 -0.701028	 -1.736797
C	 -0.604213	 1.411633	 -2.852942
H	 0.278017	 2.225753	 -1.062760
H	 -0.823056	 0.917789	 -0.766209
C	 -1.780738	 2.386407	 -2.926855
H	 0.184321	 1.750752	 -3.523172
H	 -0.921499	 0.438683	 -3.225205
C	 -2.342502	 2.537377	 -4.339965
H	 -1.464705	 3.359547	 -2.557716
H	 -2.569611	 2.048531	 -2.258531
H	 -1.585475	 2.907337	 -5.025716
H	 -3.174798	 3.234047	 -4.359606
H	 -2.698767	 1.585728	 -4.724346
C	 4.024888	 -0.184556	 -0.001949
H	 4.179030	 0.422472	 -0.882452
H	 4.701782	 -1.024608	 -0.003642
H	 4.181981	 0.421185	 0.878906

	symmetry c1
}
set optking {
	frozen_dihedral = ("
		1 2 4 20
	")
}

ee = optimize('scf')
oeprop('DIPOLE', 'QUADRUPOLE', 'MULLIKEN_CHARGES')
f=open( 'psi4out.xyz', 'w' )
f.write( "23  " )
f.write( str(ee) + "\n" )
f.write( MOL.save_string_xyz() )
f.close()
--------------------------------------------------------------------------

    Molecular point group: c1
  Charge       = 0
  Multiplicity = 1
  Basis Set: 6-31G*
  Basis Set:
  @DF-RHF Final Energy:  -422.95628204148267
    Total Energy =                       -422.9562820414830639
    Molecular point group: c1
  Basis Set: 6-31G*
  Basis Set:
  Basis Set: 6-31G*
  Basis Set:
  @DF-RHF Final Energy:  -422.95439180197161
    Total Energy =                       -422.9543918019716102
  Basis Set: 6-31G*
  Basis Set:
  Basis Set: 6-31G*
  Basis Set:
  @DF-RHF Final Energy:  -422.95731238582897
    Total Energy =                       -422.9573123858286863
  Basis Set: 6-31G*
  Basis Set:
  Basis Set: 6-31G*
  Basis Set:
  @DF-RHF Final Energy:  -422.95758581323292
    Total Energy =                       -422.9575858132318444
  Basis Set: 6-31G*
  Basis Set:
  Basis Set: 6-31G*
  Basis Set:
  @DF-RHF Final Energy:  -422.95759342494563
    Total Energy =                       -422.9575934249450029
  Basis Set: 6-31G*
  Basis Set:
  Charge       = 0
  Multiplicity = 1
  Basis Set: 6-31G*
  Basis Set:

    Orbital Energies (a.u.)
    -----------------------

    Doubly Occupied:

       1A    -20.585573     2A    -20.557117     3A    -11.374963
       4A    -11.290564     5A    -11.239086     6A    -11.221727
       7A    -11.220015     8A    -11.218108     9A    -11.211009
      10A     -1.459205    11A     -1.366810    12A     -1.094677
      13A     -1.042124    14A     -0.981372    15A     -0.940749
      16A     -0.849563    17A     -0.797089    18A     -0.765097
      19A     -0.695777    20A     -0.678530    21A     -0.673634
      22A     -0.649146    23A     -0.616468    24A     -0.607516
      25A     -0.578856    26A     -0.568204    27A     -0.555188
      28A     -0.534714    29A     -0.510106    30A     -0.498786
      31A     -0.487215    32A     -0.477617    33A     -0.470458
      34A     -0.467461    35A     -0.449682    36A     -0.431673

  @DF-RHF Final Energy:  -422.95759430910169

   => Energetics <=

    Nuclear Repulsion Energy =            452.2464121560505532
    One-Electron Energy =               -1472.0762562422094106
    Two-Electron Energy =                 596.8722497770577320
    DFT Exchange-Correlation Energy =       0.0000000000000000
    Empirical Dispersion Energy =           0.0000000000000000
    PCM Polarization Energy =               0.0000000000000000
    EFP Energy =                            0.0000000000000000
    Total Energy =                       -422.9575943091010686
    Molecular point group: c1
  Basis Set: 6-31G*
  Basis Set:

  -Total Gradient:
     Atom            X                  Y                   Z
    ------   -----------------  -----------------  -----------------
       1       -0.003343697909    -0.003805429516     0.000575682974
       2        0.005037107984     0.005531588862    -0.002774532170
       3       -0.000001829340     0.000001708806     0.000050487575
       4       -0.001900546513    -0.001889350763     0.006232930398
       5       -0.000004554754     0.000024263849    -0.000017783415
       6        0.000013581852     0.000004884865    -0.000000300303
       7        0.000008834204     0.000011648393     0.000006930898
       8       -0.000019445531     0.000001985262    -0.000006638267
       9       -0.000003050571    -0.000002421116     0.000002539378
      10        0.000003273196    -0.000006045285    -0.000006766497
      11       -0.000011214161    -0.000001654844    -0.000000466080
      12        0.000000832466    -0.000006285017    -0.000003285541
      13       -0.000007479969    -0.000004258925     0.000007583949
      14        0.000018582304     0.000006495431    -0.000000132036
      15       -0.000001807468     0.000000411979     0.000007316575
      16       -0.000003071162    -0.000006855026    -0.000003351604
      17        0.000001255336    -0.000001164449    -0.000007012890
      18        0.000006846958     0.000002092760     0.000005421533
      19       -0.000002729469    -0.000000571358     0.000003641071
      20        0.000189607399     0.000147133984    -0.004081649788
      21        0.000016948975    -0.000000773688    -0.000002420690
      22        0.000000351627     0.000005836547     0.000006328727
      23        0.000002204543    -0.000013240750     0.000005476201

  **** Optimization is complete! (in 6 steps) ****
    Final optimized geometry and variables:
    Molecular point group: c1

    Geometry (in Angstrom), charge = 0, multiplicity = 1:

    O            0.610970129745    -0.210802900890     2.274066134195
    C            1.015425934925    -0.718405487463     1.286218642048
    C            0.419701398154    -0.542484872297    -0.088358368696
    O            2.036520071925    -1.606407188082     1.304425238854
    C           -0.756475910016     0.427492553985    -0.135044409888
    H            1.218374934968    -0.225109745851    -0.755729802267
    H            0.130932921511    -1.532069338690    -0.433624381296
    C           -1.338211774168     0.571042949865    -1.542189717717
    H           -0.435490298478     1.397761112294     0.231991338373
    H           -1.525975666824     0.085641280965     0.549815793878
    C           -2.519469119030     1.540832594919    -1.604655976780
    H           -0.560416187614     0.909994534273    -2.225086857815
    H           -1.656662573922    -0.405043637711    -1.904994201319
    C           -3.098535042575     1.685568515483    -3.011403858036
    H           -2.203097181763     2.516286305705    -1.241951901471
    H           -3.298812131903     1.201493728835    -0.926117888810
    H           -2.351068470533     2.055939365996    -3.707437969016
    H           -3.933258023244     2.379399016860    -3.023081687558
    H           -3.456302473632     0.731627249492    -3.388520312667
    C            3.339702400949    -1.068679357874     1.384908950004
    H            3.567719293825    -0.473337763898     0.506566420579
    H            4.016909814449    -1.907227751182     1.430392080187
    H            3.450176167402    -0.462720459024     2.275106826373

  Mulliken Charges: (a.u.)
   Center  Symbol    Alpha    Beta     Spin     Total
       1     O     4.25484  4.25484  0.00000 -0.50969
       2     C     2.61202  2.61202  0.00000  0.77597
       3     C     3.21214  3.21214  0.00000 -0.42429
       4     O     4.31642  4.31642  0.00000 -0.63284
       5     C     3.15308  3.15308  0.00000 -0.30616
       6     H     0.40756  0.40756  0.00000  0.18487
       7     H     0.39761  0.39761  0.00000  0.20478
       8     C     3.15320  3.15320  0.00000 -0.30640
       9     H     0.41326  0.41326  0.00000  0.17347
      10     H     0.40977  0.40977  0.00000  0.18047
      11     C     3.15166  3.15166  0.00000 -0.30333
      12     H     0.42474  0.42474  0.00000  0.15052
      13     H     0.42328  0.42328  0.00000  0.15345
      14     C     3.23965  3.23965  0.00000 -0.47929
      15     H     0.42151  0.42151  0.00000  0.15699
      16     H     0.42073  0.42073  0.00000  0.15854
      17     H     0.42201  0.42201  0.00000  0.15597
      18     H     0.41816  0.41816  0.00000  0.16367
      19     H     0.42151  0.42151  0.00000  0.15697
      20     C     3.09332  3.09332  0.00000 -0.18663
      21     H     0.42267  0.42267  0.00000  0.15467
      22     H     0.40326  0.40326  0.00000  0.19348
      23     H     0.40760  0.40760  0.00000  0.18480

   Total alpha = 36.00000, Total beta = 36.00000, Total charge =  0.00000
