  ==> Input File <==

--------------------------------------------------------------------------
set {
	reference rhf
	basis cc-pvtz
}

set_num_threads( 4 )
memory 2 gb

molecule MOL {
0 1

H	 -2.644180	 -0.653737	 1.272255
C	 -2.092774	 -0.380414	 0.391915
O	 -0.808934	 -0.154049	 0.752536
F	 -2.163230	 -1.351640	 -0.507133
F	 -2.627232	 0.691260	 -0.169301
C	 0.085006	 0.250800	 -0.215074
C	 1.370439	 -0.548013	 -0.012993
Cl	 0.421658	 1.987697	 -0.091007
H	 -0.272219	 0.063284	 -1.212508
F	 2.108113	 -0.510024	 -1.093464
F	 1.061847	 -1.801386	 0.221833
F	 2.075636	 -0.105092	 0.991382

	symmetry c1
}
set optking {
	frozen_dihedral = ("
		10 7 6 9
	")
}

ee = optimize('scf')
oeprop('DIPOLE', 'QUADRUPOLE', 'MULLIKEN_CHARGES')
f=open( 'psi4out.xyz', 'w' )
f.write( "12  " )
f.write( str(ee) + "\n" )
f.write( MOL.save_string_xyz() )
f.close()
--------------------------------------------------------------------------

    Molecular point group: c1
  Charge       = 0
  Multiplicity = 1
  Basis Set: CC-PVTZ
  Basis Set:
  @DF-RHF Final Energy: -1146.61822592329872
    Total Energy =                      -1146.6182259232991782
    Molecular point group: c1
  Basis Set: CC-PVTZ
  Basis Set:
  Basis Set: CC-PVTZ
  Basis Set:
  @DF-RHF Final Energy: -1146.61852845609701
    Total Energy =                      -1146.6185284560970103
  Basis Set: CC-PVTZ
  Basis Set:
  Basis Set: CC-PVTZ
  Basis Set:
  @DF-RHF Final Energy: -1146.61875528277051
    Total Energy =                      -1146.6187552827700529
  Basis Set: CC-PVTZ
  Basis Set:
  Basis Set: CC-PVTZ
  Basis Set:
  @DF-RHF Final Energy: -1146.61876857521065
    Total Energy =                      -1146.6187685752115613
  Basis Set: CC-PVTZ
  Basis Set:
  @DF-RHF Final Energy: -1146.61877137278952
    Total Energy =                      -1146.6187713727888422
  @DF-RHF Final Energy: -1146.61877254624278
    Total Energy =                      -1146.6187725462427807
  Basis Set: CC-PVTZ
  Basis Set:
  @DF-RHF Final Energy: -1146.61875686938879
    Total Energy =                      -1146.6187568693883350
  Basis Set: CC-PVTZ
  Basis Set:
  Basis Set: CC-PVTZ
  Basis Set:
  @DF-RHF Final Energy: -1146.61876685729658
    Total Energy =                      -1146.6187668572970324
  Basis Set: CC-PVTZ
  Basis Set:
  Basis Set: CC-PVTZ
  Basis Set:
  @DF-RHF Final Energy: -1146.61877284506090
    Total Energy =                      -1146.6187728450613577
  Basis Set: CC-PVTZ
  Basis Set:
  Charge       = 0
  Multiplicity = 1
  Basis Set: CC-PVTZ
  Basis Set:

    Orbital Energies (a.u.)
    -----------------------

    Doubly Occupied:

       1A   -104.855197     2A    -26.354994     3A    -26.354899
       4A    -26.352109     5A    -26.343946     6A    -26.343925
       7A    -20.642143     8A    -11.520802     9A    -11.484882
      10A    -11.401651    11A    -10.580742    12A     -8.047523
      13A     -8.045561    14A     -8.045469    15A     -1.768123
      16A     -1.725606    17A     -1.664239    18A     -1.659890
      19A     -1.645586    20A     -1.488950    21A     -1.177035
      22A     -1.051600    23A     -0.992147    24A     -0.925073
      25A     -0.864991    26A     -0.859495    27A     -0.851615
      28A     -0.830792    29A     -0.819642    30A     -0.794507
      31A     -0.734651    32A     -0.733970    33A     -0.712841
      34A     -0.708415    35A     -0.685059    36A     -0.681469
      37A     -0.665608    38A     -0.663982    39A     -0.650755
      40A     -0.637558    41A     -0.599430    42A     -0.581701
      43A     -0.524109    44A     -0.477914    45A     -0.468683

  @DF-RHF Final Energy: -1146.61877339923399

   => Energetics <=

    Nuclear Repulsion Energy =            737.5788501298607116
    One-Electron Energy =               -3058.3566895620469950
    Two-Electron Energy =                1174.1590660329520688
    DFT Exchange-Correlation Energy =       0.0000000000000000
    Empirical Dispersion Energy =           0.0000000000000000
    PCM Polarization Energy =               0.0000000000000000
    EFP Energy =                            0.0000000000000000
    Total Energy =                      -1146.6187733992342146
    Molecular point group: c1
  Basis Set: CC-PVTZ
  Basis Set:

  -Total Gradient:
     Atom            X                  Y                   Z
    ------   -----------------  -----------------  -----------------
       1       -0.000010512642    -0.000009829640    -0.000014300572
       2        0.000096068057     0.000046383275    -0.000120572607
       3        0.000027648458     0.000017883986     0.000098504754
       4       -0.000058095798    -0.000054872657     0.000022075544
       5       -0.000039544764     0.000023257092     0.000030477365
       6       -0.004061890659    -0.006200101780     0.001558520881
       7        0.003196491009     0.005545447045     0.001674323418
       8       -0.000021537392    -0.000008932852     0.000003620549
       9        0.002867192499     0.004229369330    -0.001662903026
      10       -0.002010074743    -0.003649746900    -0.001595641307
      11        0.000005583650     0.000049508215    -0.000023446172
      12        0.000008672321     0.000011634972     0.000029341171

  **** Optimization is complete! (in 10 steps) ****
    Final optimized geometry and variables:
    Molecular point group: c1

    Geometry (in Angstrom), charge = 0, multiplicity = 1:

    H           -2.661746107613    -0.616390168628     1.281930934291
    C           -2.099892795426    -0.371930939790     0.399731757772
    O           -0.823744050767    -0.117649878929     0.770024696884
    F           -2.146738782696    -1.377701003896    -0.461626869598
    F           -2.635745542356     0.671975605012    -0.210443189988
    C            0.076901384401     0.253829213503    -0.199251432454
    C            1.369576083584    -0.544616902184    -0.005970776177
    CL           0.432519390929     1.994303613773    -0.106621001884
    H           -0.266379576128     0.086498252169    -1.204487958849
    F            2.100641126730    -0.460637298361    -1.091281118598
    F            1.072701490419    -1.810527348499     0.169260218819
    F            2.074603519774    -0.148111930759     1.015082892048

  Mulliken Charges: (a.u.)
   Center  Symbol    Alpha    Beta     Spin     Total
       1     H     0.45185  0.45185  0.00000  0.09629
       2     C     2.73915  2.73915  0.00000  0.52170
       3     O     4.15491  4.15491  0.00000 -0.30982
       4     F     4.61753  4.61753  0.00000 -0.23506
       5     F     4.61508  4.61508  0.00000 -0.23016
       6     C     2.93964  2.93964  0.00000  0.12072
       7     C     2.66778  2.66778  0.00000  0.66445
       8    CL     8.57587  8.57587  0.00000 -0.15174
       9     H     0.43122  0.43122  0.00000  0.13756
      10     F     4.60497  4.60497  0.00000 -0.20994
      11     F     4.60384  4.60384  0.00000 -0.20769
      12     F     4.59814  4.59814  0.00000 -0.19628

   Total alpha = 45.00000, Total beta = 45.00000, Total charge =  0.00000
