                              Psi4 1.0.54 Driver

  ==> Input File <==

--------------------------------------------------------------------------
set {
	reference rhf
	basis cc-pvtz
}

set_num_threads( 4 )
memory 2 gb

molecule MOL {
0 1

O	 0.719669	 -0.042708	 -0.636817
C	 1.704209	 0.119472	 -0.000093
C	 1.979498	 1.294638	 0.902592
O	 2.715427	 -0.733672	 0.000025
C	 0.849969	 2.313816	 0.944591
H	 2.188003	 0.898030	 1.890862
H	 2.905790	 1.748132	 0.565295
C	 1.162094	 3.488643	 1.866750
H	 -0.061480	 1.823916	 1.267907
H	 0.656967	 2.674817	 -0.059261
C	 0.040651	 4.522003	 1.921558
H	 1.357105	 3.119548	 2.871235
H	 2.078937	 3.973570	 1.538906
C	 0.352338	 5.695955	 2.843567
H	 -0.875355	 4.038953	 2.249815
H	 -0.153865	 4.892536	 0.919047
H	 0.518018	 5.360846	 3.862137
H	 -0.463209	 6.409652	 2.859453
H	 1.244989	 6.221424	 2.520624
C	 4.020999	 -0.192556	 0.000019
H	 4.182809	 0.412891	 -0.879449
H	 4.692590	 -1.035653	 0.000152
H	 4.182726	 0.413087	 0.879368

	symmetry c1
}
set optking {
	frozen_dihedral = ("
		1 2 4 20
	")
}

ee,wfn = optimize('scf', return_wfn=True)
oeprop( wfn, 'DIPOLE', 'QUADRUPOLE', 'MULLIKEN_CHARGES')
f=open( 'psi4out.xyz', 'w' )
f.write( "23  " )
f.write( str(ee) + "\n" )
f.write( MOL.save_string_xyz() )
f.close()
--------------------------------------------------------------------------

    Molecular point group: c1
  Charge       = 0
  Multiplicity = 1
  Basis Set: CC-PVTZ
  Basis Set:
  @DF-RHF Final Energy:  -423.10657627545692
    Total Energy =                       -423.1065762754569732
    Molecular point group: c1
  Basis Set: CC-PVTZ
  Basis Set:
  Basis Set: CC-PVTZ
  Basis Set:
  @DF-RHF Final Energy:  -422.97867680997030
    Total Energy =                       -422.9786768099702385
  Basis Set: CC-PVTZ
  Basis Set:
  Basis Set: CC-PVTZ
  Basis Set:
  @DF-RHF Final Energy:  -423.08034093773654
    Total Energy =                       -423.0803409377369917
  Basis Set: CC-PVTZ
  Basis Set:
  Basis Set: CC-PVTZ
  Basis Set:
  @DF-RHF Final Energy:  -423.11141625235740
    Total Energy =                       -423.1114162523573441
  Basis Set: CC-PVTZ
  Basis Set:
  @DF-RHF Final Energy:  -423.11171147364831
    Total Energy =                       -423.1117114736480289
  @DF-RHF Final Energy:  -423.11381265323826
    Total Energy =                       -423.1138126532383694
  Basis Set: CC-PVTZ
  Basis Set:
  @DF-RHF Final Energy:  -423.11402058027841
    Total Energy =                       -423.1140205802785204
  Basis Set: CC-PVTZ
  Basis Set:
  Basis Set: CC-PVTZ
  Basis Set:
  @DF-RHF Final Energy:  -423.11403271579957
    Total Energy =                       -423.1140327158001355
  Basis Set: CC-PVTZ
  Basis Set:
  Basis Set: CC-PVTZ
  Basis Set:
  @DF-RHF Final Energy:  -423.11403373387986
    Total Energy =                       -423.1140337338796371
  Basis Set: CC-PVTZ
  Basis Set:
  Charge       = 0
  Multiplicity = 1
  Basis Set: CC-PVTZ
  Basis Set:

    Orbital Energies (a.u.)
    -----------------------

    Doubly Occupied:

       1A    -20.587859     2A    -20.535024     3A    -11.366543
       4A    -11.292487     5A    -11.241870     6A    -11.221266
       7A    -11.219582     8A    -11.217218     9A    -11.210152
      10A     -1.463492    11A     -1.369170    12A     -1.097364
      13A     -1.042639    14A     -0.984087    15A     -0.951826
      16A     -0.854345    17A     -0.799447    18A     -0.766938
      19A     -0.700560    20A     -0.687432    21A     -0.676121
      22A     -0.655426    23A     -0.616755    24A     -0.606860
      25A     -0.581084    26A     -0.569983    27A     -0.559781
      28A     -0.540326    29A     -0.513375    30A     -0.507858
      31A     -0.489029    32A     -0.475013    33A     -0.470417
      34A     -0.468747    35A     -0.452261    36A     -0.433474

  @DF-RHF Final Energy:  -423.11403381340097

   => Energetics <=

    Nuclear Repulsion Energy =            455.1001624992569532
    One-Electron Energy =               -1477.9767655101122728
    Two-Electron Energy =                 599.7625691974540132
    DFT Exchange-Correlation Energy =       0.0000000000000000
    Empirical Dispersion Energy =           0.0000000000000000
    PCM Polarization Energy =               0.0000000000000000
    EFP Energy =                            0.0000000000000000
    Total Energy =                       -423.1140338134013064
    Molecular point group: c1
  Basis Set: CC-PVTZ
  Basis Set:

  -Total Gradient:
     Atom            X                  Y                   Z
    ------   -----------------  -----------------  -----------------
       1        0.002009417649     0.002511463526    -0.002158462979
       2       -0.002766016286    -0.003067903319     0.001384805935
       3        0.000004103101     0.000032951544    -0.000000464304
       4        0.000444677846    -0.000484387211     0.003901498439
       5        0.000002904183    -0.000007463725     0.000006224323
       6       -0.000008613990    -0.000004351388    -0.000000930892
       7       -0.000013015378    -0.000006474475     0.000017823881
       8        0.000005910272     0.000000179430    -0.000007736859
       9        0.000002693583     0.000009420294    -0.000000763309
      10       -0.000005852718     0.000003056758     0.000005236055
      11       -0.000010113004    -0.000004241880     0.000012063479
      12       -0.000002080172     0.000000840957    -0.000008982680
      13        0.000002535360    -0.000005070044     0.000002943390
      14        0.000002135446     0.000004830963    -0.000006598446
      15       -0.000000719861     0.000003959723    -0.000000730817
      16       -0.000000227375    -0.000000305937     0.000011388516
      17       -0.000002322096     0.000000150528    -0.000012916838
      18       -0.000003843871     0.000005325738     0.000002552223
      19        0.000000760751    -0.000000077189     0.000002084920
      20        0.000312264484     0.001002972203    -0.003140338032
      21        0.000006592890    -0.000011881434     0.000011867739
      22        0.000016581672     0.000022489953     0.000014297695
      23        0.000002227520    -0.000005485017    -0.000034861451

  **** Optimization is complete! (in 10 steps) ****
    Final optimized geometry and variables:
    Molecular point group: c1

    Geometry (in Angstrom), charge = 0, multiplicity = 1:

    O           -0.625421156077    -1.130528768313    -2.067532620634
    C            0.290762915718    -1.254231148478    -1.338659542371
    C            0.499003168165    -0.414176215652    -0.098054379830
    O            1.204608767377    -2.202619117682    -1.579611879523
    C           -0.685100269299     0.487383941043     0.225310382907
    H            0.712063861122    -1.086539632102     0.727144259096
    H            1.395285473321     0.182513687274    -0.238129341081
    C           -0.451371492405     1.324996433278     1.479071089483
    H           -1.572835668922    -0.122150287748     0.349143882104
    H           -0.880574274205     1.134280839956    -0.621262357544
    C           -1.629684343051     2.232644104339     1.820254371812
    H           -0.250542889219     0.668714887697     2.323077689110
    H            0.441237669843     1.933214727580     1.348544952126
    C           -1.396614075860     3.071467593943     3.072167376292
    H           -2.521268679859     1.626513292761     1.952953757862
    H           -1.831067580922     2.888958187353     0.978460129902
    H           -1.226372716487     2.442060356931     3.939395059448
    H           -2.251061393980     3.703123926670     3.285508027268
    H           -0.530640503216     3.715006142248     2.957117670939
    C            2.575969614192    -1.957925753748    -1.386500143338
    H            2.895289455751    -1.078737418817    -1.932473196596
    H            3.092231167466    -2.818912339991    -1.778546000659
    H            2.826281420494    -1.845295366020    -0.339584237638

  Mulliken Charges: (a.u.)
   Center  Symbol    Alpha    Beta     Spin     Total
       1     O     4.17324  4.17324  0.00000 -0.34648
       2     C     2.80015  2.80015  0.00000  0.39970
       3     C     3.13527  3.13527  0.00000 -0.27053
       4     O     4.14080  4.14080  0.00000 -0.28161
       5     C     3.08364  3.08364  0.00000 -0.16728
       6     H     0.43729  0.43729  0.00000  0.12541
       7     H     0.44296  0.44296  0.00000  0.11407
       8     C     3.08778  3.08778  0.00000 -0.17555
       9     H     0.44472  0.44472  0.00000  0.11057
      10     H     0.44291  0.44291  0.00000  0.11418
      11     C     3.08513  3.08513  0.00000 -0.17026
      12     H     0.45599  0.45599  0.00000  0.08802
      13     H     0.45657  0.45657  0.00000  0.08685
      14     C     3.15021  3.15021  0.00000 -0.30042
      15     H     0.45248  0.45248  0.00000  0.09505
      16     H     0.45258  0.45258  0.00000  0.09483
      17     H     0.45532  0.45532  0.00000  0.08937
      18     H     0.44718  0.44718  0.00000  0.10563
      19     H     0.45549  0.45549  0.00000  0.08901
      20     C     3.04694  3.04694  0.00000 -0.09388
      21     H     0.45795  0.45795  0.00000  0.08409
      22     H     0.43459  0.43459  0.00000  0.13082
      23     H     0.46080  0.46080  0.00000  0.07840

   Total alpha = 36.00000, Total beta = 36.00000, Total charge = -0.00000

*** Psi4 exiting successfully. Buy a developer a beer!
