  ==> Input File <==

--------------------------------------------------------------------------
set {
	reference rhf
	basis 6-31G*
}

set_num_threads( 4 )
memory 2 gb

molecule MOL {
0 1

O	 0.391030	 1.298905	 0.000133
C	 0.503002	 0.111612	 0.000005
C	 -0.702327	 -0.811998	 -0.000075
C	 1.863306	 -0.554493	 0.000030
C	 -0.805002	 -1.681742	 -1.247133
H	 -0.652293	 -1.426351	 0.897053
H	 -1.593400	 -0.198136	 0.117940
H	 0.069442	 -2.311973	 -1.353788
H	 -1.681650	 -2.318724	 -1.192363
H	 -0.880010	 -1.072870	 -2.139808
H	 1.974395	 -1.189404	 -0.874166
H	 2.638695	 0.198920	 -0.000196
H	 1.974487	 -1.188655	 0.874727

	symmetry c1
}
set optking {
	frozen_dihedral = ("
		6 3 2 1
	")
}

ee = optimize('scf')
oeprop('DIPOLE', 'QUADRUPOLE', 'MULLIKEN_CHARGES')
f=open( 'psi4out.xyz', 'w' )
f.write( "13  " )
f.write( str(ee) + "\n" )
f.write( MOL.save_string_xyz() )
f.close()
--------------------------------------------------------------------------

    Molecular point group: c1
  Charge       = 0
  Multiplicity = 1
  Basis Set: 6-31G*
  Basis Set:
  @DF-RHF Final Energy:  -230.99430866621330
    Total Energy =                       -230.9943086662131009
    Molecular point group: c1
  Basis Set: 6-31G*
  Basis Set:
  Basis Set: 6-31G*
  Basis Set:
  @DF-RHF Final Energy:  -230.99355416107795
    Total Energy =                       -230.9935541610778955
  Basis Set: 6-31G*
  Basis Set:
  Basis Set: 6-31G*
  Basis Set:
  @DF-RHF Final Energy:  -230.99431042890816
    Total Energy =                       -230.9943104289081361
  Basis Set: 6-31G*
  Basis Set:
  Basis Set: 6-31G*
  Basis Set:
  @DF-RHF Final Energy:  -230.99496482446577
    Total Energy =                       -230.9949648244656828
  Basis Set: 6-31G*
  Basis Set:
  @DF-RHF Final Energy:  -230.99500128162049
    Total Energy =                       -230.9950012816204890
  @DF-RHF Final Energy:  -230.99502463561902
    Total Energy =                       -230.9950246356190178
  Basis Set: 6-31G*
  Basis Set:
  @DF-RHF Final Energy:  -230.99504396662115
    Total Energy =                       -230.9950439666213242
  Basis Set: 6-31G*
  Basis Set:
  Basis Set: 6-31G*
  Basis Set:
  @DF-RHF Final Energy:  -230.99505596706894
    Total Energy =                       -230.9950559670688790
  Basis Set: 6-31G*
  Basis Set:
  Basis Set: 6-31G*
  Basis Set:
  @DF-RHF Final Energy:  -230.99506178291358
    Total Energy =                       -230.9950617829134103
  Basis Set: 6-31G*
  Basis Set:
  Charge       = 0
  Multiplicity = 1
  Basis Set: 6-31G*
  Basis Set:

    Orbital Energies (a.u.)
    -----------------------

    Doubly Occupied:

       1A    -20.549328     2A    -11.325549     3A    -11.233454
       4A    -11.230738     5A    -11.228501     6A     -1.394558
       7A     -1.067877     8A     -0.994351     9A     -0.888120
      10A     -0.733527    11A     -0.653391    12A     -0.647369
      13A     -0.613248    14A     -0.592216    15A     -0.561511
      16A     -0.542430    17A     -0.529196    18A     -0.503740
      19A     -0.482759    20A     -0.400010

  @DF-RHF Final Energy:  -230.99506232246799

   => Energetics <=

    Nuclear Repulsion Energy =            176.8724344077101307
    One-Electron Energy =                -663.3912457552024762
    Two-Electron Energy =                 255.5237490250243297
    DFT Exchange-Correlation Energy =       0.0000000000000000
    Empirical Dispersion Energy =           0.0000000000000000
    PCM Polarization Energy =               0.0000000000000000
    EFP Energy =                            0.0000000000000000
    Total Energy =                       -230.9950623224680442
    Molecular point group: c1
  Basis Set: 6-31G*
  Basis Set:

  -Total Gradient:
     Atom            X                  Y                   Z
    ------   -----------------  -----------------  -----------------
       1       -0.000001032137    -0.000004126359    -0.000106861255
       2        0.000024991846    -0.000003572122     0.000140455254
       3       -0.000064007521     0.000080620453     0.000018781194
       4       -0.000000346612     0.000011940223     0.000028122358
       5       -0.000002543818    -0.000001871719    -0.000003090788
       6        0.000050708265    -0.000072962549    -0.000050393005
       7        0.000002015027    -0.000001391712    -0.000002262493
       8        0.000000470576     0.000003022941     0.000002949047
       9       -0.000001744713     0.000000020779     0.000000700155
      10       -0.000000648705    -0.000002295309    -0.000002991866
      11       -0.000004202466    -0.000002771563    -0.000008954171
      12       -0.000001228989    -0.000002079030    -0.000007525295
      13       -0.000002430755    -0.000004534035    -0.000008929135

  **** Optimization is complete! (in 10 steps) ****
    Final optimized geometry and variables:
    Molecular point group: c1

    Geometry (in Angstrom), charge = 0, multiplicity = 1:

    O            0.137746111663     1.634818862605     0.227601703852
    C            0.249557022693     0.447111863602     0.250504390946
    C           -0.968398672535    -0.458751792427     0.276382742982
    C            1.615898687664    -0.208920231022     0.243999517145
    C           -1.063841275069    -1.383129051287    -0.944087969320
    H           -0.931040434704    -1.060437080088     1.181942490134
    H           -1.840409202416     0.179854074368     0.336721816582
    H           -0.235853769414    -2.082462418250    -0.989046836637
    H           -1.979698359868    -1.961838091093    -0.902607723110
    H           -1.074574838681    -0.811706737664    -1.866734763668
    H            1.829639587530    -0.603825340712    -0.745101653292
    H            2.368036656597     0.527155590507     0.491932639102
    H            1.663640949018    -1.037649006564     0.942968248445

  Mulliken Charges: (a.u.)
   Center  Symbol    Alpha    Beta     Spin     Total
       1     O     4.25978  4.25978  0.00000 -0.51955
       2     C     2.73522  2.73522  0.00000  0.52957
       3     C     3.20313  3.20313  0.00000 -0.40626
       4     C     3.29052  3.29052  0.00000 -0.58105
       5     C     3.25122  3.25122  0.00000 -0.50244
       6     H     0.41205  0.41205  0.00000  0.17590
       7     H     0.39825  0.39825  0.00000  0.20350
       8     H     0.41673  0.41673  0.00000  0.16653
       9     H     0.41015  0.41015  0.00000  0.17969
      10     H     0.41111  0.41111  0.00000  0.17778
      11     H     0.40410  0.40410  0.00000  0.19180
      12     H     0.39581  0.39581  0.00000  0.20837
      13     H     0.41192  0.41192  0.00000  0.17616

   Total alpha = 20.00000, Total beta = 20.00000, Total charge = -0.00000
