  ==> Input File <==

--------------------------------------------------------------------------
set {
	reference rhf
	basis 6-31G*
}

set_num_threads( 1 )
memory 2 gb

molecule MOL {
0 1

O	 -2.439975	 -0.936229	 -0.422735
C	 -1.921153	 0.064240	 -0.045697
C	 -2.624136	 1.380336	 0.149372
O	 -0.632575	 0.154573	 0.251549
H	 -2.167530	 2.136143	 -0.479289
H	 -3.669214	 1.273626	 -0.100148
H	 -2.519028	 1.702467	 1.178907
C	 0.160891	 -1.019931	 0.106212
C	 1.589627	 -0.672828	 0.480843
H	 0.089836	 -1.367806	 -0.916050
H	 -0.238459	 -1.792301	 0.749618
C	 2.246377	 0.346236	 -0.452210
H	 2.163194	 -1.597435	 0.473358
H	 1.604769	 -0.303424	 1.502885
C	 3.691736	 0.652107	 -0.061850
H	 2.219579	 -0.032311	 -1.472055
H	 1.666466	 1.263317	 -0.447249
H	 4.134505	 1.377213	 -0.737283
H	 4.305508	 -0.243868	 -0.089969
H	 3.748266	 1.059562	 0.943567

	symmetry c1
}
set optking {
	frozen_dihedral = ("
		16 12 9 8,
		2 4 8 10,
		12 9 8 10
	")
}

ee = energy('scf')
oeprop('DIPOLE', 'QUADRUPOLE', 'MULLIKEN_CHARGES')
f=open( 'psi4out.xyz', 'w' )
f.write( "20  " )
f.write( str(ee) + "\n" )
f.write( MOL.save_string_xyz() )
f.close()
--------------------------------------------------------------------------

    Molecular point group: c1

    Geometry (in Angstrom), charge = 0, multiplicity = 1:

       Center              X                  Y                   Z               Mass
    ------------   -----------------  -----------------  -----------------  -----------------
           O         -2.439988270199    -0.936244294448    -0.422674447158    15.994914619560
           C         -1.921166270199     0.064224705552    -0.045636447158    12.000000000000
           C         -2.624149270199     1.380320705552     0.149432552842    12.000000000000
           O         -0.632588270199     0.154557705552     0.251609552842    15.994914619560
           H         -2.167543270199     2.136127705552    -0.479228447158     1.007825032070
           H         -3.669227270199     1.273610705552    -0.100087447158     1.007825032070
           H         -2.519041270199     1.702451705552     1.178967552842     1.007825032070
           C          0.160877729801    -1.019946294448     0.106272552842    12.000000000000
           C          1.589613729801    -0.672843294448     0.480903552842    12.000000000000
           H          0.089822729801    -1.367821294448    -0.915989447158     1.007825032070
           H         -0.238472270199    -1.792316294448     0.749678552842     1.007825032070
           C          2.246363729801     0.346220705552    -0.452149447158    12.000000000000
           H          2.163180729801    -1.597450294448     0.473418552842     1.007825032070
           H          1.604755729801    -0.303439294448     1.502945552842     1.007825032070
           C          3.691722729801     0.652091705552    -0.061789447158    12.000000000000
           H          2.219565729801    -0.032326294448    -1.471994447158     1.007825032070
           H          1.666452729801     1.263301705552    -0.447188447158     1.007825032070
           H          4.134491729801     1.377197705552    -0.737222447158     1.007825032070
           H          4.305494729801    -0.243883294448    -0.089908447158     1.007825032070
           H          3.748252729801     1.059546705552     0.943627552842     1.007825032070

  Charge       = 0
  Multiplicity = 1
  Basis Set: 6-31G*
  Basis Set:

    Orbital Energies (a.u.)
    -----------------------

    Doubly Occupied:

       1A    -20.601814     2A    -20.544139     3A    -11.374559
       4A    -11.282370     5A    -11.233469     6A    -11.225514
       7A    -11.220602     8A    -11.213441     9A     -1.468008
      10A     -1.362264    11A     -1.086053    12A     -1.028292
      13A     -0.981449    14A     -0.880201    15A     -0.811412
      16A     -0.775176    17A     -0.689673    18A     -0.683520
      19A     -0.667058    20A     -0.631561    21A     -0.601087
      22A     -0.592618    23A     -0.572316    24A     -0.550610
      25A     -0.544699    26A     -0.531521    27A     -0.511760
      28A     -0.483355    29A     -0.474821    30A     -0.472380
      31A     -0.448906    32A     -0.438799

  @DF-RHF Final Energy:  -383.94569100789255

   => Energetics <=

    Nuclear Repulsion Energy =            385.1878116437983977
    One-Electron Energy =               -1286.3000339730260748
    Two-Electron Energy =                 517.1665313213354693
    DFT Exchange-Correlation Energy =       0.0000000000000000
    Empirical Dispersion Energy =           0.0000000000000000
    PCM Polarization Energy =               0.0000000000000000
    EFP Energy =                            0.0000000000000000
    Total Energy =                       -383.9456910078922647

  Mulliken Charges: (a.u.)
   Center  Symbol    Alpha    Beta     Spin     Total
       1     O     4.28329  4.28329  0.00000 -0.56658
       2     C     2.61919  2.61919  0.00000  0.76161
       3     C     3.28168  3.28168  0.00000 -0.56337
       4     O     4.30865  4.30865  0.00000 -0.61729
       5     H     0.40070  0.40070  0.00000  0.19860
       6     H     0.39685  0.39685  0.00000  0.20629
       7     H     0.40065  0.40065  0.00000  0.19870
       8     C     3.00264  3.00264  0.00000 -0.00528
       9     C     3.16470  3.16470  0.00000 -0.32939
      10     H     0.41055  0.41055  0.00000  0.17890
      11     H     0.40837  0.40837  0.00000  0.18326
      12     C     3.15509  3.15509  0.00000 -0.31017
      13     H     0.41827  0.41827  0.00000  0.16346
      14     H     0.41456  0.41456  0.00000  0.17089
      15     C     3.24038  3.24038  0.00000 -0.48075
      16     H     0.42276  0.42276  0.00000  0.15448
      17     H     0.41191  0.41191  0.00000  0.17619
      18     H     0.41755  0.41755  0.00000  0.16489
      19     H     0.42165  0.42165  0.00000  0.15670
      20     H     0.42057  0.42057  0.00000  0.15886

   Total alpha = 32.00000, Total beta = 32.00000, Total charge = -0.00000
