  ==> Input File <==

--------------------------------------------------------------------------
set {
	reference rhf
	basis 6-31G*
}

set_num_threads( 4 )
memory 2 gb

molecule MOL {
0 1

O	 -3.696763	 -0.468100	 -0.000703
C	 -2.668563	 0.129746	 -0.000350
C	 -2.571692	 1.633702	 -0.000670
O	 -1.481751	 -0.454642	 0.000584
H	 -3.086570	 2.015695	 0.872740
H	 -1.545837	 1.971425	 0.000761
H	 -3.083875	 2.015128	 -0.875920
C	 -0.334255	 0.388708	 0.000906
C	 0.891947	 -0.504646	 0.000751
H	 -0.365390	 1.025305	 -0.873475
H	 -0.365484	 1.024911	 0.875569
C	 2.191998	 0.301789	 0.000897
H	 0.855148	 -1.151283	 -0.871571
H	 0.855132	 -1.151660	 0.872805
C	 3.441114	 -0.581407	 0.000108
H	 2.215074	 0.954890	 -0.869742
H	 2.215465	 0.953923	 0.872248
C	 4.739576	 0.224112	 -0.001102
H	 3.419457	 -1.233487	 -0.870178
H	 3.420834	 -1.233096	 0.870717
H	 4.804918	 0.861552	 -0.878265
H	 5.606527	 -0.429058	 -0.001824
H	 4.806469	 0.861674	 0.875853

	symmetry c1
}
set optking {
	frozen_dihedral = ("
		1 2 4 8
	")
}

ee = optimize('scf')
oeprop('DIPOLE', 'QUADRUPOLE', 'MULLIKEN_CHARGES')
f=open( 'psi4out.xyz', 'w' )
f.write( "23  " )
f.write( str(ee) + "\n" )
f.write( MOL.save_string_xyz() )
f.close()
--------------------------------------------------------------------------

    Molecular point group: c1
  Charge       = 0
  Multiplicity = 1
  Basis Set: 6-31G*
  Basis Set:
  @DF-RHF Final Energy:  -422.94595419219621
    Total Energy =                       -422.9459541921956998
    Molecular point group: c1
  Basis Set: 6-31G*
  Basis Set:
  Basis Set: 6-31G*
  Basis Set:
  @DF-RHF Final Energy:  -422.94929874599364
    Total Energy =                       -422.9492987459932465
  Basis Set: 6-31G*
  Basis Set:
  Basis Set: 6-31G*
  Basis Set:
  @DF-RHF Final Energy:  -422.95817814054362
    Total Energy =                       -422.9581781405437368
  Basis Set: 6-31G*
  Basis Set:
  Basis Set: 6-31G*
  Basis Set:
  @DF-RHF Final Energy:  -422.96189381618541
    Total Energy =                       -422.9618938161850110
  Basis Set: 6-31G*
  Basis Set:
  @DF-RHF Final Energy:  -422.96232319086886
    Total Energy =                       -422.9623231908683465
  @DF-RHF Final Energy:  -422.96336056040224
    Total Energy =                       -422.9633605604021795
  @DF-RHF Final Energy:  -422.96355379137350
    Total Energy =                       -422.9635537913729877
  @DF-RHF Final Energy:  -422.96313195514824
    Total Energy =                       -422.9631319551479010
  Basis Set: 6-31G*
  Basis Set:
  @DF-RHF Final Energy:  -422.96359408064171
    Total Energy =                       -422.9635940806417693
  Basis Set: 6-31G*
  Basis Set:
  Basis Set: 6-31G*
  Basis Set:
  @DF-RHF Final Energy:  -422.96357142604893
    Total Energy =                       -422.9635714260499526
  Basis Set: 6-31G*
  Basis Set:
  Basis Set: 6-31G*
  Basis Set:
  @DF-RHF Final Energy:  -422.96360340258758
    Total Energy =                       -422.9636034025871822
  Basis Set: 6-31G*
  Basis Set:
  Charge       = 0
  Multiplicity = 1
  Basis Set: 6-31G*
  Basis Set:

    Orbital Energies (a.u.)
    -----------------------

    Doubly Occupied:

       1A    -20.600165     2A    -20.533543     3A    -11.375657
       4A    -11.297426     5A    -11.240799     6A    -11.230003
       7A    -11.229297     8A    -11.225415     9A    -11.216425
      10A     -1.461487    11A     -1.362010    12A     -1.098359
      13A     -1.036823    14A     -1.013881    15A     -0.944716
      16A     -0.849222    17A     -0.808301    18A     -0.779887
      19A     -0.698119    20A     -0.696854    21A     -0.658433
      22A     -0.649778    23A     -0.611774    24A     -0.596661
      25A     -0.582421    26A     -0.571065    27A     -0.570302
      28A     -0.534166    29A     -0.532909    30A     -0.506045
      31A     -0.499469    32A     -0.482524    33A     -0.476007
      34A     -0.473775    35A     -0.441075    36A     -0.428011

  @DF-RHF Final Energy:  -422.96360423054841

   => Energetics <=

    Nuclear Repulsion Energy =            448.8032323457980510
    One-Electron Energy =               -1464.9080619443343494
    Two-Electron Energy =                 593.1412253679869764
    DFT Exchange-Correlation Energy =       0.0000000000000000
    Empirical Dispersion Energy =           0.0000000000000000
    PCM Polarization Energy =               0.0000000000000000
    EFP Energy =                            0.0000000000000000
    Total Energy =                       -422.9636042305493220
    Molecular point group: c1
  Basis Set: 6-31G*
  Basis Set:

  -Total Gradient:
     Atom            X                  Y                   Z
    ------   -----------------  -----------------  -----------------
       1        0.000113147789     0.000010559394    -0.000007308194
       2       -0.000139014360     0.000057025551    -0.000009471111
       3        0.000011842875     0.000018636923    -0.000022134090
       4        0.000071793352    -0.000070289637     0.000015829159
       5        0.000019922097    -0.000001119812    -0.000000243095
       6       -0.000019915278     0.000000335185    -0.000004673669
       7        0.000002756735    -0.000015950524     0.000032976811
       8       -0.000023029782     0.000028809163    -0.000011885929
       9       -0.000010231116    -0.000026203458     0.000001546770
      10        0.000013537725    -0.000006843267     0.000003401811
      11       -0.000006531422    -0.000008977335     0.000000078124
      12       -0.000012132519     0.000013152406     0.000003274873
      13       -0.000003637319     0.000003568223     0.000003078817
      14        0.000002908837    -0.000001916435    -0.000003745593
      15       -0.000006373497    -0.000011941738     0.000000468458
      16        0.000004512103    -0.000006694011     0.000003140521
      17        0.000005424799    -0.000002908034    -0.000006846446
      18       -0.000006284559     0.000013242754     0.000002957544
      19       -0.000006282599     0.000006295943     0.000005747745
      20       -0.000006234134     0.000003912363    -0.000006026352
      21        0.000002010560    -0.000003874459     0.000006728242
      22       -0.000011143992     0.000004300534     0.000000162722
      23        0.000002953715    -0.000003119727    -0.000007057117

  **** Optimization is complete! (in 12 steps) ****
    Final optimized geometry and variables:
    Molecular point group: c1

    Geometry (in Angstrom), charge = 0, multiplicity = 1:

    O           -3.635044699041    -0.672266273571     0.000430853669
    C           -2.720670652875     0.080972283538     0.000442907046
    C           -2.952365923234     1.579334461231    -0.000363508722
    O           -1.481030372330    -0.403053626572     0.000448261825
    H           -3.553569540922     1.819642453023     0.867800906385
    H           -2.062437291439     2.188352401409     0.006623128466
    H           -3.540397709509     1.820898793339    -0.877246861491
    C           -0.313678986319     0.397095235872     0.000478837026
    C            0.877575421834    -0.543977003932    -0.000613167373
    H           -0.297190101355     1.031569600750    -0.878897776918
    H           -0.296569817122     1.030223790692     0.880806984788
    C            2.210473669652     0.206332495245    -0.000261399752
    H            0.807748618078    -1.186803247534    -0.872770871256
    H            0.808169411327    -1.188292167398     0.870480099910
    C            3.419515165556    -0.731075431131    -0.000597621393
    H            2.263698123651     0.857479510053    -0.871420902906
    H            2.263645002944     0.856769570372     0.871431128046
    C            4.751948965377     0.016764007108     0.000106059781
    H            3.369425887548    -1.380631705838    -0.871316829164
    H            3.369101935504    -1.381677064950     0.869322993630
    H            4.846675197605     0.651064495815    -0.876696570265
    H            5.588888034864    -0.674190177964    -0.000142378330
    H            4.846337854404     0.650027060518     0.877694196384

  Mulliken Charges: (a.u.)
   Center  Symbol    Alpha    Beta     Spin     Total
       1     O     4.27022  4.27022  0.00000 -0.54045
       2     C     2.61256  2.61256  0.00000  0.77489
       3     C     3.30487  3.30487  0.00000 -0.60975
       4     O     4.30820  4.30820  0.00000 -0.61640
       5     H     0.39193  0.39193  0.00000  0.21613
       6     H     0.40758  0.40758  0.00000  0.18483
       7     H     0.39203  0.39203  0.00000  0.21594
       8     C     2.99838  2.99838  0.00000  0.00323
       9     C     3.16223  3.16223  0.00000 -0.32446
      10     H     0.41871  0.41871  0.00000  0.16258
      11     H     0.41872  0.41872  0.00000  0.16257
      12     C     3.16114  3.16114  0.00000 -0.32229
      13     H     0.40912  0.40912  0.00000  0.18177
      14     H     0.40910  0.40910  0.00000  0.18179
      15     C     3.15181  3.15181  0.00000 -0.30362
      16     H     0.42225  0.42225  0.00000  0.15550
      17     H     0.42226  0.42226  0.00000  0.15549
      18     C     3.24009  3.24009  0.00000 -0.48018
      19     H     0.41983  0.41983  0.00000  0.16033
      20     H     0.41983  0.41983  0.00000  0.16033
      21     H     0.42115  0.42115  0.00000  0.15770
      22     H     0.41681  0.41681  0.00000  0.16638
      23     H     0.42115  0.42115  0.00000  0.15770

   Total alpha = 36.00000, Total beta = 36.00000, Total charge = -0.00000
