  ==> Input File <==

--------------------------------------------------------------------------
set {
	reference rhf
	basis 6-31G*
}

set_num_threads( 4 )
memory 2 gb

molecule MOL {
0 1

H	 -2.798360	 -0.862255	 -0.071053
N	 -1.863561	 -0.715187	 0.256814
C	 -1.344686	 0.554728	 -0.219830
H	 -1.300452	 -1.461917	 -0.101532
C	 -2.488136	 1.461177	 -0.624811
H	 -0.731524	 1.081189	 0.512886
H	 -0.724306	 0.370788	 -1.091653
O	 -3.238551	 1.757799	 0.517984
H	 -2.102337	 2.379008	 -1.067963
H	 -3.108660	 0.959166	 -1.363843
C	 -4.377930	 2.519620	 0.275054
H	 -4.870605	 2.684655	 1.223596
H	 -4.126034	 3.484056	 -0.162431
H	 -5.064485	 2.005708	 -0.394532

	symmetry c1
}
set optking {
	frozen_dihedral = ("
		6 3 2 4
	")
}

ee = optimize('scf')
oeprop('DIPOLE', 'QUADRUPOLE', 'MULLIKEN_CHARGES')
f=open( 'psi4out.xyz', 'w' )
f.write( "14  " )
f.write( str(ee) + "\n" )
f.write( MOL.save_string_xyz() )
f.close()
--------------------------------------------------------------------------

    Molecular point group: c1
  Charge       = 0
  Multiplicity = 1
  Basis Set: 6-31G*
  Basis Set:
  @DF-RHF Final Energy:  -248.11544806270268
    Total Energy =                       -248.1154480627028533
    Molecular point group: c1
  Basis Set: 6-31G*
  Basis Set:
  Basis Set: 6-31G*
  Basis Set:
  @DF-RHF Final Energy:  -248.11722000194533
    Total Energy =                       -248.1172200019452703
  Basis Set: 6-31G*
  Basis Set:
  Basis Set: 6-31G*
  Basis Set:
  @DF-RHF Final Energy:  -248.11752908752675
    Total Energy =                       -248.1175290875267478
  Basis Set: 6-31G*
  Basis Set:
  Basis Set: 6-31G*
  Basis Set:
  @DF-RHF Final Energy:  -248.11754141962157
    Total Energy =                       -248.1175414196217162
  Basis Set: 6-31G*
  Basis Set:
  Basis Set: 6-31G*
  Basis Set:
  @DF-RHF Final Energy:  -248.11754363521806
    Total Energy =                       -248.1175436352180554
  Basis Set: 6-31G*
  Basis Set:
  Charge       = 0
  Multiplicity = 1
  Basis Set: 6-31G*
  Basis Set:

    Orbital Energies (a.u.)
    -----------------------

    Doubly Occupied:

       1A    -20.557183     2A    -15.526792     3A    -11.272520
       4A    -11.266765     5A    -11.242281     6A     -1.383462
       7A     -1.171142     8A     -1.001143     9A     -0.908857
      10A     -0.821078    11A     -0.684496    12A     -0.670773
      13A     -0.651956    14A     -0.610721    15A     -0.584602
      16A     -0.577424    17A     -0.518779    18A     -0.499254
      19A     -0.472786    20A     -0.418316    21A     -0.373144

  @DF-RHF Final Energy:  -248.11754395534311

   => Energetics <=

    Nuclear Repulsion Energy =            194.1475151969580963
    One-Electron Energy =                -722.1031719329929501
    Two-Electron Energy =                 279.8381127806915742
    DFT Exchange-Correlation Energy =       0.0000000000000000
    Empirical Dispersion Energy =           0.0000000000000000
    PCM Polarization Energy =               0.0000000000000000
    EFP Energy =                            0.0000000000000000
    Total Energy =                       -248.1175439553432511
    Molecular point group: c1
  Basis Set: 6-31G*
  Basis Set:

  -Total Gradient:
     Atom            X                  Y                   Z
    ------   -----------------  -----------------  -----------------
       1       -0.000011749866    -0.000010148745    -0.000013682426
       2       -0.000126457136    -0.000018272331    -0.000140649681
       3       -0.000100138722     0.000105217955     0.000089232272
       4        0.000114139052     0.000018765329     0.000116294595
       5       -0.000058937250     0.000011223072     0.000087673977
       6        0.000128899480    -0.000079015552    -0.000060003738
       7       -0.000000309848     0.000005544765    -0.000011807966
       8        0.000012278384    -0.000005312536    -0.000029038857
       9        0.000023761300    -0.000001523633    -0.000021308523
      10        0.000012648739    -0.000016794837    -0.000015079077
      11       -0.000003077209    -0.000002605855    -0.000001999480
      12        0.000006806690    -0.000005507347    -0.000001019872
      13        0.000004044668    -0.000001663951     0.000000663973
      14       -0.000001908282     0.000000093665     0.000000724802

  **** Optimization is complete! (in 6 steps) ****
    Final optimized geometry and variables:
    Molecular point group: c1

    Geometry (in Angstrom), charge = 0, multiplicity = 1:

    H           -0.076064571438    -2.000071629767     0.051164432311
    N            0.884831349499    -1.822347275668     0.261728214488
    C            1.334093880446    -0.550816416143    -0.288641169263
    H            1.427095235313    -2.587472384938    -0.083121444308
    C            0.181795274995     0.364837513732    -0.655167559676
    H            1.960501951778    -0.045318838096     0.439372602570
    H            1.933530089617    -0.682608756482    -1.189481051381
    O           -0.604955863482     0.601843431575     0.469666022068
    H            0.575942176990     1.301654978501    -1.049151694755
    H           -0.419814551843    -0.092386677348    -1.443442473388
    C           -1.694063311340     1.436750792579     0.239574678969
    H           -2.225597852192     1.545035592584     1.174769676767
    H           -1.377188604977     2.420687889925    -0.101936987872
    H           -2.369982862340     1.016392559574    -0.503462959392

  Mulliken Charges: (a.u.)
   Center  Symbol    Alpha    Beta     Spin     Total
       1     H     0.32860  0.32860  0.00000  0.34280
       2     N     3.92490  3.92490  0.00000 -0.84980
       3     C     3.05424  3.05424  0.00000 -0.10848
       4     H     0.33285  0.33285  0.00000  0.33430
       5     C     3.00305  3.00305  0.00000 -0.00611
       6     H     0.41302  0.41302  0.00000  0.17396
       7     H     0.43129  0.43129  0.00000  0.13743
       8     O     4.29804  4.29804  0.00000 -0.59608
       9     H     0.42829  0.42829  0.00000  0.14342
      10     H     0.43485  0.43485  0.00000  0.13030
      11     C     3.08003  3.08003  0.00000 -0.16006
      12     H     0.40990  0.40990  0.00000  0.18021
      13     H     0.42987  0.42987  0.00000  0.14027
      14     H     0.43107  0.43107  0.00000  0.13785

   Total alpha = 21.00000, Total beta = 21.00000, Total charge = -0.00000
