  ==> Input File <==

--------------------------------------------------------------------------
set {
	reference rhf
	basis 6-31G*
}

set_num_threads( 1 )
memory 2 gb

molecule MOL {
0 1

H	 3.407966	 1.184061	 0.331376
O	 2.488735	 1.059172	 0.546257
C	 2.077727	 -0.067559	 -0.035091
C	 0.624473	 -0.343591	 0.253101
O	 2.803748	 -0.740503	 -0.691639
C	 -0.265902	 0.883932	 0.072916
H	 0.324016	 -1.163849	 -0.390541
H	 0.565024	 -0.726111	 1.268924
C	 -1.728698	 0.646073	 0.462102
H	 -0.209144	 1.219470	 -0.958188
H	 0.135059	 1.692851	 0.673903
C	 -2.482460	 -0.343073	 -0.431425
H	 -2.245265	 1.602650	 0.432430
H	 -1.779332	 0.308348	 1.496285
C	 -3.960546	 -0.461025	 -0.060175
H	 -2.395034	 -0.026811	 -1.468912
H	 -2.024850	 -1.327147	 -0.371646
H	 -4.472726	 -1.168004	 -0.705284
H	 -4.465146	 0.496508	 -0.151489
H	 -4.081218	 -0.800940	 0.964585

	symmetry c1
}
set optking {
	frozen_dihedral = ("
		16 12 9 6,
		7 4 6 10,
		12 9 6 10,
		1 2 3 5
	")
}

ee = energy('scf')
oeprop('DIPOLE', 'QUADRUPOLE', 'MULLIKEN_CHARGES')
f=open( 'psi4out.xyz', 'w' )
f.write( "20  " )
f.write( str(ee) + "\n" )
f.write( MOL.save_string_xyz() )
f.close()
--------------------------------------------------------------------------

    Molecular point group: c1

    Geometry (in Angstrom), charge = 0, multiplicity = 1:

       Center              X                  Y                   Z               Mass
    ------------   -----------------  -----------------  -----------------  -----------------
           H          3.421297902186     1.096406202900     0.314646854094     1.007825032070
           O          2.502066902186     0.971517202900     0.529527854094    15.994914619560
           C          2.091058902186    -0.155213797100    -0.051820145906    12.000000000000
           C          0.637804902186    -0.431245797100     0.236371854094    12.000000000000
           O          2.817079902186    -0.828157797100    -0.708368145906    15.994914619560
           C         -0.252570097814     0.796277202900     0.056186854094    12.000000000000
           H          0.337347902186    -1.251503797100    -0.407270145906     1.007825032070
           H          0.578355902186    -0.813765797100     1.252194854094     1.007825032070
           C         -1.715366097814     0.558418202900     0.445372854094    12.000000000000
           H         -0.195812097814     1.131815202900    -0.974917145906     1.007825032070
           H          0.148390902186     1.605196202900     0.657173854094     1.007825032070
           C         -2.469128097814    -0.430727797100    -0.448154145906    12.000000000000
           H         -2.231933097814     1.514995202900     0.415700854094     1.007825032070
           H         -1.766000097814     0.220693202900     1.479555854094     1.007825032070
           C         -3.947214097814    -0.548679797100    -0.076904145906    12.000000000000
           H         -2.381702097814    -0.114465797100    -1.485641145906     1.007825032070
           H         -2.011518097814    -1.414801797100    -0.388375145906     1.007825032070
           H         -4.459394097814    -1.255658797100    -0.722013145906     1.007825032070
           H         -4.451814097814     0.408853202900    -0.168218145906     1.007825032070
           H         -4.067886097814    -0.888594797100     0.947855854094     1.007825032070

  Charge       = 0
  Multiplicity = 1
  Basis Set: 6-31G*
  Basis Set:

    Orbital Energies (a.u.)
    -----------------------

    Doubly Occupied:

       1A    -20.613138     2A    -20.550183     3A    -11.380507
       4A    -11.238907     5A    -11.228447     6A    -11.223110
       7A    -11.221203     8A    -11.213152     9A     -1.474581
      10A     -1.364810    11A     -1.099191    12A     -1.042375
      13A     -0.959835    14A     -0.862562    15A     -0.824902
      16A     -0.790902    17A     -0.701073    18A     -0.685465
      19A     -0.645920    20A     -0.638233    21A     -0.611133
      22A     -0.591321    23A     -0.578176    24A     -0.554631
      25A     -0.540952    26A     -0.518186    27A     -0.501395
      28A     -0.482297    29A     -0.476794    30A     -0.469201
      31A     -0.458152    32A     -0.434287

  @DF-RHF Final Energy:  -383.94654907457573

   => Energetics <=

    Nuclear Repulsion Energy =            377.0387846560896605
    One-Electron Energy =               -1270.0206669465242157
    Two-Electron Energy =                 509.0353332158581452
    DFT Exchange-Correlation Energy =       0.0000000000000000
    Empirical Dispersion Energy =           0.0000000000000000
    PCM Polarization Energy =               0.0000000000000000
    EFP Energy =                            0.0000000000000000
    Total Energy =                       -383.9465490745764100

  Mulliken Charges: (a.u.)
   Center  Symbol    Alpha    Beta     Spin     Total
       1     H     0.26754  0.26754  0.00000  0.46491
       2     O     4.34735  4.34735  0.00000 -0.69471
       3     C     2.62628  2.62628  0.00000  0.74743
       4     C     3.20890  3.20890  0.00000 -0.41779
       5     O     4.27991  4.27991  0.00000 -0.55983
       6     C     3.16450  3.16450  0.00000 -0.32899
       7     H     0.39519  0.39519  0.00000  0.20963
       8     H     0.40115  0.40115  0.00000  0.19769
       9     C     3.15475  3.15475  0.00000 -0.30950
      10     H     0.41586  0.41586  0.00000  0.16828
      11     H     0.40149  0.40149  0.00000  0.19702
      12     C     3.15487  3.15487  0.00000 -0.30975
      13     H     0.41823  0.41823  0.00000  0.16354
      14     H     0.42221  0.42221  0.00000  0.15557
      15     C     3.23948  3.23948  0.00000 -0.47896
      16     H     0.42133  0.42133  0.00000  0.15733
      17     H     0.42102  0.42102  0.00000  0.15796
      18     H     0.41771  0.41771  0.00000  0.16458
      19     H     0.42098  0.42098  0.00000  0.15804
      20     H     0.42123  0.42123  0.00000  0.15755

   Total alpha = 32.00000, Total beta = 32.00000, Total charge =  0.00000
