  ==> Input File <==

--------------------------------------------------------------------------
set {
	reference rhf
	basis 6-31G*
}

set_num_threads( 4 )
memory 2 gb

molecule MOL {
0 1

H	 -0.859995	 -1.757683	 0.977122
C	 -1.739658	 -1.314781	 0.514334
O	 -1.392607	 -0.295399	 -0.366433
H	 -2.256351	 -2.075416	 -0.054529
H	 -2.400299	 -0.955798	 1.302441
C	 -0.719715	 0.768384	 0.229244
C	 0.719720	 0.768376	 -0.229267
H	 -1.185038	 1.714362	 -0.050570
H	 -0.750528	 0.687237	 1.313896
O	 1.392611	 -0.295398	 0.366430
H	 0.750534	 0.687200	 -1.313918
H	 1.185043	 1.714359	 0.050526
C	 2.706965	 -0.449871	 -0.062409
H	 2.756559	 -0.644779	 -1.131878
H	 3.305899	 0.433456	 0.155466
H	 3.125548	 -1.294566	 0.467107

	symmetry c1
}
set optking {
	frozen_dihedral = ("
		2 3 6 7
	")
}

ee = optimize('scf')
oeprop('DIPOLE', 'QUADRUPOLE', 'MULLIKEN_CHARGES')
f=open( 'psi4out.xyz', 'w' )
f.write( "16  " )
f.write( str(ee) + "\n" )
f.write( MOL.save_string_xyz() )
f.close()
--------------------------------------------------------------------------

    Molecular point group: c1
  Charge       = 0
  Multiplicity = 1
  Basis Set: 6-31G*
  Basis Set:
  @DF-RHF Final Energy:  -306.97581644954130
    Total Energy =                       -306.9758164495411847
    Molecular point group: c1
  Basis Set: 6-31G*
  Basis Set:
  Basis Set: 6-31G*
  Basis Set:
  @DF-RHF Final Energy:  -306.97643667317169
    Total Energy =                       -306.9764366731715199
  Basis Set: 6-31G*
  Basis Set:
  Basis Set: 6-31G*
  Basis Set:
  @DF-RHF Final Energy:  -306.97652632672657
    Total Energy =                       -306.9765263267264572
  Basis Set: 6-31G*
  Basis Set:
  Basis Set: 6-31G*
  Basis Set:
  @DF-RHF Final Energy:  -306.97653067945464
    Total Energy =                       -306.9765306794547541
  Basis Set: 6-31G*
  Basis Set:
  Charge       = 0
  Multiplicity = 1
  Basis Set: 6-31G*
  Basis Set:

    Orbital Energies (a.u.)
    -----------------------

    Doubly Occupied:

       1A    -20.557847     2A    -20.548227     3A    -11.267903
       4A    -11.267129     5A    -11.266723     6A    -11.257064
       7A     -1.387463     8A     -1.365738     9A     -1.028542
      10A     -0.939742    11A     -0.889664    12A     -0.822243
      13A     -0.682930    14A     -0.678959    15A     -0.656848
      16A     -0.631803    17A     -0.624295    18A     -0.600757
      19A     -0.548433    20A     -0.532446    21A     -0.516453
      22A     -0.476412    23A     -0.466061    24A     -0.419288
      25A     -0.403871

  @DF-RHF Final Energy:  -306.97653096841390

   => Energetics <=

    Nuclear Repulsion Energy =            262.4533941903096661
    One-Electron Energy =                -939.1861692863403732
    Two-Electron Energy =                 369.7562441276168670
    DFT Exchange-Correlation Energy =       0.0000000000000000
    Empirical Dispersion Energy =           0.0000000000000000
    PCM Polarization Energy =               0.0000000000000000
    EFP Energy =                            0.0000000000000000
    Total Energy =                       -306.9765309684138970
    Molecular point group: c1
  Basis Set: 6-31G*
  Basis Set:

  -Total Gradient:
     Atom            X                  Y                   Z
    ------   -----------------  -----------------  -----------------
       1       -0.000004436599    -0.000005819418     0.000000104656
       2       -0.001145918970     0.000674878242     0.000246581918
       3        0.001570934235    -0.000652590782    -0.000753044804
       4        0.000003474302     0.000005381946     0.000001326201
       5       -0.000008478935    -0.000008365728     0.000008719608
       6       -0.000082864230    -0.000705300735     0.001442871514
       7       -0.000324717045     0.000705376529    -0.000955323062
       8        0.000002833228    -0.000005723291    -0.000004413184
       9        0.000001533916    -0.000005334838     0.000003985205
      10       -0.000028637238     0.000006659525    -0.000009299472
      11        0.000005389049    -0.000010163483     0.000009499276
      12        0.000009579650     0.000004402768     0.000003060666
      13        0.000000010166    -0.000004188873     0.000007138954
      14       -0.000004971280     0.000003380041     0.000003246131
      15       -0.000000901550    -0.000000261814    -0.000002584595
      16        0.000007171305    -0.000002330085    -0.000001869013

  **** Optimization is complete! (in 5 steps) ****
    Final optimized geometry and variables:
    Molecular point group: c1

    Geometry (in Angstrom), charge = 0, multiplicity = 1:

    H           -1.068253665187    -1.621823267086     0.925731174844
    C           -1.936093527487    -1.178501468596     0.449330158065
    O           -1.572555587876    -0.153307630842    -0.425602443028
    H           -2.442810383409    -1.933318558107    -0.136898561062
    H           -2.617915147476    -0.820225507636     1.218108899380
    C           -0.881839477422     0.919703701322     0.144021903354
    C            0.562289953865     0.938658787156    -0.306354807648
    H           -1.361871496662     1.839103232292    -0.178548219817
    H           -0.921320488614     0.884245593590     1.228611084979
    O            1.232313062450    -0.139743453902     0.272765977384
    H            0.599995364337     0.874424460887    -1.391745157906
    H            1.027761735986     1.879065634499    -0.007465756924
    C            2.547572589862    -0.294519165236    -0.156109724583
    H            2.597691892797    -0.470563913829    -1.228605761431
    H            3.149131242284     0.582068864059     0.078602962099
    H            2.961531725961    -1.150242609788     0.359379569427

  Mulliken Charges: (a.u.)
   Center  Symbol    Alpha    Beta     Spin     Total
       1     H     0.41740  0.41740  0.00000  0.16520
       2     C     3.08161  3.08161  0.00000 -0.16322
       3     O     4.30717  4.30717  0.00000 -0.61434
       4     H     0.41532  0.41532  0.00000  0.16937
       5     H     0.43194  0.43194  0.00000  0.13612
       6     C     2.99923  2.99923  0.00000  0.00153
       7     C     2.99241  2.99241  0.00000  0.01518
       8     H     0.42038  0.42038  0.00000  0.15925
       9     H     0.42247  0.42247  0.00000  0.15505
      10     O     4.30546  4.30546  0.00000 -0.61092
      11     H     0.42346  0.42346  0.00000  0.15309
      12     H     0.43401  0.43401  0.00000  0.13198
      13     C     3.07934  3.07934  0.00000 -0.15869
      14     H     0.42738  0.42738  0.00000  0.14524
      15     H     0.43045  0.43045  0.00000  0.13910
      16     H     0.41197  0.41197  0.00000  0.17606

   Total alpha = 25.00000, Total beta = 25.00000, Total charge =  0.00000
