  ==> Input File <==

--------------------------------------------------------------------------
set {
	reference rhf
	basis cc-pvtz
}

set_num_threads( 4 )
memory 2 gb

molecule MOL {
0 1

H	 -3.162190	 0.493205	 -0.000107
C	 -2.363908	 -0.234727	 0.000005
O	 -1.158738	 0.454634	 -0.000087
H	 -2.464314	 -0.863616	 -0.882153
H	 -2.464327	 -0.863359	 0.882345
C	 -1.247277	 1.770889	 0.447072
C	 0.126733	 2.408157	 0.398304
H	 -1.636459	 1.794480	 1.465217
H	 -1.943861	 2.331582	 -0.176656
C	 0.114139	 3.856435	 0.874416
H	 0.802236	 1.819868	 1.009480
H	 0.497245	 2.352743	 -0.619342
H	 -0.230883	 3.932420	 1.900220
H	 1.107130	 4.286503	 0.829340
H	 -0.537668	 4.468912	 0.260342

	symmetry c1
}
set optking {
	frozen_dihedral = ("
		6 3 2 4
	")
}

ee = optimize('scf')
oeprop('DIPOLE', 'QUADRUPOLE', 'MULLIKEN_CHARGES')
f=open( 'psi4out.xyz', 'w' )
f.write( "15  " )
f.write( str(ee) + "\n" )
f.write( MOL.save_string_xyz() )
f.close()
--------------------------------------------------------------------------

    Molecular point group: c1
  Charge       = 0
  Multiplicity = 1
  Basis Set: CC-PVTZ
  Basis Set:
  @DF-RHF Final Energy:  -232.22449025376204
    Total Energy =                       -232.2244902537619851
    Molecular point group: c1
  Basis Set: CC-PVTZ
  Basis Set:
  Basis Set: CC-PVTZ
  Basis Set:
  @DF-RHF Final Energy:  -232.22529210484595
    Total Energy =                       -232.2252921048460621
  Basis Set: CC-PVTZ
  Basis Set:
  Basis Set: CC-PVTZ
  Basis Set:
  @DF-RHF Final Energy:  -232.22550128859402
    Total Energy =                       -232.2255012885940459
  Basis Set: CC-PVTZ
  Basis Set:
  Charge       = 0
  Multiplicity = 1
  Basis Set: CC-PVTZ
  Basis Set:

    Orbital Energies (a.u.)
    -----------------------

    Doubly Occupied:

       1A    -20.544847     2A    -11.264770     3A    -11.261356
       4A    -11.212329     5A    -11.210508     6A     -1.378157
       7A     -1.058131     8A     -0.956102     9A     -0.877407
      10A     -0.809295    11A     -0.674410    12A     -0.654285
      13A     -0.631318    14A     -0.608946    15A     -0.563584
      16A     -0.545084    17A     -0.503073    18A     -0.488864
      19A     -0.479099    20A     -0.462189    21A     -0.412812

  @DF-RHF Final Energy:  -232.22550257144974

   => Energetics <=

    Nuclear Repulsion Energy =            189.7630421133541176
    One-Electron Energy =                -690.7839580072470653
    Two-Electron Energy =                 268.7954133224433235
    DFT Exchange-Correlation Energy =       0.0000000000000000
    Empirical Dispersion Energy =           0.0000000000000000
    PCM Polarization Energy =               0.0000000000000000
    EFP Energy =                            0.0000000000000000
    Total Energy =                       -232.2255025714496242
    Molecular point group: c1
  Basis Set: CC-PVTZ
  Basis Set:

  -Total Gradient:
     Atom            X                  Y                   Z
    ------   -----------------  -----------------  -----------------
       1       -0.000020065888     0.000012728550    -0.000001226394
       2        0.001234573412    -0.001942158268     0.000737732217
       3        0.000219723601    -0.000538943049     0.002413733456
       4       -0.001038524786     0.001922757148    -0.001219406086
       5        0.000039666770    -0.000005101985     0.000001213676
       6       -0.000442488423     0.000640070675    -0.001880603044
       7        0.000016846297    -0.000052018032    -0.000026000980
       8        0.000001356343    -0.000021237952    -0.000019135898
       9       -0.000007429988    -0.000026815394    -0.000009718392
      10       -0.000013028073     0.000004979604     0.000007584791
      11        0.000003138103     0.000002863838    -0.000002763653
      12        0.000006447433     0.000000404199     0.000000134560
      13       -0.000000673489     0.000002554738    -0.000000477143
      14       -0.000000692336    -0.000001962155    -0.000000558387
      15        0.000001151023     0.000001878078    -0.000000508725

  **** Optimization is complete! (in 4 steps) ****
    Final optimized geometry and variables:
    Molecular point group: c1

    Geometry (in Angstrom), charge = 0, multiplicity = 1:

    H           -2.297210925426    -1.212853145224    -0.352421411933
    C           -1.437337133505    -1.876681535373    -0.343246732837
    O           -0.239356288122    -1.166619883373    -0.339378414789
    H           -1.480653771694    -2.480835980907    -1.240078437118
    H           -1.512330189348    -2.520225860354     0.527961441569
    C           -0.317194578831     0.150048625218     0.111122660767
    C            1.062692270316     0.773935622081     0.057044655292
    H           -0.700348655420     0.180394866388     1.131326421533
    H           -1.009503023353     0.716618720159    -0.510775040243
    C            1.064246150718     2.224659365393     0.526270936260
    H            1.734207260607     0.182502898512     0.669648011399
    H            1.430612436302     0.709947322060    -0.961126684904
    H            0.721597698906     2.308834632939     1.552280501510
    H            2.061108674277     2.645484412339     0.477568789094
    H            0.417095603104     2.840201731610    -0.089779125015

  Mulliken Charges: (a.u.)
   Center  Symbol    Alpha    Beta     Spin     Total
       1     H     0.47435  0.47435  0.00000  0.05130
       2     C     3.02982  3.02982  0.00000 -0.05964
       3     O     4.17547  4.17547  0.00000 -0.35094
       4     H     0.45308  0.45308  0.00000  0.09384
       5     H     0.46243  0.46243  0.00000  0.07515
       6     C     2.95556  2.95556  0.00000  0.08888
       7     C     3.08170  3.08170  0.00000 -0.16340
       8     H     0.47639  0.47639  0.00000  0.04723
       9     H     0.47500  0.47500  0.00000  0.05000
      10     C     3.15588  3.15588  0.00000 -0.31176
      11     H     0.45104  0.45104  0.00000  0.09791
      12     H     0.45124  0.45124  0.00000  0.09752
      13     H     0.45584  0.45584  0.00000  0.08831
      14     H     0.44628  0.44628  0.00000  0.10744
      15     H     0.45593  0.45593  0.00000  0.08815

   Total alpha = 21.00000, Total beta = 21.00000, Total charge =  0.00000
