  ==> Input File <==

--------------------------------------------------------------------------
set {
	reference rhf
	basis 6-31G*
}

set_num_threads( 1 )
memory 2 gb

molecule MOL {
0 1

H	 -1.696318	 1.873667	 3.896310
O	 -1.000483	 1.300504	 3.607863
C	 -1.013692	 1.209845	 2.206364
C	 0.112984	 0.285351	 1.780151
H	 -1.968629	 0.819813	 1.856682
H	 -0.879083	 2.193092	 1.757539
C	 0.198102	 0.111031	 0.262842
H	 -0.035391	 -0.678207	 2.260014
H	 1.047213	 0.685017	 2.164808
C	 1.331804	 -0.827780	 -0.158768
H	 -0.752017	 -0.266307	 -0.107377
H	 0.346614	 1.082489	 -0.206980
C	 2.723619	 -0.410569	 0.329459
H	 1.342964	 -0.912588	 -1.244120
H	 1.116806	 -1.824343	 0.220779
C	 3.243875	 0.895854	 -0.272975
H	 3.424222	 -1.207124	 0.091250
H	 2.714788	 -0.329854	 1.414619
H	 3.251977	 0.848779	 -1.358681
H	 2.637085	 1.747371	 0.016682
H	 4.259473	 1.094070	 0.055697

	symmetry c1
}
set optking {
	frozen_dihedral = ("
		2 3 4 8,
		8 4 7 10,
		16 13 10 14,
		1 2 3 5
	")
}

ee = energy('scf')
oeprop('DIPOLE', 'QUADRUPOLE', 'MULLIKEN_CHARGES')
f=open( 'psi4out.xyz', 'w' )
f.write( "21  " )
f.write( str(ee) + "\n" )
f.write( MOL.save_string_xyz() )
f.close()
--------------------------------------------------------------------------

    Molecular point group: c1

    Geometry (in Angstrom), charge = 0, multiplicity = 1:

       Center              X                  Y                   Z               Mass
    ------------   -----------------  -----------------  -----------------  -----------------
           H         -2.461056879862     1.470822525461     2.736965952963     1.007825032070
           O         -1.765221879862     0.897659525461     2.448518952963    15.994914619560
           C         -1.778430879862     0.807000525461     1.047019952963    12.000000000000
           C         -0.651754879862    -0.117493474539     0.620806952963    12.000000000000
           H         -2.733367879862     0.416968525461     0.697337952963     1.007825032070
           H         -1.643821879862     1.790247525461     0.598194952963     1.007825032070
           C         -0.566636879862    -0.291813474539    -0.896502047037    12.000000000000
           H         -0.800129879862    -1.081051474539     1.100669952963     1.007825032070
           H          0.282474120138     0.282172525461     1.005463952963     1.007825032070
           C          0.567065120138    -1.230624474539    -1.318112047037    12.000000000000
           H         -1.516755879862    -0.669151474539    -1.266721047037     1.007825032070
           H         -0.418124879862     0.679644525461    -1.366324047037     1.007825032070
           C          1.958880120138    -0.813413474539    -0.829885047037    12.000000000000
           H          0.578225120138    -1.315432474539    -2.403464047037     1.007825032070
           H          0.352067120138    -2.227187474539    -0.938565047037     1.007825032070
           C          2.479136120138     0.493009525461    -1.432319047037    12.000000000000
           H          2.659483120138    -1.609968474539    -1.068094047037     1.007825032070
           H          1.950049120138    -0.732698474539     0.255274952963     1.007825032070
           H          2.487238120138     0.445934525461    -2.518025047037     1.007825032070
           H          1.872346120138     1.344526525461    -1.142662047037     1.007825032070
           H          3.494734120138     0.691225525461    -1.103647047037     1.007825032070

  Charge       = 0
  Multiplicity = 1
  Basis Set: 6-31G*
  Basis Set:

    Orbital Energies (a.u.)
    -----------------------

    Doubly Occupied:

       1A    -20.551849     2A    -11.267036     3A    -11.215532
       4A    -11.213597     5A    -11.212930     6A    -11.209898
       7A    -11.207584     8A     -1.358659     9A     -1.088215
      10A     -1.028747    11A     -0.955704    12A     -0.874495
      13A     -0.820009    14A     -0.764606    15A     -0.689787
      16A     -0.661029    17A     -0.627941    18A     -0.616042
      19A     -0.572244    20A     -0.559250    21A     -0.554079
      22A     -0.526534    23A     -0.502729    24A     -0.490750
      25A     -0.477123    26A     -0.456969    27A     -0.448376
      28A     -0.447536    29A     -0.433670

  @DF-RHF Final Energy:  -310.21032230490709

   => Energetics <=

    Nuclear Repulsion Energy =            319.9754246377211757
    One-Electron Energy =               -1054.7056506734031700
    Two-Electron Energy =                 424.5199037307752405
    DFT Exchange-Correlation Energy =       0.0000000000000000
    Empirical Dispersion Energy =           0.0000000000000000
    PCM Polarization Energy =               0.0000000000000000
    EFP Energy =                            0.0000000000000000
    Total Energy =                       -310.2103223049067537

  Mulliken Charges: (a.u.)
   Center  Symbol    Alpha    Beta     Spin     Total
       1     H     0.28119  0.28119  0.00000  0.43762
       2     O     4.37181  4.37181  0.00000 -0.74361
       3     C     2.98881  2.98881  0.00000  0.02239
       4     C     3.16341  3.16341  0.00000 -0.32682
       5     H     0.43302  0.43302  0.00000  0.13396
       6     H     0.43311  0.43311  0.00000  0.13379
       7     C     3.16277  3.16277  0.00000 -0.32553
       8     H     0.41505  0.41505  0.00000  0.16990
       9     H     0.41227  0.41227  0.00000  0.17547
      10     C     3.15251  3.15251  0.00000 -0.30501
      11     H     0.42085  0.42085  0.00000  0.15831
      12     H     0.42246  0.42246  0.00000  0.15508
      13     C     3.15768  3.15768  0.00000 -0.31536
      14     H     0.42216  0.42216  0.00000  0.15567
      15     H     0.42142  0.42142  0.00000  0.15716
      16     C     3.24089  3.24089  0.00000 -0.48179
      17     H     0.42026  0.42026  0.00000  0.15948
      18     H     0.41826  0.41826  0.00000  0.16349
      19     H     0.42231  0.42231  0.00000  0.15538
      20     H     0.42106  0.42106  0.00000  0.15788
      21     H     0.41873  0.41873  0.00000  0.16255

   Total alpha = 29.00000, Total beta = 29.00000, Total charge =  0.00000
