                              Psi4 1.0.54 Driver

  ==> Input File <==

--------------------------------------------------------------------------
set {
	reference rhf
	basis cc-pvtz
}

set_num_threads( 4 )
memory 2 gb

molecule MOL {
0 1

H	 -1.297642	 2.834940	 -2.007599
C	 -0.425917	 2.962781	 -1.351369
C	 -0.643875	 2.550596	 0.079187
O	 0.580822	 3.405377	 -1.784836
C	 -1.216901	 1.136108	 0.207794
H	 0.291943	 2.652143	 0.613292
H	 -1.349499	 3.261841	 0.502895
C	 -0.247837	 0.040196	 -0.230469
H	 -1.500616	 0.973861	 1.241971
H	 -2.134409	 1.065521	 -0.371334
C	 1.181757	 0.280428	 0.247371
H	 -0.259600	 -0.030819	 -1.314870
H	 -0.591284	 -0.923375	 0.136958
C	 2.151032	 -0.811012	 -0.202643
H	 1.515939	 1.247397	 -0.115449
H	 1.191514	 0.341223	 1.333422
C	 3.580021	 -0.656538	 0.320835
H	 2.170545	 -0.847575	 -1.289412
H	 1.766632	 -1.772905	 0.124928
C	 4.327657	 0.562694	 -0.213579
H	 4.138806	 -1.549270	 0.057813
H	 3.561991	 -0.620783	 1.406976
H	 4.355973	 0.557257	 -1.298551
H	 3.867136	 1.491650	 0.100501
H	 5.351524	 0.571613	 0.142204

	symmetry c1
}
set optking {
	frozen_dihedral = ("
		3 5 8 12
	")
}

ee,wfn = optimize('scf', return_wfn=True)
oeprop( wfn, 'DIPOLE', 'QUADRUPOLE', 'MULLIKEN_CHARGES')
f=open( 'psi4out.xyz', 'w' )
f.write( "25  " )
f.write( str(ee) + "\n" )
f.write( MOL.save_string_xyz() )
f.close()
--------------------------------------------------------------------------

    Molecular point group: c1
  Charge       = 0
  Multiplicity = 1
  Basis Set: CC-PVTZ
  Basis Set:
  @DF-RHF Final Energy:  -387.25499269505167
    Total Energy =                       -387.2549926950521240
    Molecular point group: c1
  Basis Set: CC-PVTZ
  Basis Set:
  Basis Set: CC-PVTZ
  Basis Set:
  @DF-RHF Final Energy:  -387.25525004463509
    Total Energy =                       -387.2552500446353179
  Basis Set: CC-PVTZ
  Basis Set:
  Basis Set: CC-PVTZ
  Basis Set:
  @DF-RHF Final Energy:  -387.25718054876626
    Total Energy =                       -387.2571805487664278
  Basis Set: CC-PVTZ
  Basis Set:
  Basis Set: CC-PVTZ
  Basis Set:
  @DF-RHF Final Energy:  -387.25591007548110
    Total Energy =                       -387.2559100754806423
  Basis Set: CC-PVTZ
  Basis Set:
  @DF-RHF Final Energy:  -387.25736912443074
    Total Energy =                       -387.2573691244306247
  @DF-RHF Final Energy:  -387.25742512054239
    Total Energy =                       -387.2574251205422797
  Basis Set: CC-PVTZ
  Basis Set:
  @DF-RHF Final Energy:  -387.25742585041814
    Total Energy =                       -387.2574258504183717
  Basis Set: CC-PVTZ
  Basis Set:
  Basis Set: CC-PVTZ
  Basis Set:
  @DF-RHF Final Energy:  -387.25743172711412
    Total Energy =                       -387.2574317271137261
  Basis Set: CC-PVTZ
  Basis Set:
  Basis Set: CC-PVTZ
  Basis Set:
  @DF-RHF Final Energy:  -387.25743453440424
    Total Energy =                       -387.2574345344044104
  Basis Set: CC-PVTZ
  Basis Set:
  Charge       = 0
  Multiplicity = 1
  Basis Set: CC-PVTZ
  Basis Set:

    Orbital Energies (a.u.)
    -----------------------

    Doubly Occupied:

       1A    -20.552340     2A    -11.321395     3A    -11.233818
       4A    -11.233011     5A    -11.221040     6A    -11.213217
       7A    -11.212308     8A    -11.211658     9A    -11.202610
      10A     -1.406899    11A     -1.103080    12A     -1.066820
      13A     -1.009308    14A     -0.943622    15A     -0.878699
      16A     -0.820056    17A     -0.786464    18A     -0.771307
      19A     -0.670035    20A     -0.658924    21A     -0.637856
      22A     -0.619336    23A     -0.606009    24A     -0.597123
      25A     -0.567092    26A     -0.548734    27A     -0.539608
      28A     -0.522085    29A     -0.514864    30A     -0.499167
      31A     -0.478431    32A     -0.475882    33A     -0.461237
      34A     -0.452572    35A     -0.443177    36A     -0.411312

  @DF-RHF Final Energy:  -387.25743488809934

   => Energetics <=

    Nuclear Repulsion Energy =            455.3188035286217996
    One-Electron Energy =               -1427.3702847174440649
    Two-Electron Energy =                 584.7940463007230392
    DFT Exchange-Correlation Energy =       0.0000000000000000
    Empirical Dispersion Energy =           0.0000000000000000
    PCM Polarization Energy =               0.0000000000000000
    EFP Energy =                            0.0000000000000000
    Total Energy =                       -387.2574348880991693
    Molecular point group: c1
  Basis Set: CC-PVTZ
  Basis Set:

  -Total Gradient:
     Atom            X                  Y                   Z
    ------   -----------------  -----------------  -----------------
       1       -0.000027226775    -0.000010322649    -0.000020944048
       2        0.000018691884     0.000020242502    -0.000002147288
       3        0.001176783906    -0.000255664956     0.003069294420
       4        0.000003169258     0.000010162604     0.000004579316
       5       -0.002406962400    -0.000480012096    -0.004331078053
       6       -0.000001022815     0.000005837016    -0.000002920028
       7        0.000006380586     0.000014303327    -0.000004214980
       8        0.004245482551     0.003900139494     0.001161760227
       9        0.000001914402     0.000005648255    -0.000005947273
      10       -0.000003656003    -0.000001719777    -0.000004840494
      11       -0.000003729015    -0.000003459676    -0.000004355454
      12       -0.003004098195    -0.003214363354     0.000147264199
      13        0.000001149483    -0.000004231725    -0.000001447720
      14       -0.000000790791     0.000001051815    -0.000001306419
      15        0.000003360100     0.000005572588    -0.000002420571
      16       -0.000005125012     0.000005348042    -0.000003598538
      17        0.000003928149    -0.000006029032     0.000007106840
      18        0.000001635434     0.000001396291     0.000004523535
      19       -0.000001363401    -0.000001370190    -0.000002957800
      20       -0.000002291127     0.000007746169    -0.000000290011
      21       -0.000012422106     0.000012210818     0.000003991380
      22        0.000003505407    -0.000001556304    -0.000012994285
      23       -0.000000308597     0.000000414615     0.000005885531
      24        0.000008603869    -0.000012993460    -0.000003947885
      25       -0.000005608797     0.000001649688     0.000001005396

  **** Optimization is complete! (in 10 steps) ****
    Final optimized geometry and variables:
    Molecular point group: c1

    Geometry (in Angstrom), charge = 0, multiplicity = 1:

    H           -2.442117091533     1.811829936862    -1.682123217197
    C           -1.603987832658     1.960717374788    -0.987904075168
    C           -1.854759761005     1.493198328457     0.419507022324
    O           -0.601481334531     2.458263617216    -1.370390165899
    C           -2.259603007125     0.014626689319     0.485982748771
    H           -0.979672282012     1.701381022202     1.017339316941
    H           -2.674651330921     2.092605696840     0.808353434707
    C           -1.202081135689    -0.993396337288     0.015800848133
    H           -2.514094710889    -0.200344308248     1.518522250301
    H           -3.170772064380    -0.136616492879    -0.084766789512
    C            0.214031738376    -0.768552245589     0.539512040380
    H           -1.198972798237    -1.044845531046    -1.070238269450
    H           -1.538121039010    -1.976511145888     0.334616491862
    C            1.159139626436    -1.908760192060     0.163916636493
    H            0.601568857756     0.167154037825     0.157152010473
    H            0.184826112648    -0.673811791855     1.623482375162
    C            2.581992814674    -1.764890327983     0.707006778348
    H            1.198256570604    -1.999044982529    -0.919214014587
    H            0.742506008400    -2.842708757066     0.531201734432
    C            3.377954891299    -0.605596293259     0.112387614900
    H            3.117026376698    -2.689431381175     0.512850369787
    H            2.543694082193    -1.659960608756     1.788265371054
    H            3.432169100116    -0.685130244859    -0.968462025461
    H            2.937835568744     0.355137457591     0.349385028284
    H            4.392666513545    -0.601991853563     0.493883930046

  Mulliken Charges: (a.u.)
   Center  Symbol    Alpha    Beta     Spin     Total
       1     H     0.45988  0.45988  0.00000  0.08023
       2     C     2.90494  2.90494  0.00000  0.19011
       3     C     3.10260  3.10260  0.00000 -0.20520
       4     O     4.16824  4.16824  0.00000 -0.33648
       5     C     3.11829  3.11829  0.00000 -0.23658
       6     H     0.43894  0.43894  0.00000  0.12213
       7     H     0.43454  0.43454  0.00000  0.13093
       8     C     3.10423  3.10423  0.00000 -0.20847
       9     H     0.44271  0.44271  0.00000  0.11459
      10     H     0.44287  0.44287  0.00000  0.11425
      11     C     3.09585  3.09585  0.00000 -0.19171
      12     H     0.44830  0.44830  0.00000  0.10340
      13     H     0.44536  0.44536  0.00000  0.10927
      14     C     3.09643  3.09643  0.00000 -0.19286
      15     H     0.44032  0.44032  0.00000  0.11936
      16     H     0.45415  0.45415  0.00000  0.09171
      17     C     3.09019  3.09019  0.00000 -0.18038
      18     H     0.45292  0.45292  0.00000  0.09415
      19     H     0.44976  0.44976  0.00000  0.10048
      20     C     3.15225  3.15225  0.00000 -0.30451
      21     H     0.44880  0.44880  0.00000  0.10240
      22     H     0.45575  0.45575  0.00000  0.08849
      23     H     0.45393  0.45393  0.00000  0.09215
      24     H     0.45154  0.45154  0.00000  0.09693
      25     H     0.44720  0.44720  0.00000  0.10560

   Total alpha = 36.00000, Total beta = 36.00000, Total charge =  0.00000

*** Psi4 exiting successfully. Buy a developer a beer!
