                              Psi4 1.0.54 Driver

  ==> Input File <==

--------------------------------------------------------------------------
set {
	reference rhf
	basis cc-pvtz
}

set_num_threads( 4 )
memory 2 gb

molecule MOL {
0 1

H	 2.512245	 1.434568	 -1.287424
N	 1.703452	 0.851029	 -1.317832
C	 1.263552	 0.494993	 0.021953
H	 1.947613	 0.036191	 -1.841054
C	 -0.016533	 -0.325589	 -0.026925
H	 1.077620	 1.415487	 0.565197
H	 2.019828	 -0.053397	 0.585246
C	 -1.280353	 0.525521	 0.047747
H	 -0.016686	 -0.912532	 -0.939714
H	 -0.014099	 -1.037598	 0.796369
C	 -2.560681	 -0.301323	 -0.007747
H	 -1.279957	 1.241025	 -0.770189
H	 -1.270445	 1.110526	 0.963468
H	 -2.617064	 -0.872870	 -0.928010
H	 -3.439525	 0.331102	 0.043462
H	 -2.609427	 -1.002736	 0.818585

	symmetry c1
}
set optking {
	frozen_dihedral = ("
		6 3 5 9
	")
}

ee,wfn = optimize('scf', return_wfn=True)
oeprop( wfn, 'DIPOLE', 'QUADRUPOLE', 'MULLIKEN_CHARGES')
f=open( 'psi4out.xyz', 'w' )
f.write( "16  " )
f.write( str(ee) + "\n" )
f.write( MOL.save_string_xyz() )
f.close()
--------------------------------------------------------------------------

    Molecular point group: c1
  Charge       = 0
  Multiplicity = 1
  Basis Set: CC-PVTZ
  Basis Set:
  @DF-RHF Final Energy:  -212.39703646220332
    Total Energy =                       -212.3970364622032889
    Molecular point group: c1
  Basis Set: CC-PVTZ
  Basis Set:
  Basis Set: CC-PVTZ
  Basis Set:
  @DF-RHF Final Energy:  -212.39752423173459
    Total Energy =                       -212.3975242317345646
  Basis Set: CC-PVTZ
  Basis Set:
  Basis Set: CC-PVTZ
  Basis Set:
  @DF-RHF Final Energy:  -212.39761250521443
    Total Energy =                       -212.3976125052143971
  Basis Set: CC-PVTZ
  Basis Set:
  Basis Set: CC-PVTZ
  Basis Set:
  @DF-RHF Final Energy:  -212.39761626527181
    Total Energy =                       -212.3976162652717221
  Basis Set: CC-PVTZ
  Basis Set:
  Charge       = 0
  Multiplicity = 1
  Basis Set: CC-PVTZ
  Basis Set:

    Orbital Energies (a.u.)
    -----------------------

    Doubly Occupied:

       1A    -15.527127     2A    -11.238655     3A    -11.208084
       4A    -11.206276     5A    -11.202029     6A     -1.178184
       7A     -1.055594     8A     -0.957409     9A     -0.845149
      10A     -0.787823    11A     -0.663562    12A     -0.639137
      13A     -0.600856    14A     -0.575708    15A     -0.566214
      16A     -0.515677    17A     -0.503219    18A     -0.468656
      19A     -0.462424    20A     -0.461333    21A     -0.382455

  @DF-RHF Final Energy:  -212.39761654357972

   => Energetics <=

    Nuclear Repulsion Energy =            188.3547766741685336
    One-Electron Energy =                -659.4136424708133291
    Two-Electron Energy =                 258.6612492530651366
    DFT Exchange-Correlation Energy =       0.0000000000000000
    Empirical Dispersion Energy =           0.0000000000000000
    PCM Polarization Energy =               0.0000000000000000
    EFP Energy =                            0.0000000000000000
    Total Energy =                       -212.3976165435796588
    Molecular point group: c1
  Basis Set: CC-PVTZ
  Basis Set:

  -Total Gradient:
     Atom            X                  Y                   Z
    ------   -----------------  -----------------  -----------------
       1       -0.000006466150    -0.000012442065    -0.000007428814
       2        0.000031808907    -0.000004215988    -0.000004322668
       3        0.000878276818    -0.001521897836     0.004029949984
       4       -0.000001230283     0.000010837810     0.000005854977
       5        0.002087248486    -0.003389390080     0.001684679049
       6       -0.001072392503     0.001800445841    -0.003627795669
       7       -0.000013308143     0.000002282220    -0.000020555802
       8       -0.000008531890     0.000026962391     0.000007375532
       9       -0.001889762584     0.003091147302    -0.002063598523
      10        0.000007147839     0.000011494252    -0.000001623388
      11       -0.000009726019    -0.000002489668    -0.000013709792
      12        0.000001268415    -0.000000164505     0.000007036756
      13        0.000006131405    -0.000008845162     0.000002595308
      14       -0.000002312793    -0.000007984236     0.000006253505
      15       -0.000007659442    -0.000002679928    -0.000003605877
      16       -0.000000492067     0.000006939652    -0.000001104578

  **** Optimization is complete! (in 5 steps) ****
    Final optimized geometry and variables:
    Molecular point group: c1

    Geometry (in Angstrom), charge = 0, multiplicity = 1:

    H            2.607709885264     1.202426590736    -1.009853684672
    N            1.835045947831     0.571057239412    -1.016704610910
    C            1.429091730902     0.220710116571     0.339204219054
    H            2.120866993122    -0.240083140262    -1.524044433064
    C            0.130419047375    -0.588200597141     0.316691712921
    H            1.260061675561     1.157761635982     0.857882813143
    H            2.200436288540    -0.322761919791     0.881703381179
    C           -1.120123321606     0.289451530827     0.299806133821
    H            0.119937305471    -1.199349558984    -0.581792720699
    H            0.093109452012    -1.259658397983     1.168884996529
    C           -2.410957998706    -0.509599734149     0.158731537107
    H           -1.037944414825     0.998291251568    -0.517204848194
    H           -1.157674839978     0.873814116675     1.215458436000
    H           -2.423396406407    -1.071941917171    -0.769117704139
    H           -3.278084328212     0.141019328910     0.161434800984
    H           -2.526640086368    -1.217074160338     0.973728957225

  Mulliken Charges: (a.u.)
   Center  Symbol    Alpha    Beta     Spin     Total
       1     H     0.42865  0.42865  0.00000  0.14269
       2     N     3.69347  3.69347  0.00000 -0.38694
       3     C     3.03545  3.03545  0.00000 -0.07090
       4     H     0.43073  0.43073  0.00000  0.13854
       5     C     3.08156  3.08156  0.00000 -0.16311
       6     H     0.45832  0.45832  0.00000  0.08336
       7     H     0.45874  0.45874  0.00000  0.08252
       8     C     3.08270  3.08270  0.00000 -0.16539
       9     H     0.46073  0.46073  0.00000  0.07854
      10     H     0.45157  0.45157  0.00000  0.09686
      11     C     3.15084  3.15084  0.00000 -0.30169
      12     H     0.44837  0.44837  0.00000  0.10325
      13     H     0.45759  0.45759  0.00000  0.08483
      14     H     0.45508  0.45508  0.00000  0.08985
      15     H     0.44913  0.44913  0.00000  0.10174
      16     H     0.45707  0.45707  0.00000  0.08586

   Total alpha = 21.00000, Total beta = 21.00000, Total charge = -0.00000

*** Psi4 exiting successfully. Buy a developer a beer!
