                              Psi4 1.0.54 Driver

  ==> Input File <==

--------------------------------------------------------------------------
set {
	reference rhf
	basis cc-pvtz
}

set_num_threads( 4 )
memory 2 gb

molecule MOL {
0 1

H	 -2.249742	 -0.523525	 -0.688013
O	 -2.041679	 -0.058866	 0.103463
C	 -0.959304	 0.780994	 -0.094939
C	 0.354905	 0.037902	 -0.006215
H	 -0.985899	 1.279578	 -1.057596
H	 -0.969809	 1.529522	 0.682889
F	 0.412060	 -0.931028	 -0.902708
F	 1.359641	 0.856111	 -0.239961
F	 0.545380	 -0.506387	 1.171682

	symmetry c1
}
set optking {
	frozen_dihedral = ("
		1 2 3 5
	")
}

ee,wfn = optimize('scf', return_wfn=True)
oeprop( wfn, 'DIPOLE', 'QUADRUPOLE', 'MULLIKEN_CHARGES')
f=open( 'psi4out.xyz', 'w' )
f.write( "9  " )
f.write( str(ee) + "\n" )
f.write( MOL.save_string_xyz() )
f.close()
--------------------------------------------------------------------------

    Molecular point group: c1
  Charge       = 0
  Multiplicity = 1
  Basis Set: CC-PVTZ
  Basis Set:
  @DF-RHF Final Energy:  -450.84697094731791
    Total Energy =                       -450.8469709473180274
    Molecular point group: c1
  Basis Set: CC-PVTZ
  Basis Set:
  Basis Set: CC-PVTZ
  Basis Set:
  @DF-RHF Final Energy:  -450.84699988196161
    Total Energy =                       -450.8469998819615512
  Basis Set: CC-PVTZ
  Basis Set:
  Basis Set: CC-PVTZ
  Basis Set:
  @DF-RHF Final Energy:  -450.84700616737371
    Total Energy =                       -450.8470061673737064
  Basis Set: CC-PVTZ
  Basis Set:
  Charge       = 0
  Multiplicity = 1
  Basis Set: CC-PVTZ
  Basis Set:

    Orbital Energies (a.u.)
    -----------------------

    Doubly Occupied:

       1A    -26.337626     2A    -26.337175     3A    -26.333750
       4A    -20.583893     5A    -11.491567     6A    -11.310266
       7A     -1.745712     8A     -1.642712     9A     -1.640888
      10A     -1.407378    11A     -1.050028    12A     -0.928226
      13A     -0.836081    14A     -0.834434    15A     -0.806878
      16A     -0.735247    17A     -0.716892    18A     -0.704646
      19A     -0.670350    20A     -0.663543    21A     -0.647251
      22A     -0.633771    23A     -0.613480    24A     -0.536038
      25A     -0.484323

  @DF-RHF Final Energy:  -450.84700655832904

   => Energetics <=

    Nuclear Repulsion Energy =            277.5929489691249614
    One-Electron Energy =               -1177.4956031775748215
    Two-Electron Energy =                 449.0556476501208749
    DFT Exchange-Correlation Energy =       0.0000000000000000
    Empirical Dispersion Energy =           0.0000000000000000
    PCM Polarization Energy =               0.0000000000000000
    EFP Energy =                            0.0000000000000000
    Total Energy =                       -450.8470065583289283
    Molecular point group: c1
  Basis Set: CC-PVTZ
  Basis Set:

  -Total Gradient:
     Atom            X                  Y                   Z
    ------   -----------------  -----------------  -----------------
       1       -0.000804938327     0.000959834966    -0.000349030482
       2        0.001214232001    -0.001423001910     0.000289582019
       3       -0.001009331048     0.001355993683     0.000534567718
       4        0.000104653766     0.000052324630     0.000006760348
       5        0.000594937529    -0.000877199610    -0.000455826012
       6       -0.000011849552     0.000002951624    -0.000001724097
       7       -0.000023478826    -0.000079168285    -0.000107653589
       8       -0.000062153894    -0.000027876812     0.000044457397
       9       -0.000002071648     0.000036141713     0.000038866701

  **** Optimization is complete! (in 4 steps) ****
    Final optimized geometry and variables:
    Molecular point group: c1

    Geometry (in Angstrom), charge = 0, multiplicity = 1:

    H           -2.235958448232    -0.540080386051    -0.685800530718
    O           -2.036874787512    -0.068121118619     0.102651924784
    C           -0.959968928683     0.779874909817    -0.093963485236
    C            0.354653186212     0.036318857358    -0.005797884526
    H           -0.982765774402     1.271990261232    -1.059494697499
    H           -0.969708793491     1.530226838421     0.682336388095
    F            0.424722075199    -0.916255990335    -0.916882756526
    F            1.359376416606     0.862572523322    -0.215956703528
    F            0.535287740075    -0.524500478575     1.165816136274

  Mulliken Charges: (a.u.)
   Center  Symbol    Alpha    Beta     Spin     Total
       1     H     0.38627  0.38627  0.00000  0.22746
       2     O     4.19228  4.19228  0.00000 -0.38457
       3     C     2.99354  2.99354  0.00000  0.01292
       4     C     2.68198  2.68198  0.00000  0.63604
       5     H     0.46113  0.46113  0.00000  0.07775
       6     H     0.44729  0.44729  0.00000  0.10542
       7     F     4.61659  4.61659  0.00000 -0.23318
       8     F     4.61324  4.61324  0.00000 -0.22648
       9     F     4.60768  4.60768  0.00000 -0.21536

   Total alpha = 25.00000, Total beta = 25.00000, Total charge =  0.00000

*** Psi4 exiting successfully. Buy a developer a beer!
