  ==> Input File <==

--------------------------------------------------------------------------
set {
	reference rhf
	basis 6-31G*
}

set_num_threads( 4 )
memory 2 gb

molecule MOL {
0 1

H	 -1.836216	 1.387520	 -0.000064
C	 -1.301823	 0.443321	 -0.000031
O	 -0.003969	 0.658512	 0.000451
O	 -1.829879	 -0.616434	 -0.000857
C	 0.606854	 0.982160	 1.249184
C	 2.085193	 1.180769	 0.993470
H	 0.424398	 0.175557	 1.945904
H	 0.143355	 1.876167	 1.643157
H	 2.530942	 0.278032	 0.591716
H	 2.589116	 1.429138	 1.921698
H	 2.248708	 1.986851	 0.287508

	symmetry c1
}
set optking {
	frozen_dihedral = ("
		5 3 2 4
	")
}

ee = optimize('scf')
oeprop('DIPOLE', 'QUADRUPOLE', 'MULLIKEN_CHARGES')
f=open( 'psi4out.xyz', 'w' )
f.write( "11  " )
f.write( str(ee) + "\n" )
f.write( MOL.save_string_xyz() )
f.close()
--------------------------------------------------------------------------

    Molecular point group: c1
  Charge       = 0
  Multiplicity = 1
  Basis Set: 6-31G*
  Basis Set:
  @DF-RHF Final Energy:  -266.80822768392420
    Total Energy =                       -266.8082276839242581
    Molecular point group: c1
  Basis Set: 6-31G*
  Basis Set:
  Basis Set: 6-31G*
  Basis Set:
  @DF-RHF Final Energy:  -266.80924391289545
    Total Energy =                       -266.8092439128953970
  Basis Set: 6-31G*
  Basis Set:
  Basis Set: 6-31G*
  Basis Set:
  @DF-RHF Final Energy:  -266.80800622203890
    Total Energy =                       -266.8080062220388413
  Basis Set: 6-31G*
  Basis Set:
  Basis Set: 6-31G*
  Basis Set:
  @DF-RHF Final Energy:  -266.80949666973754
    Total Energy =                       -266.8094966697378823
  Basis Set: 6-31G*
  Basis Set:
  Basis Set: 6-31G*
  Basis Set:
  @DF-RHF Final Energy:  -266.80951618408062
    Total Energy =                       -266.8095161840806782
  Basis Set: 6-31G*
  Basis Set:
  Basis Set: 6-31G*
  Basis Set:
  @DF-RHF Final Energy:  -266.80951745201162
    Total Energy =                       -266.8095174520117325
  Basis Set: 6-31G*
  Basis Set:
  Charge       = 0
  Multiplicity = 1
  Basis Set: 6-31G*
  Basis Set:

    Orbital Energies (a.u.)
    -----------------------

    Doubly Occupied:

       1A    -20.593784     2A    -20.571393     3A    -11.381441
       4A    -11.303171     5A    -11.229640     6A     -1.467195
       7A     -1.380059     8A     -1.049653     9A     -0.886710
      10A     -0.832035    11A     -0.740757    12A     -0.689848
      13A     -0.648859    14A     -0.637185    15A     -0.564527
      16A     -0.542370    17A     -0.535811    18A     -0.503805
      19A     -0.465298    20A     -0.453844

  @DF-RHF Final Energy:  -266.80951737809676

   => Energetics <=

    Nuclear Repulsion Energy =            176.8562220562245955
    One-Electron Energy =                -714.3767093701160320
    Two-Electron Energy =                 270.7109699357945374
    DFT Exchange-Correlation Energy =       0.0000000000000000
    Empirical Dispersion Energy =           0.0000000000000000
    PCM Polarization Energy =               0.0000000000000000
    EFP Energy =                            0.0000000000000000
    Total Energy =                       -266.8095173780968707
    Molecular point group: c1
  Basis Set: 6-31G*
  Basis Set:

  -Total Gradient:
     Atom            X                  Y                   Z
    ------   -----------------  -----------------  -----------------
       1       -0.000032280203     0.000000933831    -0.000007375546
       2        0.000019389585    -0.000806749930    -0.002587985817
       3       -0.000178308017     0.002049406729     0.000511364735
       4        0.000015764721     0.000113262750     0.001833550189
       5        0.000184413479    -0.001376216134     0.000233497879
       6        0.000005609321     0.000011184195     0.000013524581
       7       -0.000026207337     0.000002280374    -0.000009466721
       8        0.000008634494     0.000013244078     0.000013592992
       9       -0.000001108513    -0.000001204070    -0.000000338848
      10        0.000004259436    -0.000005819045     0.000000379311
      11       -0.000000166965    -0.000000322778    -0.000000742755

  **** Optimization is complete! (in 7 steps) ****
    Final optimized geometry and variables:
    Molecular point group: c1

    Geometry (in Angstrom), charge = 0, multiplicity = 1:

    H           -1.779812611547     0.866758025930    -0.487384500253
    C           -1.226717581667    -0.070862857361    -0.452849188502
    O            0.101941419298     0.101862980921    -0.463876678236
    O           -1.756954310441    -1.120833747532    -0.420801512684
    C            0.699524310885     0.437834504358     0.782418714179
    C            2.177395162879     0.658076449709     0.544389493402
    H            0.530220268860    -0.372669112487     1.481480199898
    H            0.232520482318     1.335432711945     1.179659958740
    H            2.630942289319    -0.239033046716     0.140725705690
    H            2.671086541198     0.907670388269     1.477831644437
    H            2.332627402826     1.468574468012    -0.157908440207

  Mulliken Charges: (a.u.)
   Center  Symbol    Alpha    Beta     Spin     Total
       1     H     0.42556  0.42556  0.00000  0.14888
       2     C     2.73215  2.73215  0.00000  0.53570
       3     O     4.30124  4.30124  0.00000 -0.60248
       4     O     4.22594  4.22594  0.00000 -0.45187
       5     C     3.00547  3.00547  0.00000 -0.01094
       6     C     3.24666  3.24666  0.00000 -0.49332
       7     H     0.41024  0.41024  0.00000  0.17953
       8     H     0.42192  0.42192  0.00000  0.15616
       9     H     0.40529  0.40529  0.00000  0.18942
      10     H     0.41605  0.41605  0.00000  0.16789
      11     H     0.40949  0.40949  0.00000  0.18103

   Total alpha = 20.00000, Total beta = 20.00000, Total charge = -0.00000
