                              Psi4 1.0.54 Driver

  ==> Input File <==

--------------------------------------------------------------------------
set {
	reference rhf
	basis cc-pvtz
}

set_num_threads( 4 )
memory 2 gb

molecule MOL {
0 1

H	 -2.644180	 -0.653737	 1.272255
C	 -2.092774	 -0.380414	 0.391915
O	 -0.808934	 -0.154049	 0.752536
F	 -2.163230	 -1.351640	 -0.507133
F	 -2.627232	 0.691260	 -0.169301
C	 0.085006	 0.250800	 -0.215074
C	 1.370439	 -0.548013	 -0.012993
Cl	 0.421658	 1.987697	 -0.091007
H	 -0.272219	 0.063284	 -1.212508
F	 1.553214	 -1.380827	 -1.005987
F	 1.267534	 -1.250738	 1.090141
F	 2.419999	 0.220446	 0.087729

	symmetry c1
}
set optking {
	frozen_dihedral = ("
		10 7 6 9
	")
}

ee,wfn = optimize('scf', return_wfn=True)
oeprop( wfn, 'DIPOLE', 'QUADRUPOLE', 'MULLIKEN_CHARGES')
f=open( 'psi4out.xyz', 'w' )
f.write( "12  " )
f.write( str(ee) + "\n" )
f.write( MOL.save_string_xyz() )
f.close()
--------------------------------------------------------------------------

    Molecular point group: c1
  Charge       = 0
  Multiplicity = 1
  Basis Set: CC-PVTZ
  Basis Set:
  @DF-RHF Final Energy: -1146.60873065111559
    Total Energy =                      -1146.6087306511153656
    Molecular point group: c1
  Basis Set: CC-PVTZ
  Basis Set:
  Basis Set: CC-PVTZ
  Basis Set:
  @DF-RHF Final Energy: -1146.60875728038491
    Total Energy =                      -1146.6087572803837702
  Basis Set: CC-PVTZ
  Basis Set:
  Basis Set: CC-PVTZ
  Basis Set:
  @DF-RHF Final Energy: -1146.61125622437794
    Total Energy =                      -1146.6112562243779394
  Basis Set: CC-PVTZ
  Basis Set:
  Basis Set: CC-PVTZ
  Basis Set:
  @DF-RHF Final Energy: -1146.61139145022548
    Total Energy =                      -1146.6113914502252555
  Basis Set: CC-PVTZ
  Basis Set:
  Basis Set: CC-PVTZ
  Basis Set:
  @DF-RHF Final Energy: -1146.61140489633476
    Total Energy =                      -1146.6114048963347614
  Basis Set: CC-PVTZ
  Basis Set:
  Basis Set: CC-PVTZ
  Basis Set:
  @DF-RHF Final Energy: -1146.61140675883917
    Total Energy =                      -1146.6114067588400758
  Basis Set: CC-PVTZ
  Basis Set:
  Charge       = 0
  Multiplicity = 1
  Basis Set: CC-PVTZ
  Basis Set:

    Orbital Energies (a.u.)
    -----------------------

    Doubly Occupied:

       1A   -104.855894     2A    -26.353880     3A    -26.353224
       4A    -26.352543     5A    -26.342978     6A    -26.342714
       7A    -20.638904     8A    -11.522667     9A    -11.483197
      10A    -11.402170    11A    -10.581507    12A     -8.048292
      13A     -8.046307    14A     -8.046231    15A     -1.768529
      16A     -1.724187    17A     -1.662722    18A     -1.660128
      19A     -1.644331    20A     -1.485611    21A     -1.175312
      22A     -1.049511    23A     -0.990342    24A     -0.923871
      25A     -0.862217    26A     -0.858100    27A     -0.851819
      28A     -0.830685    29A     -0.818695    30A     -0.795822
      31A     -0.732114    32A     -0.731102    33A     -0.711086
      34A     -0.708281    35A     -0.684075    36A     -0.680606
      37A     -0.665303    38A     -0.662642    39A     -0.650305
      40A     -0.634824    41A     -0.597853    42A     -0.579733
      43A     -0.523899    44A     -0.476646    45A     -0.469214

  @DF-RHF Final Energy: -1146.61140716716864

   => Energetics <=

    Nuclear Repulsion Energy =            735.5124770545182855
    One-Electron Energy =               -3054.2876171737698314
    Two-Electron Energy =                1172.1637329520838193
    DFT Exchange-Correlation Energy =       0.0000000000000000
    Empirical Dispersion Energy =           0.0000000000000000
    PCM Polarization Energy =               0.0000000000000000
    EFP Energy =                            0.0000000000000000
    Total Energy =                      -1146.6114071671679540
    Molecular point group: c1
  Basis Set: CC-PVTZ
  Basis Set:

  -Total Gradient:
     Atom            X                  Y                   Z
    ------   -----------------  -----------------  -----------------
       1        0.000003962560    -0.000001077980     0.000003324324
       2       -0.000079881973     0.000003637065     0.000020466414
       3        0.000045565017    -0.000021886374    -0.000026161712
       4        0.000015770866     0.000045946444     0.000004033332
       5        0.000063392106    -0.000037892790    -0.000000723497
       6        0.002816981111     0.003711844677    -0.001450751303
       7       -0.002439843052    -0.003059567283     0.001831316470
       8       -0.000009124237     0.000026105414    -0.000002030759
       9       -0.002009394610    -0.002652565128     0.000912754234
      10        0.001592669441     0.001947868630    -0.001282871542
      11        0.000026290062     0.000035599694    -0.000032348755
      12       -0.000026387259     0.000001987705     0.000022992791

  **** Optimization is complete! (in 7 steps) ****
    Final optimized geometry and variables:
    Molecular point group: c1

    Geometry (in Angstrom), charge = 0, multiplicity = 1:

    H           -2.778696534939    -0.619128260531     0.994509999918
    C           -2.128865673812    -0.336708123184     0.187158169304
    O           -0.892205045967    -0.133713828043     0.692518563653
    F           -2.106985813334    -1.292947431616    -0.732173673137
    F           -2.588753295217     0.749161312848    -0.412100798303
    C            0.105415052690     0.287980674356    -0.164189395806
    C            1.365206225186    -0.592727258402     0.077609363861
    CL           0.432527997071     2.011567740213     0.073347514931
    H           -0.186294444762     0.149303778162    -1.188818132248
    F            1.527577873247    -1.372514036168    -0.970846978649
    F            1.236559257197    -1.348661044876     1.131642354688
    F            2.459691654125     0.105089465549     0.212216236193

  Mulliken Charges: (a.u.)
   Center  Symbol    Alpha    Beta     Spin     Total
       1     H     0.45190  0.45190  0.00000  0.09620
       2     C     2.73903  2.73903  0.00000  0.52193
       3     O     4.15072  4.15072  0.00000 -0.30144
       4     F     4.61897  4.61897  0.00000 -0.23794
       5     F     4.61537  4.61537  0.00000 -0.23075
       6     C     2.96261  2.96261  0.00000  0.07478
       7     C     2.66212  2.66212  0.00000  0.67576
       8    CL     8.56747  8.56747  0.00000 -0.13494
       9     H     0.43157  0.43157  0.00000  0.13687
      10     F     4.60716  4.60716  0.00000 -0.21433
      11     F     4.59654  4.59654  0.00000 -0.19307
      12     F     4.59654  4.59654  0.00000 -0.19307

   Total alpha = 45.00000, Total beta = 45.00000, Total charge =  0.00000

*** Psi4 exiting successfully. Buy a developer a beer!
