                              Psi4 1.0.54 Driver

  ==> Input File <==

--------------------------------------------------------------------------
set {
	reference rhf
	basis cc-pvtz
}

set_num_threads( 4 )
memory 2 gb

molecule MOL {
0 1

O	 -0.694481	 1.313155	 -0.204815
C	 -0.862519	 0.151932	 -0.046791
C	 -2.171428	 -0.477048	 0.339095
O	 0.085519	 -0.757083	 -0.192238
H	 -2.467997	 -1.191667	 -0.417688
H	 -2.923379	 0.287970	 0.444097
H	 -2.053854	 -1.015120	 1.270901
C	 1.137784	 -0.807981	 0.764124
C	 0.756056	 -1.636524	 1.973132
H	 1.406736	 0.196755	 1.050456
H	 1.965797	 -1.256802	 0.236199
H	 1.602751	 -1.707835	 2.646536
H	 -0.066575	 -1.182722	 2.508598
H	 0.472081	 -2.638830	 1.675920

	symmetry c1
}
set optking {
	frozen_dihedral = ("
		8 4 2 1
	")
}

ee,wfn = optimize('scf', return_wfn=True)
oeprop( wfn, 'DIPOLE', 'QUADRUPOLE', 'MULLIKEN_CHARGES')
f=open( 'psi4out.xyz', 'w' )
f.write( "14  " )
f.write( str(ee) + "\n" )
f.write( MOL.save_string_xyz() )
f.close()
--------------------------------------------------------------------------

    Molecular point group: c1
  Charge       = 0
  Multiplicity = 1
  Basis Set: CC-PVTZ
  Basis Set:
  @DF-RHF Final Energy:  -305.97278026602248
    Total Energy =                       -305.9727802660225393
    Molecular point group: c1
  Basis Set: CC-PVTZ
  Basis Set:
  Basis Set: CC-PVTZ
  Basis Set:
  @DF-RHF Final Energy:  -305.96891968516599
    Total Energy =                       -305.9689196851659290
  Basis Set: CC-PVTZ
  Basis Set:
  Basis Set: CC-PVTZ
  Basis Set:
  @DF-RHF Final Energy:  -305.97370172379635
    Total Energy =                       -305.9737017237962959
  Basis Set: CC-PVTZ
  Basis Set:
  Basis Set: CC-PVTZ
  Basis Set:
  @DF-RHF Final Energy:  -305.97459063108340
    Total Energy =                       -305.9745906310832879
  Basis Set: CC-PVTZ
  Basis Set:
  Basis Set: CC-PVTZ
  Basis Set:
  @DF-RHF Final Energy:  -305.97470446665017
    Total Energy =                       -305.9747044666503371
  Basis Set: CC-PVTZ
  Basis Set:
  Basis Set: CC-PVTZ
  Basis Set:
  @DF-RHF Final Energy:  -305.97471790030750
    Total Energy =                       -305.9747179003074962
  Basis Set: CC-PVTZ
  Basis Set:
  Basis Set: CC-PVTZ
  Basis Set:
  @DF-RHF Final Energy:  -305.97471929820824
    Total Energy =                       -305.9747192982083561
  Basis Set: CC-PVTZ
  Basis Set:
  Charge       = 0
  Multiplicity = 1
  Basis Set: CC-PVTZ
  Basis Set:

    Orbital Energies (a.u.)
    -----------------------

    Doubly Occupied:

       1A    -20.577837     2A    -20.542745     3A    -11.369561
       4A    -11.291004     5A    -11.233920     6A    -11.227882
       7A     -1.461327     8A     -1.367578     9A     -1.050435
      10A     -1.010045    11A     -0.886191    12A     -0.764972
      13A     -0.698018    14A     -0.683197    15A     -0.669326
      16A     -0.616800    17A     -0.593242    18A     -0.573995
      19A     -0.559709    20A     -0.551424    21A     -0.512020
      22A     -0.494967    23A     -0.453304    24A     -0.441439

  @DF-RHF Final Energy:  -305.97471920597116

   => Energetics <=

    Nuclear Repulsion Energy =            248.7755663550435656
    One-Electron Energy =                -910.2386979538961214
    Two-Electron Energy =                 355.4884123928814006
    DFT Exchange-Correlation Energy =       0.0000000000000000
    Empirical Dispersion Energy =           0.0000000000000000
    PCM Polarization Energy =               0.0000000000000000
    EFP Energy =                            0.0000000000000000
    Total Energy =                       -305.9747192059711551
    Molecular point group: c1
  Basis Set: CC-PVTZ
  Basis Set:

  -Total Gradient:
     Atom            X                  Y                   Z
    ------   -----------------  -----------------  -----------------
       1       -0.001444774758     0.000739561709    -0.008938937384
       2        0.000229105961    -0.003958237432     0.014464722223
       3       -0.000039946935     0.000061505357    -0.000035229864
       4        0.004979357255     0.008702178096    -0.008054837844
       5        0.000004022588     0.000005649549     0.000012053762
       6       -0.000024809351    -0.000009927471     0.000006455623
       7        0.000008065224     0.000015317597     0.000012977530
       8       -0.003641296765    -0.005544512833     0.002539756419
       9       -0.000083517296    -0.000008521783    -0.000046200588
      10        0.000003766522     0.000001678371     0.000020173367
      11        0.000017034474    -0.000002190597     0.000015367357
      12        0.000000200891     0.000009844827    -0.000010898451
      13       -0.000004676443    -0.000004369575     0.000008618428
      14       -0.000002531369    -0.000007975818     0.000005979423

  **** Optimization is complete! (in 8 steps) ****
    Final optimized geometry and variables:
    Molecular point group: c1

    Geometry (in Angstrom), charge = 0, multiplicity = 1:

    O           -0.455056636122     1.711221175701    -0.353926987998
    C           -0.565010596706     0.541253605113    -0.435803122455
    C           -1.879704468634    -0.185490082882    -0.455819082379
    O            0.487277772895    -0.265367460952    -0.658735326769
    H           -1.969906883011    -0.718224847866    -1.394217556845
    H           -2.692301874468     0.514413877998    -0.345563614574
    H           -1.908820517119    -0.921613837924     0.337345211931
    C            1.447008049419    -0.430022957906     0.374277434832
    C            0.955593387370    -1.337381132652     1.484679274788
    H            1.725424293151     0.542949528612     0.758180036734
    H            2.310315162124    -0.859319001020    -0.110473512428
    H            1.754492009202    -1.496671252123     2.199707182290
    H            0.119161676456    -0.900927991895     2.018267370404
    H            0.651703071174    -2.299191748998     1.090554460475

  Mulliken Charges: (a.u.)
   Center  Symbol    Alpha    Beta     Spin     Total
       1     O     4.17538  4.17538  0.00000 -0.35076
       2     C     2.80342  2.80342  0.00000  0.39317
       3     C     3.13845  3.13845  0.00000 -0.27690
       4     O     4.17463  4.17463  0.00000 -0.34927
       5     H     0.44314  0.44314  0.00000  0.11373
       6     H     0.43720  0.43720  0.00000  0.12561
       7     H     0.44989  0.44989  0.00000  0.10021
       8     C     2.98372  2.98372  0.00000  0.03256
       9     C     3.15328  3.15328  0.00000 -0.30655
      10     H     0.44953  0.44953  0.00000  0.10095
      11     H     0.44601  0.44601  0.00000  0.10798
      12     H     0.44422  0.44422  0.00000  0.11156
      13     H     0.45329  0.45329  0.00000  0.09343
      14     H     0.44786  0.44786  0.00000  0.10429

   Total alpha = 24.00000, Total beta = 24.00000, Total charge =  0.00000

*** Psi4 exiting successfully. Buy a developer a beer!
