  ==> Input File <==

--------------------------------------------------------------------------
set {
	reference rhf
	basis 6-31G*
}

set_num_threads( 4 )
memory 2 gb

molecule MOL {
0 1

O	 3.817993	 -0.118022	 2.258548
C	 3.017400	 -0.524514	 1.479526
C	 1.520454	 -0.523686	 1.674309
O	 3.347903	 -1.046386	 0.304773
C	 1.089558	 0.079929	 3.009260
H	 1.090026	 0.005636	 0.830662
H	 1.182239	 -1.552745	 1.582955
C	 -0.418445	 -0.007051	 3.267830
H	 1.411426	 1.115996	 3.054924
H	 1.616785	 -0.432560	 3.806636
C	 -1.284715	 0.829748	 2.322074
H	 -0.604437	 0.318522	 4.288679
H	 -0.734836	 -1.048075	 3.221197
C	 -2.769654	 0.796307	 2.689275
H	 -0.934497	 1.860774	 2.334377
H	 -1.168148	 0.479711	 1.298913
C	 -3.645641	 1.624848	 1.747842
H	 -2.896505	 1.158078	 3.708228
H	 -3.117860	 -0.235414	 2.687626
C	 -5.126572	 1.589259	 2.123712
H	 -3.298429	 2.655909	 1.747517
H	 -3.523527	 1.261910	 0.729439
H	 -5.721201	 2.185386	 1.438397
H	 -5.286326	 1.978980	 3.125106
H	 -5.512897	 0.574147	 2.099752
C	 4.728119	 -1.109107	 -0.004993
H	 4.882018	 -1.033965	 -1.071845
H	 5.068212	 -2.067527	 0.355250
H	 5.265056	 -0.311663	 0.488280

	symmetry c1
}
set optking {
	frozen_dihedral = ("
		2 4 26 27
	")
}

ee = optimize('scf')
oeprop('DIPOLE', 'QUADRUPOLE', 'MULLIKEN_CHARGES')
f=open( 'psi4out.xyz', 'w' )
f.write( "29  " )
f.write( str(ee) + "\n" )
f.write( MOL.save_string_xyz() )
f.close()
--------------------------------------------------------------------------

    Molecular point group: c1
  Charge       = 0
  Multiplicity = 1
  Basis Set: 6-31G*
  Basis Set:
  @DF-RHF Final Energy:  -501.04156928658699
    Total Energy =                       -501.0415692865866504
    Molecular point group: c1
  Basis Set: 6-31G*
  Basis Set:
  Basis Set: 6-31G*
  Basis Set:
  @DF-RHF Final Energy:  -501.04254954835733
    Total Energy =                       -501.0425495483571012
  Basis Set: 6-31G*
  Basis Set:
  Basis Set: 6-31G*
  Basis Set:
  @DF-RHF Final Energy:  -501.04273308918607
    Total Energy =                       -501.0427330891860720
  Basis Set: 6-31G*
  Basis Set:
  Basis Set: 6-31G*
  Basis Set:
  @DF-RHF Final Energy:  -501.04287302689579
    Total Energy =                       -501.0428730268953359
  Basis Set: 6-31G*
  Basis Set:
  Basis Set: 6-31G*
  Basis Set:
  @DF-RHF Final Energy:  -501.04292624842321
    Total Energy =                       -501.0429262484232140
  Basis Set: 6-31G*
  Basis Set:
  Basis Set: 6-31G*
  Basis Set:
  @DF-RHF Final Energy:  -501.04293423831541
    Total Energy =                       -501.0429342383149560
  Basis Set: 6-31G*
  Basis Set:
  Charge       = 0
  Multiplicity = 1
  Basis Set: 6-31G*
  Basis Set:

    Orbital Energies (a.u.)
    -----------------------

    Doubly Occupied:

       1A    -20.602762     2A    -20.544747     3A    -11.372745
       4A    -11.279924     5A    -11.234346     6A    -11.218770
       7A    -11.217430     8A    -11.215873     9A    -11.215759
      10A    -11.214350    11A    -11.209009    12A     -1.467421
      13A     -1.362784    14A     -1.097848    15A     -1.066632
      16A     -1.019538    17A     -0.977601    18A     -0.928503
      19A     -0.861405    20A     -0.799083    21A     -0.790322
      22A     -0.763331    23A     -0.701056    24A     -0.681340
      25A     -0.671989    26A     -0.650740    27A     -0.628843
      28A     -0.604638    29A     -0.595472    30A     -0.580539
      31A     -0.567473    32A     -0.549788    33A     -0.533582
      34A     -0.527421    35A     -0.515769    36A     -0.511480
      37A     -0.496299    38A     -0.477684    39A     -0.469974
      40A     -0.462284    41A     -0.458739    42A     -0.453783
      43A     -0.441294    44A     -0.435074

  @DF-RHF Final Energy:  -501.04293443955157

   => Energetics <=

    Nuclear Repulsion Energy =            609.8988239724144478
    One-Electron Energy =               -1890.9326227231524626
    Two-Electron Energy =                 779.9908643111873516
    DFT Exchange-Correlation Energy =       0.0000000000000000
    Empirical Dispersion Energy =           0.0000000000000000
    PCM Polarization Energy =               0.0000000000000000
    EFP Energy =                            0.0000000000000000
    Total Energy =                       -501.0429344395506632
    Molecular point group: c1
  Basis Set: 6-31G*
  Basis Set:

  -Total Gradient:
     Atom            X                  Y                   Z
    ------   -----------------  -----------------  -----------------
       1       -0.000002204798     0.000001294866    -0.000012872323
       2       -0.000117092511     0.001286722915    -0.000588633244
       3       -0.000002014300     0.000019756181    -0.000006335904
       4        0.000210584231    -0.001553968979     0.000911895793
       5       -0.000006834034     0.000015462635    -0.000004667412
       6       -0.000001846425    -0.000007020930     0.000005747133
       7        0.000005147279    -0.000004435579     0.000000778554
       8       -0.000000324872    -0.000006631509    -0.000009513478
       9       -0.000000639682     0.000003710864    -0.000002451220
      10       -0.000002345492     0.000003748739    -0.000002190693
      11       -0.000003828351    -0.000005138508     0.000000236712
      12        0.000000122666    -0.000004774640     0.000001018033
      13        0.000001266826    -0.000002579841    -0.000007017873
      14        0.000001594755     0.000006110816     0.000006334223
      15        0.000002423716    -0.000000052860    -0.000000944631
      16       -0.000008238065     0.000001988022     0.000006038409
      17        0.000000801008     0.000003561379     0.000002519416
      18       -0.000000290224     0.000002381783     0.000000669135
      19        0.000000150500     0.000001550024     0.000002006480
      20       -0.000000740140    -0.000004640610    -0.000003373626
      21       -0.000001439443     0.000000484239     0.000002318794
      22        0.000001836053     0.000001991150    -0.000000536100
      23       -0.000000256500    -0.000001536685    -0.000001167176
      24        0.000001222762     0.000001020523    -0.000001169694
      25       -0.000001148248    -0.000000607766     0.000001490300
      26       -0.000137756541    -0.001396876753    -0.000393838369
      27        0.000067834803     0.001651886596     0.000100073015
      28       -0.000004542817    -0.000006181934     0.000001598177
      29       -0.000001442154    -0.000007224136    -0.000008012431

  **** Optimization is complete! (in 7 steps) ****
    Final optimized geometry and variables:
    Molecular point group: c1

    Geometry (in Angstrom), charge = 0, multiplicity = 1:

    O            3.388474115623    -0.252732909311     0.406234538178
    C            2.594966411503    -0.663093552694    -0.377687373518
    C            1.096729873960    -0.661419262416    -0.190653749416
    O            2.924611310424    -1.192591694039    -1.550032688051
    C            0.658592981313    -0.056810344525     1.141434882184
    H            0.670822788725    -0.132972395373    -1.037088579495
    H            0.759016373185    -1.690542116480    -0.282916065506
    C           -0.850915085934    -0.142981354237     1.391413135102
    H            0.980653570937     0.979122081161     1.188470755704
    H            1.180957152120    -0.569144468833     1.942092637430
    C           -1.711284855528     0.695653450646     0.441886250640
    H           -1.042415380611     0.181517724980     2.411591775366
    H           -1.167861314346    -1.183700570239     1.341744770891
    C           -3.198096253470     0.664051523277     0.801617696456
    H           -1.359703329883     1.726183335154     0.456663311920
    H           -1.590070689670     0.346157404021    -0.580909905420
    C           -4.068310721727     1.493811261611    -0.144078434510
    H           -3.329624734991     1.025819265035     1.819976602679
    H           -3.547574742449    -0.367230092064     0.798055886072
    C           -5.551365784169     1.458739641726     0.223389746582
    H           -3.720542041866     2.524682122896    -0.141657253784
    H           -3.940658416574     1.131585511839    -1.162056724034
    H           -6.141842037221     2.055415487800    -0.465038894410
    H           -5.716600450068     1.848121224842     1.224024581502
    H           -5.938005331888     0.443811861753     0.196836602894
    C            4.295365036169    -1.242974223504    -1.904837567694
    H            4.333837356432    -1.176926815744    -2.981621215338
    H            4.725150946238    -2.178381380826    -1.572608148009
    H            4.835588742398    -0.420946003362    -1.463660587378

  Mulliken Charges: (a.u.)
   Center  Symbol    Alpha    Beta     Spin     Total
       1     O     4.28562  4.28562  0.00000 -0.57123
       2     C     2.60466  2.60466  0.00000  0.79068
       3     C     3.20990  3.20990  0.00000 -0.41980
       4     O     4.30870  4.30870  0.00000 -0.61741
       5     C     3.15376  3.15376  0.00000 -0.30752
       6     H     0.39902  0.39902  0.00000  0.20196
       7     H     0.40120  0.40120  0.00000  0.19760
       8     C     3.15661  3.15661  0.00000 -0.31322
       9     H     0.41316  0.41316  0.00000  0.17368
      10     H     0.40879  0.40879  0.00000  0.18242
      11     C     3.15503  3.15503  0.00000 -0.31005
      12     H     0.41828  0.41828  0.00000  0.16343
      13     H     0.42388  0.42388  0.00000  0.15224
      14     C     3.15029  3.15029  0.00000 -0.30058
      15     H     0.42265  0.42265  0.00000  0.15470
      16     H     0.42363  0.42363  0.00000  0.15275
      17     C     3.15145  3.15145  0.00000 -0.30290
      18     H     0.42333  0.42333  0.00000  0.15334
      19     H     0.42398  0.42398  0.00000  0.15204
      20     C     3.23934  3.23934  0.00000 -0.47869
      21     H     0.42282  0.42282  0.00000  0.15437
      22     H     0.42345  0.42345  0.00000  0.15310
      23     H     0.41925  0.41925  0.00000  0.16150
      24     H     0.42155  0.42155  0.00000  0.15690
      25     H     0.42183  0.42183  0.00000  0.15634
      26     C     3.09522  3.09522  0.00000 -0.19043
      27     H     0.40987  0.40987  0.00000  0.18027
      28     H     0.41303  0.41303  0.00000  0.17394
      29     H     0.39972  0.39972  0.00000  0.20057

   Total alpha = 44.00000, Total beta = 44.00000, Total charge =  0.00000
