  ==> Input File <==

--------------------------------------------------------------------------
set {
	reference rhf
	basis cc-pvtz
}

set_num_threads( 4 )
memory 2 gb

molecule MOL {
0 1

H	 -0.000105	 1.988529	 0.748933
O	 -0.000098	 1.879786	 -0.188206
C	 -0.000014	 0.545691	 -0.532416
C	 -0.637976	 0.355526	 -1.909594
C	 -0.637935	 -0.287040	 0.580863
H	 1.027869	 0.224378	 -0.615335
F	 0.040540	 1.037512	 -2.799184
F	 -0.646410	 -0.898455	 -2.285321
F	 -1.877257	 0.797352	 -1.928271
F	 0.040622	 -0.120593	 1.689336
F	 -0.646382	 -1.566269	 0.302985
F	 -1.877207	 0.090598	 0.811020

	symmetry c1
}
set optking {
	frozen_dihedral = ("
		6 3 2 1
	")
}

ee = optimize('scf')
oeprop('DIPOLE', 'QUADRUPOLE', 'MULLIKEN_CHARGES')
f=open( 'psi4out.xyz', 'w' )
f.write( "12  " )
f.write( str(ee) + "\n" )
f.write( MOL.save_string_xyz() )
f.close()
--------------------------------------------------------------------------

    Molecular point group: c1
  Charge       = 0
  Multiplicity = 1
  Basis Set: CC-PVTZ
  Basis Set:
  @DF-RHF Final Energy:  -786.58443027715964
    Total Energy =                       -786.5844302771592993
    Molecular point group: c1
  Basis Set: CC-PVTZ
  Basis Set:
  Basis Set: CC-PVTZ
  Basis Set:
  @DF-RHF Final Energy:  -786.58614881847336
    Total Energy =                       -786.5861488184732480
  Basis Set: CC-PVTZ
  Basis Set:
  Basis Set: CC-PVTZ
  Basis Set:
  @DF-RHF Final Energy:  -786.58650861433807
    Total Energy =                       -786.5865086143373901
  Basis Set: CC-PVTZ
  Basis Set:
  Basis Set: CC-PVTZ
  Basis Set:
  @DF-RHF Final Energy:  -786.58657366264072
    Total Energy =                       -786.5865736626408307
  Basis Set: CC-PVTZ
  Basis Set:
  Basis Set: CC-PVTZ
  Basis Set:
  @DF-RHF Final Energy:  -786.58658953464601
    Total Energy =                       -786.5865895346463503
  Basis Set: CC-PVTZ
  Basis Set:
  Basis Set: CC-PVTZ
  Basis Set:
  @DF-RHF Final Energy:  -786.58659433015089
    Total Energy =                       -786.5865943301510015
  Basis Set: CC-PVTZ
  Basis Set:
  Basis Set: CC-PVTZ
  Basis Set:
  @DF-RHF Final Energy:  -786.58659578083780
    Total Energy =                       -786.5865957808382518
  Basis Set: CC-PVTZ
  Basis Set:
  Charge       = 0
  Multiplicity = 1
  Basis Set: CC-PVTZ
  Basis Set:

    Orbital Energies (a.u.)
    -----------------------

    Doubly Occupied:

       1A    -26.365266     2A    -26.361846     3A    -26.360156
       4A    -26.351623     5A    -26.347981     6A    -26.347938
       7A    -20.607544     8A    -11.525655     9A    -11.515166
      10A    -11.351657    11A     -1.775662    12A     -1.762151
      13A     -1.670830    14A     -1.668998    15A     -1.657540
      16A     -1.655698    17A     -1.437745    18A     -1.105022
      19A     -1.002744    20A     -0.942900    21A     -0.876572
      22A     -0.867698    23A     -0.862832    24A     -0.849505
      25A     -0.839056    26A     -0.796924    27A     -0.756047
      28A     -0.740851    29A     -0.726488    30A     -0.724884
      31A     -0.716729    32A     -0.694874    33A     -0.691131
      34A     -0.675647    35A     -0.674647    36A     -0.670649
      37A     -0.659082    38A     -0.651711    39A     -0.621387
      40A     -0.549561    41A     -0.508119

  @DF-RHF Final Energy:  -786.58659587885893

   => Energetics <=

    Nuclear Repulsion Energy =            671.2511173024905702
    One-Electron Energy =               -2429.7383965380822701
    Two-Electron Energy =                 971.9006833567323156
    DFT Exchange-Correlation Energy =       0.0000000000000000
    Empirical Dispersion Energy =           0.0000000000000000
    PCM Polarization Energy =               0.0000000000000000
    EFP Energy =                            0.0000000000000000
    Total Energy =                       -786.5865958788594980
    Molecular point group: c1
  Basis Set: CC-PVTZ
  Basis Set:

  -Total Gradient:
     Atom            X                  Y                   Z
    ------   -----------------  -----------------  -----------------
       1       -0.002262319714     0.000009740421     0.000075730771
       2        0.002815543352     0.000126536292    -0.000637799861
       3       -0.000503946131    -0.000596040875     0.002471647774
       4        0.000027750766    -0.000016952478     0.000046975301
       5        0.000011746548    -0.000005644586    -0.000044314955
       6       -0.000067642011     0.000447662244    -0.001908358163
       7       -0.000028972216    -0.000003529521    -0.000003498710
       8       -0.000002572413     0.000019489802    -0.000000485381
       9        0.000010347186     0.000003066081    -0.000023458211
      10       -0.000037144433     0.000012719186    -0.000006333941
      11       -0.000007441305    -0.000000384774     0.000004448258
      12        0.000044650373     0.000003338214     0.000025447102

  **** Optimization is complete! (in 8 steps) ****
    Final optimized geometry and variables:
    Molecular point group: c1

    Geometry (in Angstrom), charge = 0, multiplicity = 1:

    H            0.721303226634     1.841821521170     1.337361375722
    O            0.686259268014     1.700637017166     0.407605486728
    C            0.669011997496     0.356783640085     0.094787140825
    C           -0.008991216349     0.227411776399    -1.268529648576
    C            0.004719034208    -0.473144286840     1.192690974037
    H            1.670256115110    -0.040238747522    -0.033930366691
    F            0.692868069474     0.880790696448    -2.162195996144
    F           -0.064029552334    -1.030724652895    -1.642741992860
    F           -1.223642751443     0.708319840820    -1.276324606201
    F            0.575860916216    -0.168610218730     2.345263056143
    F            0.168953239150    -1.754535567453     0.994044618277
    F           -1.274515454578    -0.232734229826     1.317675740187

  Mulliken Charges: (a.u.)
   Center  Symbol    Alpha    Beta     Spin     Total
       1     H     0.38292  0.38292  0.00000  0.23417
       2     O     4.18742  4.18742  0.00000 -0.37484
       3     C     2.99525  2.99525  0.00000  0.00950
       4     C     2.67842  2.67842  0.00000  0.64316
       5     C     2.68492  2.68492  0.00000  0.63015
       6     H     0.44434  0.44434  0.00000  0.11131
       7     F     4.60345  4.60345  0.00000 -0.20691
       8     F     4.60656  4.60656  0.00000 -0.21311
       9     F     4.60182  4.60182  0.00000 -0.20364
      10     F     4.61393  4.61393  0.00000 -0.22787
      11     F     4.60048  4.60048  0.00000 -0.20096
      12     F     4.60049  4.60049  0.00000 -0.20097

   Total alpha = 41.00000, Total beta = 41.00000, Total charge = -0.00000
