  ==> Input File <==

--------------------------------------------------------------------------
set {
	reference rhf
	basis 6-31G*
}

set_num_threads( 4 )
memory 2 gb

molecule MOL {
0 1

H	 1.275039	 -2.172913	 2.236924
O	 1.068965	 -1.920440	 1.342173
C	 0.075295	 -1.033454	 1.380981
C	 -0.318135	 -0.576402	 0.000164
O	 -0.412229	 -0.674372	 2.402929
C	 -1.454360	 0.441875	 -0.000474
H	 0.572785	 -0.173419	 -0.474040
H	 -0.582203	 -1.462142	 -0.571446
C	 -2.826123	 -0.230780	 0.000056
H	 -1.357605	 1.085198	 -0.868380
H	 -1.357504	 1.086451	 0.866496
H	 -2.959731	 -0.858053	 -0.876869
H	 -3.619374	 0.509403	 -0.000080
H	 -2.959371	 -0.857318	 0.877556

	symmetry c1
}
set optking {
	frozen_dihedral = ("
		7 4 6 10
	")
}

ee = optimize('scf')
oeprop('DIPOLE', 'QUADRUPOLE', 'MULLIKEN_CHARGES')
f=open( 'psi4out.xyz', 'w' )
f.write( "14  " )
f.write( str(ee) + "\n" )
f.write( MOL.save_string_xyz() )
f.close()
--------------------------------------------------------------------------

    Molecular point group: c1
  Charge       = 0
  Multiplicity = 1
  Basis Set: 6-31G*
  Basis Set:
  @DF-RHF Final Energy:  -305.87906913073925
    Total Energy =                       -305.8790691307393672
    Molecular point group: c1
  Basis Set: 6-31G*
  Basis Set:
  Basis Set: 6-31G*
  Basis Set:
  @DF-RHF Final Energy:  -305.87928755396410
    Total Energy =                       -305.8792875539638771
  Basis Set: 6-31G*
  Basis Set:
  Basis Set: 6-31G*
  Basis Set:
  @DF-RHF Final Energy:  -305.87931468215061
    Total Energy =                       -305.8793146821506639
  Basis Set: 6-31G*
  Basis Set:
  Basis Set: 6-31G*
  Basis Set:
  @DF-RHF Final Energy:  -305.87920002176725
    Total Energy =                       -305.8792000217672467
  Basis Set: 6-31G*
  Basis Set:
  Basis Set: 6-31G*
  Basis Set:
  @DF-RHF Final Energy:  -305.87932348370316
    Total Energy =                       -305.8793234837030468
  Basis Set: 6-31G*
  Basis Set:
  Charge       = 0
  Multiplicity = 1
  Basis Set: 6-31G*
  Basis Set:

    Orbital Energies (a.u.)
    -----------------------

    Doubly Occupied:

       1A    -20.613888     2A    -20.553178     3A    -11.382760
       4A    -11.241115     5A    -11.224947     6A    -11.211906
       7A     -1.476124     8A     -1.367079     9A     -1.080950
      10A     -0.976767    11A     -0.860098    12A     -0.788473
      13A     -0.702440    14A     -0.693836    15A     -0.657551
      16A     -0.609850    17A     -0.597499    18A     -0.564964
      19A     -0.557696    20A     -0.493518    21A     -0.490171
      22A     -0.485573    23A     -0.476731    24A     -0.445497

  @DF-RHF Final Energy:  -305.87932363810080

   => Energetics <=

    Nuclear Repulsion Energy =            243.5133119100981958
    One-Electron Energy =                -899.6800555408076434
    Two-Electron Energy =                 350.2874199926088750
    DFT Exchange-Correlation Energy =       0.0000000000000000
    Empirical Dispersion Energy =           0.0000000000000000
    PCM Polarization Energy =               0.0000000000000000
    EFP Energy =                            0.0000000000000000
    Total Energy =                       -305.8793236381005727
    Molecular point group: c1
  Basis Set: 6-31G*
  Basis Set:

  -Total Gradient:
     Atom            X                  Y                   Z
    ------   -----------------  -----------------  -----------------
       1       -0.000001165216     0.000001182808    -0.000000210605
       2       -0.000002180264    -0.000015799720    -0.000018283922
       3        0.000013920799     0.000048286333     0.000026092911
       4        0.001662456161     0.002010371688     0.004157340622
       5       -0.000001976549    -0.000009921310    -0.000011636848
       6       -0.002497993832    -0.002942115366    -0.002927888291
       7       -0.001006974229    -0.001216255509    -0.002963061869
       8        0.000002210018    -0.000008582953    -0.000006799195
       9       -0.000002332303    -0.000014008651    -0.000004765910
      10        0.001820497966     0.002125436790     0.001746600678
      11        0.000000659602     0.000008671826     0.000007908274
      12       -0.000006472380     0.000007410623    -0.000003086591
      13        0.000009358677     0.000007172319     0.000003034071
      14        0.000009991548    -0.000001848877    -0.000005243333

  **** Optimization is complete! (in 6 steps) ****
    Final optimized geometry and variables:
    Molecular point group: c1

    Geometry (in Angstrom), charge = 0, multiplicity = 1:

    H            1.892270366547    -1.491151813291     1.351863814827
    O            1.694794483187    -1.225115792352     0.459105226984
    C            0.699677358395    -0.340489353045     0.501288503673
    C            0.322735840908     0.135764773799    -0.877960480792
    O            0.200622502208     0.000199638161     1.524304259286
    C           -0.836535656728     1.135028614181    -0.898451453575
    H            1.213353801385     0.544604820725    -1.345516034262
    H            0.085291762107    -0.749235187558    -1.463270406628
    C           -2.210702498993     0.469564849380    -0.874917793327
    H           -0.734586720415     1.767713381788    -1.774994450599
    H           -0.743002084659     1.793907250174    -0.042640775325
    H           -2.355286281213    -0.166886155064    -1.743755083869
    H           -3.000772162753     1.213388432506    -0.874234895228
    H           -2.329667838877    -0.140031447686     0.014572476484

  Mulliken Charges: (a.u.)
   Center  Symbol    Alpha    Beta     Spin     Total
       1     H     0.26760  0.26760  0.00000  0.46480
       2     O     4.35013  4.35013  0.00000 -0.70026
       3     C     2.62469  2.62469  0.00000  0.75063
       4     C     3.21227  3.21227  0.00000 -0.42454
       5     O     4.27969  4.27969  0.00000 -0.55938
       6     C     3.15680  3.15680  0.00000 -0.31359
       7     H     0.39544  0.39544  0.00000  0.20912
       8     H     0.39835  0.39835  0.00000  0.20331
       9     C     3.24365  3.24365  0.00000 -0.48730
      10     H     0.41751  0.41751  0.00000  0.16498
      11     H     0.40327  0.40327  0.00000  0.19346
      12     H     0.42344  0.42344  0.00000  0.15311
      13     H     0.41660  0.41660  0.00000  0.16680
      14     H     0.41057  0.41057  0.00000  0.17885

   Total alpha = 24.00000, Total beta = 24.00000, Total charge =  0.00000
