                              Psi4 1.0.54 Driver

  ==> Input File <==

--------------------------------------------------------------------------
set {
	reference rhf
	basis cc-pvtz
}

set_num_threads( 4 )
memory 2 gb

molecule MOL {
0 1

O	 -2.817697	 1.304178	 0.001046
C	 -2.664672	 0.129869	 0.003507
C	 -3.797908	 -0.860100	 -0.001145
O	 -1.481217	 -0.452708	 0.001092
H	 -4.408836	 -0.679689	 -0.875387
H	 -3.443486	 -1.878443	 -0.002770
H	 -4.412123	 -0.683688	 0.871605
C	 -0.332055	 0.384012	 -0.000250
C	 0.892252	 -0.506059	 -0.000295
H	 -0.360822	 1.020205	 -0.874146
H	 -0.359817	 1.021310	 0.872861
C	 0.921417	 -1.443066	 1.203669
H	 1.780484	 0.117380	 -0.006394
H	 0.907973	 -1.082845	 -0.919390
C	 2.147711	 -2.351300	 1.224668
H	 0.894975	 -0.857683	 2.119422
H	 0.023298	 -2.055712	 1.208086
C	 2.176640	 -3.288628	 2.426995
H	 3.045833	 -1.740215	 1.222048
H	 2.175121	 -2.936893	 0.310110
H	 2.184654	 -2.731329	 3.357693
H	 3.058267	 -3.918712	 2.411710
H	 1.307015	 -3.937061	 2.438860

	symmetry c1
}
set optking {
	frozen_dihedral = ("
		13 9 8 10
	")
}

ee,wfn = optimize('scf', return_wfn=True)
oeprop( wfn, 'DIPOLE', 'QUADRUPOLE', 'MULLIKEN_CHARGES')
f=open( 'psi4out.xyz', 'w' )
f.write( "23  " )
f.write( str(ee) + "\n" )
f.write( MOL.save_string_xyz() )
f.close()
--------------------------------------------------------------------------

    Molecular point group: c1
  Charge       = 0
  Multiplicity = 1
  Basis Set: CC-PVTZ
  Basis Set:
  @DF-RHF Final Energy:  -423.13399204532942
    Total Energy =                       -423.1339920453294781
    Molecular point group: c1
  Basis Set: CC-PVTZ
  Basis Set:
  Basis Set: CC-PVTZ
  Basis Set:
  @DF-RHF Final Energy:  -423.13412900920775
    Total Energy =                       -423.1341290092076406
  Basis Set: CC-PVTZ
  Basis Set:
  Basis Set: CC-PVTZ
  Basis Set:
  @DF-RHF Final Energy:  -423.13427705390910
    Total Energy =                       -423.1342770539093863
  Basis Set: CC-PVTZ
  Basis Set:
  Basis Set: CC-PVTZ
  Basis Set:
  @DF-RHF Final Energy:  -423.13442516421941
    Total Energy =                       -423.1344251642196923
  Basis Set: CC-PVTZ
  Basis Set:
  Basis Set: CC-PVTZ
  Basis Set:
  @DF-RHF Final Energy:  -423.13442625475346
    Total Energy =                       -423.1344262547535209
  Basis Set: CC-PVTZ
  Basis Set:
  Basis Set: CC-PVTZ
  Basis Set:
  @DF-RHF Final Energy:  -423.13442849489394
    Total Energy =                       -423.1344284948936547
  Basis Set: CC-PVTZ
  Basis Set:
  Charge       = 0
  Multiplicity = 1
  Basis Set: CC-PVTZ
  Basis Set:

    Orbital Energies (a.u.)
    -----------------------

    Doubly Occupied:

       1A    -20.595979     2A    -20.529799     3A    -11.366774
       4A    -11.280336     5A    -11.231173     6A    -11.223664
       7A    -11.217400     8A    -11.215983     9A    -11.209478
      10A     -1.471352    11A     -1.364226    12A     -1.092999
      13A     -1.042437    14A     -1.003646    15A     -0.931860
      16A     -0.843640    17A     -0.803241    18A     -0.775347
      19A     -0.691235    20A     -0.687530    21A     -0.669567
      22A     -0.644914    23A     -0.608568    24A     -0.587131
      25A     -0.580233    26A     -0.572182    27A     -0.560302
      28A     -0.532562    29A     -0.530685    30A     -0.510776
      31A     -0.494858    32A     -0.474683    33A     -0.468821
      34A     -0.461764    35A     -0.450136    36A     -0.441133

  @DF-RHF Final Energy:  -423.13442878688102

   => Energetics <=

    Nuclear Repulsion Energy =            459.3343151836602374
    One-Electron Energy =               -1486.6046540538550289
    Two-Electron Energy =                 604.1359100833137745
    DFT Exchange-Correlation Energy =       0.0000000000000000
    Empirical Dispersion Energy =           0.0000000000000000
    PCM Polarization Energy =               0.0000000000000000
    EFP Energy =                            0.0000000000000000
    Total Energy =                       -423.1344287868810170
    Molecular point group: c1
  Basis Set: CC-PVTZ
  Basis Set:

  -Total Gradient:
     Atom            X                  Y                   Z
    ------   -----------------  -----------------  -----------------
       1        0.000006036900     0.000012009179     0.000023867022
       2        0.000000363488    -0.000020040092    -0.000028260766
       3        0.000009294426    -0.000004861121     0.000062047330
       4        0.000000619586     0.000007697404    -0.000022617015
       5       -0.000000663796    -0.000013686601    -0.000027176800
       6       -0.000004345970     0.000002016748    -0.000004694487
       7       -0.000008645272     0.000012414404    -0.000017355615
       8        0.001081300328     0.001453246875     0.001416913986
       9       -0.000225110515    -0.000306275653    -0.002155453153
      10       -0.000860042365    -0.001157474914    -0.000830267689
      11        0.000005676147     0.000003062007    -0.000007372650
      12        0.000001210219     0.000013948458    -0.000006041794
      13        0.000002556948     0.000006035103     0.001602083823
      14        0.000002484252    -0.000006428227    -0.000005754865
      15       -0.000000782356    -0.000000929478    -0.000002429525
      16       -0.000002487747    -0.000002942811     0.000004700848
      17       -0.000005796373     0.000000071951    -0.000002777286
      18        0.000001040921     0.000000228549     0.000001718308
      19       -0.000001176675     0.000000088677     0.000000107535
      20       -0.000000549665     0.000000192691    -0.000002249902
      21       -0.000000225996     0.000000447742     0.000002717658
      22        0.000000828413     0.000001514063    -0.000001310969
      23       -0.000001584895    -0.000000334952    -0.000000393997

  **** Optimization is complete! (in 7 steps) ****
    Final optimized geometry and variables:
    Molecular point group: c1

    Geometry (in Angstrom), charge = 0, multiplicity = 1:

    O           -2.257906252560     2.107788466345    -0.523826132198
    C           -2.127378759801     0.930889979719    -0.543940627544
    C           -3.280266539006    -0.036145538069    -0.569730365492
    O           -0.955445204627     0.326034789768    -0.545558244100
    H           -3.888524314335     0.176838209853    -1.438518691159
    H           -2.946855095939    -1.061308866375    -0.595461134064
    H           -3.889743716990     0.132191628522     0.308040548518
    C            0.210418924895     1.142533125473    -0.525735790447
    C            1.428356817481     0.242244121862    -0.525716341645
    H            0.195624856746     1.776047874547    -1.401108087073
    H            0.181720646821     1.774882083751     0.350805203881
    C            1.512476229674    -0.698095061938     0.674181888295
    H            2.301248474954     0.889288483144    -0.529946432109
    H            1.449937391097    -0.329619120934    -1.447882687597
    C            2.778581377610    -1.550072579784     0.672434675315
    H            1.475397945826    -0.112625825568     1.590222253026
    H            0.642908379178    -1.345539767799     0.688358868485
    C            2.866164352742    -2.491756291084     1.868629572218
    H            3.650359120464    -0.901369573995     0.660623215014
    H            2.818736089168    -2.130115299555    -0.245548307771
    H            2.862498516096    -1.939561693221     2.802514918811
    H            3.774463366194    -3.082363846353     1.837669591235
    H            2.025916248395    -3.177697532409     1.888502040556

  Mulliken Charges: (a.u.)
   Center  Symbol    Alpha    Beta     Spin     Total
       1     O     4.20287  4.20287  0.00000 -0.40575
       2     C     2.81203  2.81203  0.00000  0.37595
       3     C     3.13993  3.13993  0.00000 -0.27985
       4     O     4.14823  4.14823  0.00000 -0.29646
       5     H     0.44154  0.44154  0.00000  0.11692
       6     H     0.44232  0.44232  0.00000  0.11536
       7     H     0.44202  0.44202  0.00000  0.11595
       8     C     2.99372  2.99372  0.00000  0.01257
       9     C     3.08827  3.08827  0.00000 -0.17654
      10     H     0.44433  0.44433  0.00000  0.11134
      11     H     0.45001  0.45001  0.00000  0.09997
      12     C     3.08872  3.08872  0.00000 -0.17743
      13     H     0.45156  0.45156  0.00000  0.09688
      14     H     0.45090  0.45090  0.00000  0.09820
      15     C     3.08547  3.08547  0.00000 -0.17094
      16     H     0.45579  0.45579  0.00000  0.08841
      17     H     0.44626  0.44626  0.00000  0.10747
      18     C     3.14950  3.14950  0.00000 -0.29899
      19     H     0.45477  0.45477  0.00000  0.09046
      20     H     0.45398  0.45398  0.00000  0.09203
      21     H     0.45483  0.45483  0.00000  0.09034
      22     H     0.44809  0.44809  0.00000  0.10383
      23     H     0.45487  0.45487  0.00000  0.09027

   Total alpha = 36.00000, Total beta = 36.00000, Total charge =  0.00000

*** Psi4 exiting successfully. Buy a developer a beer!
