  ==> Input File <==

--------------------------------------------------------------------------
set {
	reference rhf
	basis 6-31G*
}

set_num_threads( 1 )
memory 2 gb

molecule MOL {
0 1

H	 -2.498997	 1.199667	 -1.031155
N	 -1.509354	 1.205906	 -0.877722
C	 -0.831732	 0.371720	 -1.854486
H	 -1.347373	 0.842852	 0.041551
C	 0.657980	 0.363601	 -1.582777
H	 -1.184038	 -0.660580	 -1.869915
H	 -1.000283	 0.788143	 -2.842901
O	 0.874168	 -0.245412	 -0.342030
H	 1.180579	 -0.185747	 -2.365558
H	 1.033410	 1.384475	 -1.572506
C	 2.202317	 -0.244239	 0.074611
H	 2.711377	 -1.041390	 -0.449894
H	 2.692099	 0.699270	 -0.159667
H	 2.283185	 -0.418429	 1.145558

	symmetry c1
}
set optking {
	frozen_dihedral = ("
		8 5 3 6,
		6 3 2 4,
		11 8 5 3
	")
}

ee = energy('scf')
oeprop('DIPOLE', 'QUADRUPOLE', 'MULLIKEN_CHARGES')
f=open( 'psi4out.xyz', 'w' )
f.write( "14  " )
f.write( str(ee) + "\n" )
f.write( MOL.save_string_xyz() )
f.close()
--------------------------------------------------------------------------

    Molecular point group: c1

    Geometry (in Angstrom), charge = 0, multiplicity = 1:

       Center              X                  Y                   Z               Mass
    ------------   -----------------  -----------------  -----------------  -----------------
           H         -2.779936308768     0.913492021998    -0.134784647088     1.007825032070
           N         -1.790293308768     0.919731021998     0.018648352912    14.003074004780
           C         -1.112671308768     0.085545021998    -0.958115647088    12.000000000000
           H         -1.628312308768     0.556677021998     0.937921352912     1.007825032070
           C          0.377040691232     0.077426021998    -0.686406647088    12.000000000000
           H         -1.464977308768    -0.946754978002    -0.973544647088     1.007825032070
           H         -1.281222308768     0.501968021998    -1.946530647088     1.007825032070
           O          0.593228691232    -0.531586978002     0.554340352912    15.994914619560
           H          0.899639691232    -0.471921978002    -1.469187647088     1.007825032070
           H          0.752470691232     1.098300021998    -0.676135647088     1.007825032070
           C          1.921377691232    -0.530413978002     0.970981352912    12.000000000000
           H          2.430437691232    -1.327564978002     0.446476352912     1.007825032070
           H          2.411159691232     0.413095021998     0.736703352912     1.007825032070
           H          2.002245691232    -0.704603978002     2.041928352912     1.007825032070

  Charge       = 0
  Multiplicity = 1
  Basis Set: 6-31G*
  Basis Set:

    Orbital Energies (a.u.)
    -----------------------

    Doubly Occupied:

       1A    -20.555958     2A    -15.528357     3A    -11.266217
       4A    -11.266178     5A    -11.240850     6A     -1.380921
       7A     -1.173555     8A     -0.998589     9A     -0.907228
      10A     -0.815591    11A     -0.684140    12A     -0.673607
      13A     -0.643591    14A     -0.612276    15A     -0.605400
      16A     -0.539492    17A     -0.530920    18A     -0.497665
      19A     -0.472163    20A     -0.415654    21A     -0.380021

  @DF-RHF Final Energy:  -248.12334646251534

   => Energetics <=

    Nuclear Repulsion Energy =            194.7079997554158410
    One-Electron Energy =                -723.2858968304963128
    Two-Electron Energy =                 280.4545506125649581
    DFT Exchange-Correlation Energy =       0.0000000000000000
    Empirical Dispersion Energy =           0.0000000000000000
    PCM Polarization Energy =               0.0000000000000000
    EFP Energy =                            0.0000000000000000
    Total Energy =                       -248.1233464625155420

  Mulliken Charges: (a.u.)
   Center  Symbol    Alpha    Beta     Spin     Total
       1     H     0.33285  0.33285  0.00000  0.33430
       2     N     3.92528  3.92528  0.00000 -0.85056
       3     C     3.06888  3.06888  0.00000 -0.13777
       4     H     0.32363  0.32363  0.00000  0.35275
       5     C     2.99036  2.99036  0.00000  0.01928
       6     H     0.42653  0.42653  0.00000  0.14693
       7     H     0.42044  0.42044  0.00000  0.15912
       8     O     4.31094  4.31094  0.00000 -0.62188
       9     H     0.43151  0.43151  0.00000  0.13698
      10     H     0.42171  0.42171  0.00000  0.15658
      11     C     3.07835  3.07835  0.00000 -0.15670
      12     H     0.42704  0.42704  0.00000  0.14592
      13     H     0.42895  0.42895  0.00000  0.14210
      14     H     0.41352  0.41352  0.00000  0.17295

   Total alpha = 21.00000, Total beta = 21.00000, Total charge = -0.00000
