  ==> Input File <==

--------------------------------------------------------------------------
set {
	reference rhf
	basis 6-31G*
}

set_num_threads( 1 )
memory 2 gb

molecule MOL {
0 1

O	 -2.821601	 1.309235	 -0.001213
C	 -2.668563	 0.129746	 -0.000350
C	 -3.801572	 -0.864014	 -0.000442
O	 -1.481751	 -0.454642	 0.000584
H	 -4.417280	 -0.689587	 -0.874708
H	 -3.443784	 -1.883046	 -0.000565
H	 -4.417179	 -0.689832	 0.873954
C	 -0.334255	 0.388708	 0.000906
C	 0.891947	 -0.504646	 0.000751
H	 -0.365390	 1.025305	 -0.873475
H	 -0.365484	 1.024911	 0.875569
C	 2.191998	 0.301789	 0.000897
H	 0.855148	 -1.151283	 -0.871571
H	 0.855132	 -1.151660	 0.872805
C	 3.421479	 -0.549812	 0.322583
H	 2.327712	 0.773325	 -0.970865
H	 2.117944	 1.111163	 0.725129
C	 4.720105	 0.255442	 0.321395
H	 3.497202	 -1.358904	 -0.400404
H	 3.288561	 -1.019936	 1.294378
H	 4.898374	 0.710851	 -0.648573
H	 5.572971	 -0.375062	 0.552307
H	 4.688307	 1.052129	 1.059155

	symmetry c1
}
set optking {
	frozen_dihedral = ("
		13 9 8 10,
		2 4 8 10,
		19 15 12 16,
		1 2 4 8
	")
}

ee = energy('scf')
oeprop('DIPOLE', 'QUADRUPOLE', 'MULLIKEN_CHARGES')
f=open( 'psi4out.xyz', 'w' )
f.write( "23  " )
f.write( str(ee) + "\n" )
f.write( MOL.save_string_xyz() )
f.close()
--------------------------------------------------------------------------

    Molecular point group: c1

    Geometry (in Angstrom), charge = 0, multiplicity = 1:

       Center              X                  Y                   Z               Mass
    ------------   -----------------  -----------------  -----------------  -----------------
           O         -2.817237039125     1.302213000632    -0.073193189776    15.994914619560
           C         -2.664199039125     0.122724000632    -0.072330189776    12.000000000000
           C         -3.797208039125    -0.871035999368    -0.072422189776    12.000000000000
           O         -1.477387039125    -0.461663999368    -0.071396189776    15.994914619560
           H         -4.412916039125    -0.696608999368    -0.946688189776     1.007825032070
           H         -3.439420039125    -1.890067999368    -0.072545189776     1.007825032070
           H         -4.412815039125    -0.696853999368     0.801973810224     1.007825032070
           C         -0.329891039125     0.381686000632    -0.071074189776    12.000000000000
           C          0.896310960875    -0.511667999368    -0.071229189776    12.000000000000
           H         -0.361026039125     1.018283000632    -0.945455189776     1.007825032070
           H         -0.361120039125     1.017889000632     0.803588810224     1.007825032070
           C          2.196361960875     0.294767000632    -0.071083189776    12.000000000000
           H          0.859511960875    -1.158304999368    -0.943551189776     1.007825032070
           H          0.859495960875    -1.158681999368     0.800824810224     1.007825032070
           C          3.425842960875    -0.556833999368     0.250602810224    12.000000000000
           H          2.332075960875     0.766303000632    -1.042845189776     1.007825032070
           H          2.122307960875     1.104141000632     0.653148810224     1.007825032070
           C          4.724468960875     0.248420000632     0.249414810224    12.000000000000
           H          3.501565960875    -1.365925999368    -0.472384189776     1.007825032070
           H          3.292924960875    -1.026957999368     1.222397810224     1.007825032070
           H          4.902737960875     0.703829000632    -0.720553189776     1.007825032070
           H          5.577334960875    -0.382083999368     0.480326810224     1.007825032070
           H          4.692670960875     1.045107000632     0.987174810224     1.007825032070

  Charge       = 0
  Multiplicity = 1
  Basis Set: 6-31G*
  Basis Set:

    Orbital Energies (a.u.)
    -----------------------

    Doubly Occupied:

       1A    -20.602990     2A    -20.540578     3A    -11.374097
       4A    -11.281565     5A    -11.232417     6A    -11.224277
       7A    -11.223679     8A    -11.221739     9A    -11.212945
      10A     -1.467986    11A     -1.360762    12A     -1.094286
      13A     -1.042245    14A     -1.003448    15A     -0.930914
      16A     -0.841726    17A     -0.802725    18A     -0.774544
      19A     -0.692041    20A     -0.685067    21A     -0.668231
      22A     -0.646129    23A     -0.606425    24A     -0.588300
      25A     -0.582153    26A     -0.567077    27A     -0.558755
      28A     -0.536933    29A     -0.523440    30A     -0.504696
      31A     -0.491370    32A     -0.478150    33A     -0.470658
      34A     -0.465538    35A     -0.451185    36A     -0.435351

  @DF-RHF Final Energy:  -422.97894754239400

   => Energetics <=

    Nuclear Repulsion Energy =            449.7326352689967166
    One-Electron Energy =               -1467.0545000821086887
    Two-Electron Energy =                 594.3429172707169528
    DFT Exchange-Correlation Energy =       0.0000000000000000
    Empirical Dispersion Energy =           0.0000000000000000
    PCM Polarization Energy =               0.0000000000000000
    EFP Energy =                            0.0000000000000000
    Total Energy =                       -422.9789475423949625

  Mulliken Charges: (a.u.)
   Center  Symbol    Alpha    Beta     Spin     Total
       1     O     4.28390  4.28390  0.00000 -0.56779
       2     C     2.61534  2.61534  0.00000  0.76932
       3     C     3.28775  3.28775  0.00000 -0.57551
       4     O     4.31269  4.31269  0.00000 -0.62539
       5     H     0.39750  0.39750  0.00000  0.20501
       6     H     0.39985  0.39985  0.00000  0.20030
       7     H     0.39751  0.39751  0.00000  0.20498
       8     C     2.99622  2.99622  0.00000  0.00757
       9     C     3.16477  3.16477  0.00000 -0.32953
      10     H     0.41065  0.41065  0.00000  0.17871
      11     H     0.41055  0.41055  0.00000  0.17891
      12     C     3.16027  3.16027  0.00000 -0.32054
      13     H     0.41363  0.41363  0.00000  0.17275
      14     H     0.41437  0.41437  0.00000  0.17127
      15     C     3.15174  3.15174  0.00000 -0.30349
      16     H     0.41972  0.41972  0.00000  0.16057
      17     H     0.42128  0.42128  0.00000  0.15744
      18     C     3.23996  3.23996  0.00000 -0.47993
      19     H     0.42133  0.42133  0.00000  0.15734
      20     H     0.42132  0.42132  0.00000  0.15736
      21     H     0.42090  0.42090  0.00000  0.15820
      22     H     0.41800  0.41800  0.00000  0.16399
      23     H     0.42077  0.42077  0.00000  0.15847

   Total alpha = 36.00000, Total beta = 36.00000, Total charge = -0.00000
