  ==> Input File <==

--------------------------------------------------------------------------
set {
	reference rhf
	basis 6-31G*
}

set_num_threads( 4 )
memory 2 gb

molecule MOL {
0 1

H	 2.708250	 -5.748295	 0.092853
C	 2.534945	 -4.687786	 0.073943
C	 1.238484	 -4.185098	 0.047156
C	 3.594407	 -3.804051	 0.075855
H	 0.400362	 -4.859173	 0.045257
C	 1.012371	 -2.825877	 0.022861
H	 4.604001	 -4.174705	 0.096394
C	 3.383233	 -2.429543	 0.051544
H	 0.016317	 -2.424286	 0.002043
C	 2.087102	 -1.939220	 0.024952
H	 4.227719	 -1.768100	 0.053731
O	 1.765256	 -0.628444	 0.000000
C	 2.778419	 0.335181	 0.000000
H	 2.731280	 0.961222	 -0.884976
H	 3.711703	 -0.207767	 0.000000
H	 2.731280	 0.961222	 0.884976

	symmetry c1
}
set optking {
	frozen_dihedral = ("
		10 12 13 14
	")
}

ee = optimize('scf')
oeprop('DIPOLE', 'QUADRUPOLE', 'MULLIKEN_CHARGES')
f=open( 'psi4out.xyz', 'w' )
f.write( "16  " )
f.write( str(ee) + "\n" )
f.write( MOL.save_string_xyz() )
f.close()
--------------------------------------------------------------------------

    Molecular point group: c1
  Charge       = 0
  Multiplicity = 1
  Basis Set: 6-31G*
  Basis Set:
  @DF-RHF Final Energy:  -344.57107384566757
    Total Energy =                       -344.5710738456676268
    Molecular point group: c1
  Basis Set: 6-31G*
  Basis Set:
  Basis Set: 6-31G*
  Basis Set:
  @DF-RHF Final Energy:  -344.56963699105597
    Total Energy =                       -344.5696369910557451
  Basis Set: 6-31G*
  Basis Set:
  Basis Set: 6-31G*
  Basis Set:
  @DF-RHF Final Energy:  -344.57594605001884
    Total Energy =                       -344.5759460500189562
  Basis Set: 6-31G*
  Basis Set:
  Basis Set: 6-31G*
  Basis Set:
  @DF-RHF Final Energy:  -344.57662553151556
    Total Energy =                       -344.5766255315156741
  Basis Set: 6-31G*
  Basis Set:
  @DF-RHF Final Energy:  -344.57666125199705
    Total Energy =                       -344.5766612519969954
  @DF-RHF Final Energy:  -344.57667557465606
    Total Energy =                       -344.5766755746561785
  @DF-RHF Final Energy:  -344.57667726983840
    Total Energy =                       -344.5766772698382852
  @DF-RHF Final Energy:  -344.57681351472263
    Total Energy =                       -344.5768135147226303
  @DF-RHF Final Energy:  -344.57751022916824
    Total Energy =                       -344.5775102291681833
  @DF-RHF Final Energy:  -344.57779649118913
    Total Energy =                       -344.5777964911893037
  @DF-RHF Final Energy:  -344.57828650136997
    Total Energy =                       -344.5782865013701439
  @DF-RHF Final Energy:  -344.57839610648381
    Total Energy =                       -344.5783961064838650
  @DF-RHF Final Energy:  -344.57842552171127
    Total Energy =                       -344.5784255217112104
  Basis Set: 6-31G*
  Basis Set:
  @DF-RHF Final Energy:  -344.57842694732085
    Total Energy =                       -344.5784269473210202
  Basis Set: 6-31G*
  Basis Set:
  Basis Set: 6-31G*
  Basis Set:
  @DF-RHF Final Energy:  -344.57843105905386
    Total Energy =                       -344.5784310590540258
  Basis Set: 6-31G*
  Basis Set:
  Basis Set: 6-31G*
  Basis Set:
  @DF-RHF Final Energy:  -344.57843252035457
    Total Energy =                       -344.5784325203547951
  Basis Set: 6-31G*
  Basis Set:
  Charge       = 0
  Multiplicity = 1
  Basis Set: 6-31G*
  Basis Set:

    Orbital Energies (a.u.)
    -----------------------

    Doubly Occupied:

       1A    -20.575730     2A    -11.290773     3A    -11.277573
       4A    -11.233222     5A    -11.231734     6A    -11.224838
       7A    -11.222114     8A    -11.220685     9A     -1.403945
      10A     -1.146281    11A     -1.019162    12A     -1.013561
      13A     -0.937767    14A     -0.832249    15A     -0.805093
      16A     -0.716839    17A     -0.664313    18A     -0.661316
      19A     -0.645351    20A     -0.613738    21A     -0.591346
      22A     -0.582023    23A     -0.526719    24A     -0.511419
      25A     -0.506807    26A     -0.480898    27A     -0.446182
      28A     -0.334422    29A     -0.310513

  @DF-RHF Final Energy:  -344.57843308614866

   => Energetics <=

    Nuclear Repulsion Energy =            347.5633074221386210
    One-Electron Energy =               -1156.2302539364786753
    Two-Electron Energy =                 464.0885134281913906
    DFT Exchange-Correlation Energy =       0.0000000000000000
    Empirical Dispersion Energy =           0.0000000000000000
    PCM Polarization Energy =               0.0000000000000000
    EFP Energy =                            0.0000000000000000
    Total Energy =                       -344.5784330861486069
    Molecular point group: c1
  Basis Set: 6-31G*
  Basis Set:

  -Total Gradient:
     Atom            X                  Y                   Z
    ------   -----------------  -----------------  -----------------
       1       -0.000000130182     0.000000859211     0.000005445515
       2        0.000034596646    -0.000000356196    -0.000003158025
       3       -0.000017604626     0.000026663345     0.000010306668
       4       -0.000016181795    -0.000030147262    -0.000013526089
       5        0.000002092519    -0.000003883394    -0.000006574570
       6       -0.000011537402    -0.000010070091     0.000037514186
       7        0.000002767189     0.000002956495     0.000008466402
       8       -0.000019322361     0.000038529938     0.000030088271
       9        0.000004261484     0.000005183357    -0.000000761058
      10       -0.000732897821    -0.000010180764     0.000810581067
      11        0.000005794639     0.000013965397     0.000005228513
      12        0.000780396938     0.000169110484    -0.001315924033
      13        0.000991465392    -0.001061615569     0.000392629524
      14       -0.001029666607     0.000868360050     0.000025557533
      15        0.000009274743     0.000009722040     0.000015366011
      16       -0.000003308758    -0.000019097046    -0.000001239915

  **** Optimization is complete! (in 17 steps) ****
    Final optimized geometry and variables:
    Molecular point group: c1

    Geometry (in Angstrom), charge = 0, multiplicity = 1:

    H            0.324161682403    -3.307929580101     0.394370193077
    C            0.183624626583    -2.254045581701     0.236276220803
    C           -1.088389112351    -1.702041595437     0.275062298097
    C            1.269317733239    -1.433021300790    -0.013914035809
    H           -1.941142995585    -2.329144799634     0.465836981347
    C           -1.272660675185    -0.345563261113     0.078037168064
    H            2.260098148819    -1.849403797018    -0.057712379366
    C            1.095535015884    -0.073353191338    -0.223146068738
    H           -2.251412048827     0.096004960167     0.108801484470
    C           -0.178886633884     0.472500908186    -0.168224657533
    H            1.942105756951     0.551382197598    -0.442346829582
    O           -0.421404029016     1.785557845459    -0.398622157561
    C            0.379856712475     2.765454397548     0.214041604711
    H            0.863783022015     3.363129455016    -0.548495717286
    H            1.127923687611     2.329785929986     0.862729134377
    H           -0.262113986808     3.409455604976     0.802744223129

  Mulliken Charges: (a.u.)
   Center  Symbol    Alpha    Beta     Spin     Total
       1     H     0.40071  0.40071  0.00000  0.19858
       2     C     3.10968  3.10968  0.00000 -0.21936
       3     C     3.09399  3.09399  0.00000 -0.18797
       4     C     3.09361  3.09361  0.00000 -0.18722
       5     H     0.39867  0.39867  0.00000  0.20267
       6     C     3.12394  3.12394  0.00000 -0.24789
       7     H     0.39916  0.39916  0.00000  0.20169
       8     C     3.13172  3.13172  0.00000 -0.26345
       9     H     0.39339  0.39339  0.00000  0.21322
      10     C     2.79147  2.79147  0.00000  0.41707
      11     H     0.39745  0.39745  0.00000  0.20511
      12     O     4.33236  4.33236  0.00000 -0.66473
      13     C     3.08489  3.08489  0.00000 -0.16978
      14     H     0.41596  0.41596  0.00000  0.16808
      15     H     0.41978  0.41978  0.00000  0.16044
      16     H     0.41323  0.41323  0.00000  0.17355

   Total alpha = 29.00000, Total beta = 29.00000, Total charge = -0.00000
