  ==> Input File <==

--------------------------------------------------------------------------
set {
	reference rhf
	basis cc-pvtz
}

set_num_threads( 4 )
memory 2 gb

molecule MOL {
0 1

O	 0.749630	 1.305591	 -0.000460
C	 0.576499	 0.134701	 -0.003900
C	 -0.765656	 -0.550508	 -0.002152
O	 1.564816	 -0.744612	 -0.000631
C	 -1.945526	 0.411052	 0.000603
H	 -0.794329	 -1.203792	 -0.868145
H	 -0.791555	 -1.205429	 0.862701
C	 -2.289512	 0.901686	 -1.401494
H	 -1.717945	 1.254025	 0.641692
H	 -2.804887	 -0.079187	 0.441674
H	 -1.453013	 1.424960	 -1.852898
H	 -3.130428	 1.584105	 -1.376479
H	 -2.553258	 0.076581	 -2.054921
C	 2.884339	 -0.237801	 0.002883
H	 3.064150	 0.362814	 -0.876312
H	 3.533055	 -1.098529	 0.004958
H	 3.059365	 0.363432	 0.882614

	symmetry c1
}
set optking {
	frozen_dihedral = ("
		9 5 3 6
	")
}

ee = optimize('scf')
oeprop('DIPOLE', 'QUADRUPOLE', 'MULLIKEN_CHARGES')
f=open( 'psi4out.xyz', 'w' )
f.write( "17  " )
f.write( str(ee) + "\n" )
f.write( MOL.save_string_xyz() )
f.close()
--------------------------------------------------------------------------

    Molecular point group: c1
  Charge       = 0
  Multiplicity = 1
  Basis Set: CC-PVTZ
  Basis Set:
  @DF-RHF Final Energy:  -345.03381732639190
    Total Energy =                       -345.0338173263919543
    Molecular point group: c1
  Basis Set: CC-PVTZ
  Basis Set:
  Basis Set: CC-PVTZ
  Basis Set:
  @DF-RHF Final Energy:  -345.03396986649130
    Total Energy =                       -345.0339698664911339
  Basis Set: CC-PVTZ
  Basis Set:
  Basis Set: CC-PVTZ
  Basis Set:
  @DF-RHF Final Energy:  -345.03268859513878
    Total Energy =                       -345.0326885951381541
  Basis Set: CC-PVTZ
  Basis Set:
  Basis Set: CC-PVTZ
  Basis Set:
  @DF-RHF Final Energy:  -345.03409501067944
    Total Energy =                       -345.0340950106797209
  Basis Set: CC-PVTZ
  Basis Set:
  Basis Set: CC-PVTZ
  Basis Set:
  @DF-RHF Final Energy:  -345.03410402229309
    Total Energy =                       -345.0341040222931497
  Basis Set: CC-PVTZ
  Basis Set:
  Basis Set: CC-PVTZ
  Basis Set:
  @DF-RHF Final Energy:  -345.03410677125987
    Total Energy =                       -345.0341067712600420
  Basis Set: CC-PVTZ
  Basis Set:
  Basis Set: CC-PVTZ
  Basis Set:
  @DF-RHF Final Energy:  -345.03410914335313
    Total Energy =                       -345.0341091433531346
  Basis Set: CC-PVTZ
  Basis Set:
  Charge       = 0
  Multiplicity = 1
  Basis Set: CC-PVTZ
  Basis Set:

    Orbital Energies (a.u.)
    -----------------------

    Doubly Occupied:

       1A    -20.597252     2A    -20.535244     3A    -11.365651
       4A    -11.279176     5A    -11.234486     6A    -11.219644
       7A    -11.207213     8A     -1.473343     9A     -1.366840
      10A     -1.080005    11A     -1.000984    12A     -0.938823
      13A     -0.829366    14A     -0.768254    15A     -0.703914
      16A     -0.685314    17A     -0.675960    18A     -0.619620
      19A     -0.616660    20A     -0.568203    21A     -0.567499
      22A     -0.536052    23A     -0.525253    24A     -0.488724
      25A     -0.483640    26A     -0.482517    27A     -0.461057
      28A     -0.441255

  @DF-RHF Final Energy:  -345.03410939738870

   => Energetics <=

    Nuclear Repulsion Energy =            317.6173487706177525
    One-Electron Energy =               -1099.7990138955224211
    Two-Electron Energy =                 437.1475557275159645
    DFT Exchange-Correlation Energy =       0.0000000000000000
    Empirical Dispersion Energy =           0.0000000000000000
    PCM Polarization Energy =               0.0000000000000000
    EFP Energy =                            0.0000000000000000
    Total Energy =                       -345.0341093973886473
    Molecular point group: c1
  Basis Set: CC-PVTZ
  Basis Set:

  -Total Gradient:
     Atom            X                  Y                   Z
    ------   -----------------  -----------------  -----------------
       1       -0.000009673755    -0.000010298625    -0.000005179251
       2        0.000015656023     0.000005448536     0.000008637980
       3       -0.001553829193    -0.001855276666     0.001228580156
       4       -0.000003771819     0.000011866625    -0.000000081499
       5       -0.000920066518    -0.001056082029     0.002129387084
       6        0.001424668308     0.001696752336    -0.001350624545
       7       -0.000009495770     0.000000810362     0.000000907979
       8        0.000008977092     0.000007280359    -0.000020304296
       9        0.001048920794     0.001201475242    -0.002004284215
      10       -0.000000429443     0.000006197786     0.000004274865
      11       -0.000000054068    -0.000004775466    -0.000000640922
      12       -0.000001845646    -0.000003126641     0.000008197566
      13        0.000000245044     0.000003490392     0.000003267727
      14       -0.000001214513    -0.000005117314    -0.000003347131
      15        0.000000865077     0.000000517124     0.000000366048
      16        0.000002428370     0.000000957379     0.000000552513
      17       -0.000001379977    -0.000000119398     0.000000289941

  **** Optimization is complete! (in 8 steps) ****
    Final optimized geometry and variables:
    Molecular point group: c1

    Geometry (in Angstrom), charge = 0, multiplicity = 1:

    O            0.606062960530     1.126464463722     0.278059363645
    C            0.428420756792    -0.042922013385     0.227447555243
    C           -0.915352785986    -0.732074229156     0.233802672095
    O            1.414885753656    -0.921880020238     0.167184631924
    C           -2.101789109874     0.227302798691     0.188538350010
    H           -0.919105963035    -1.406662964295    -0.615373875551
    H           -0.938551356333    -1.354233076396     1.121456655679
    C           -2.419419984309     0.720017602085    -1.220932192552
    H           -1.886989730932     1.082685091679     0.815304278986
    H           -2.970779553877    -0.272996169475     0.600495420583
    H           -1.572559481323     1.241005520255    -1.650948510042
    H           -3.257851130082     1.406419095366    -1.209322003129
    H           -2.677231173329    -0.105797576603    -1.876385279552
    C            2.735342458077    -0.417846294964     0.170946572112
    H            2.900294639740     0.225188726782    -0.680785876204
    H            3.382395802132    -1.278307109591     0.118523849284
    H            2.928279626812     0.139184901013     1.075767656473

  Mulliken Charges: (a.u.)
   Center  Symbol    Alpha    Beta     Spin     Total
       1     O     4.19843  4.19843  0.00000 -0.39685
       2     C     2.80517  2.80517  0.00000  0.38966
       3     C     3.10292  3.10292  0.00000 -0.20584
       4     O     4.14662  4.14662  0.00000 -0.29324
       5     C     3.08626  3.08626  0.00000 -0.17252
       6     H     0.44086  0.44086  0.00000  0.11828
       7     H     0.43321  0.43321  0.00000  0.13358
       8     C     3.15041  3.15041  0.00000 -0.30083
       9     H     0.44435  0.44435  0.00000  0.11131
      10     H     0.44746  0.44746  0.00000  0.10509
      11     H     0.44739  0.44739  0.00000  0.10522
      12     H     0.44806  0.44806  0.00000  0.10388
      13     H     0.45824  0.45824  0.00000  0.08353
      14     C     3.03667  3.03667  0.00000 -0.07333
      15     H     0.45436  0.45436  0.00000  0.09128
      16     H     0.44531  0.44531  0.00000  0.10938
      17     H     0.45429  0.45429  0.00000  0.09143

   Total alpha = 28.00000, Total beta = 28.00000, Total charge =  0.00000
