  ==> Input File <==

--------------------------------------------------------------------------
set {
	reference rhf
	basis 6-31G*
}

set_num_threads( 4 )
memory 2 gb

molecule MOL {
0 1

O	 3.225979	 0.970355	 -0.599647
C	 2.701189	 0.057885	 -0.047330
C	 1.245376	 -0.013843	 0.345420
O	 3.347903	 -1.046386	 0.304773
C	 0.455112	 1.231400	 -0.050772
H	 0.838542	 -0.913825	 -0.103701
H	 1.208210	 -0.175333	 1.419774
C	 -0.998893	 1.219485	 0.433193
H	 0.482531	 1.345121	 -1.130325
H	 0.957290	 2.103070	 0.354729
C	 -1.883438	 0.145884	 -0.207175
H	 -1.431207	 2.195402	 0.224832
H	 -1.019646	 1.105716	 1.516076
C	 -3.347647	 0.245583	 0.225435
H	 -1.822183	 0.231698	 -1.291012
H	 -1.510341	 -0.844814	 0.042401
C	 -4.327122	 -0.282450	 -0.824300
H	 -3.586878	 1.283906	 0.448792
H	 -3.486903	 -0.304916	 1.154551
C	 -5.787360	 -0.175772	 -0.386091
H	 -4.188624	 0.265890	 -1.753700
H	 -4.092328	 -1.321507	 -1.045687
H	 -6.456823	 -0.557736	 -1.150636
H	 -6.063531	 0.856542	 -0.190507
H	 -5.966243	 -0.742606	 0.523290
C	 4.728119	 -1.109107	 -0.004993
H	 4.882018	 -1.033965	 -1.071845
H	 5.068212	 -2.067527	 0.355250
H	 5.265056	 -0.311663	 0.488280

	symmetry c1
}
set optking {
	frozen_dihedral = ("
		17 14 11 15
	")
}

ee = optimize('scf')
oeprop('DIPOLE', 'QUADRUPOLE', 'MULLIKEN_CHARGES')
f=open( 'psi4out.xyz', 'w' )
f.write( "29  " )
f.write( str(ee) + "\n" )
f.write( MOL.save_string_xyz() )
f.close()
--------------------------------------------------------------------------

    Molecular point group: c1
  Charge       = 0
  Multiplicity = 1
  Basis Set: 6-31G*
  Basis Set:
  @DF-RHF Final Energy:  -501.04152696505741
    Total Energy =                       -501.0415269650575283
    Molecular point group: c1
  Basis Set: 6-31G*
  Basis Set:
  Basis Set: 6-31G*
  Basis Set:
  @DF-RHF Final Energy:  -501.04170389822593
    Total Energy =                       -501.0417038982254780
  Basis Set: 6-31G*
  Basis Set:
  Basis Set: 6-31G*
  Basis Set:
  @DF-RHF Final Energy:  -501.04179824456628
    Total Energy =                       -501.0417982445662801
  Basis Set: 6-31G*
  Basis Set:
  Basis Set: 6-31G*
  Basis Set:
  @DF-RHF Final Energy:  -501.04180721420505
    Total Energy =                       -501.0418072142051642
  Basis Set: 6-31G*
  Basis Set:
  Basis Set: 6-31G*
  Basis Set:
  @DF-RHF Final Energy:  -501.04179846527848
    Total Energy =                       -501.0417984652783616
  Basis Set: 6-31G*
  Basis Set:
  Basis Set: 6-31G*
  Basis Set:
  @DF-RHF Final Energy:  -501.04181276374015
    Total Energy =                       -501.0418127637396992
  Basis Set: 6-31G*
  Basis Set:
  Charge       = 0
  Multiplicity = 1
  Basis Set: 6-31G*
  Basis Set:

    Orbital Energies (a.u.)
    -----------------------

    Doubly Occupied:

       1A    -20.603400     2A    -20.545222     3A    -11.372043
       4A    -11.280684     5A    -11.234801     6A    -11.219145
       7A    -11.218007     8A    -11.215972     9A    -11.215685
      10A    -11.214279    11A    -11.208884    12A     -1.469097
      13A     -1.362542    14A     -1.097491    15A     -1.066456
      16A     -1.019401    17A     -0.976892    18A     -0.928539
      19A     -0.861803    20A     -0.800146    21A     -0.790487
      22A     -0.764023    23A     -0.701063    24A     -0.682314
      25A     -0.672007    26A     -0.647673    27A     -0.627969
      28A     -0.604864    29A     -0.597099    30A     -0.580165
      31A     -0.565448    32A     -0.551197    33A     -0.532315
      34A     -0.529940    35A     -0.516312    36A     -0.511404
      37A     -0.497177    38A     -0.476937    39A     -0.471000
      40A     -0.462296    41A     -0.456270    42A     -0.454804
      43A     -0.441453    44A     -0.435489

  @DF-RHF Final Energy:  -501.04181260423650

   => Energetics <=

    Nuclear Repulsion Energy =            609.5883027401004028
    One-Electron Energy =               -1890.2998436701909668
    Two-Electron Energy =                 779.6697283258538391
    DFT Exchange-Correlation Energy =       0.0000000000000000
    Empirical Dispersion Energy =           0.0000000000000000
    PCM Polarization Energy =               0.0000000000000000
    EFP Energy =                            0.0000000000000000
    Total Energy =                       -501.0418126042366112
    Molecular point group: c1
  Basis Set: 6-31G*
  Basis Set:

  -Total Gradient:
     Atom            X                  Y                   Z
    ------   -----------------  -----------------  -----------------
       1       -0.000000655756     0.000007872954     0.000017145358
       2       -0.000011854553    -0.000019817794    -0.000039012381
       3        0.000019680545     0.000013022270     0.000018608552
       4        0.000008011221     0.000003470383     0.000015671025
       5       -0.000002737871    -0.000018259169    -0.000019141567
       6        0.000012332970     0.000013802731    -0.000005972572
       7       -0.000004686467    -0.000006736613     0.000003950747
       8        0.000023704964    -0.000002882818     0.000018792754
       9       -0.000004279597    -0.000006139002     0.000006641964
      10        0.000002695449     0.000009362553    -0.000000702745
      11        0.000211583420     0.006054921219     0.000064341948
      12        0.000024519609    -0.000001033820    -0.000006339032
      13       -0.000007017290     0.000006264040     0.000006968660
      14        0.000319290184    -0.004761379613     0.001460059459
      15       -0.000290677970    -0.003994034423    -0.000467931956
      16       -0.000017595965     0.000026759254     0.000019007656
      17       -0.000268324927     0.002692977840    -0.001095380213
      18        0.000000645534    -0.000023791021     0.000008636080
      19       -0.000013082079    -0.000017538207     0.000003606017
      20       -0.000006728431     0.000030770061    -0.000014566160
      21        0.000001119741    -0.000010759923    -0.000008938748
      22        0.000005260156    -0.000001778588     0.000015118801
      23       -0.000001971499     0.000006554215    -0.000002372684
      24       -0.000007126461     0.000000725175     0.000008814058
      25        0.000008922055    -0.000003145185    -0.000008044247
      26       -0.000001211621     0.000001068248     0.000001869821
      27       -0.000000557152     0.000000059804    -0.000000413992
      28       -0.000000023235    -0.000000185789    -0.000000117069
      29        0.000000765033    -0.000000148777    -0.000000299534

  **** Optimization is complete! (in 7 steps) ****
    Final optimized geometry and variables:
    Molecular point group: c1

    Geometry (in Angstrom), charge = 0, multiplicity = 1:

    O            3.261839409960     0.852184509025    -0.506390506050
    C            2.719191143524    -0.052469344955     0.041503114862
    C            1.257649468178    -0.105986473247     0.415458470173
    O            3.348301422689    -1.163033471982     0.405503545520
    C            0.487303531985     1.146999933213     0.004421467918
    H            0.846670078381    -1.003270154835    -0.035063891359
    H            1.204890666179    -0.262429248158     1.489893273587
    C           -0.972961975166     1.156065815731     0.469110529006
    H            0.530315350387     1.257044115117    -1.075035510837
    H            0.995065699542     2.013614985100     0.413781502429
    C           -1.870702207062     0.113940379721    -0.201023411935
    H           -1.384019985599     2.143289707916     0.272271850485
    H           -1.011514425250     1.024071169910     1.549707157068
    C           -3.328475450656     0.162953921260     0.280890455503
    H           -1.837335870779     0.232007414689    -1.282703904905
    H           -1.482024776743    -0.885058519128    -0.015748211339
    C           -4.328134760939    -0.359726041639    -0.752788096247
    H           -3.594948160134     1.191089930237     0.521200827370
    H           -3.427113421044    -0.396591241889     1.208463279175
    C           -5.770682292402    -0.348187202850    -0.249021648724
    H           -4.254076450834     0.245944015130    -1.653012211963
    H           -4.056012469052    -1.372669667764    -1.043917858576
    H           -6.456125717328    -0.710346538590    -1.009045783894
    H           -6.081840681869     0.655946131235     0.025464268811
    H           -5.885187348658    -0.979633723902     0.627526273936
    C            4.731700319957    -1.242692969444     0.114366824399
    H            4.900639574701    -1.172700952200    -0.950562335646
    H            5.055793411933    -2.203842971936     0.481990393223
    H            5.271241803182    -0.449967856595     0.612380102836

  Mulliken Charges: (a.u.)
   Center  Symbol    Alpha    Beta     Spin     Total
       1     O     4.28595  4.28595  0.00000 -0.57189
       2     C     2.60485  2.60485  0.00000  0.79030
       3     C     3.20957  3.20957  0.00000 -0.41913
       4     O     4.30745  4.30745  0.00000 -0.61491
       5     C     3.15426  3.15426  0.00000 -0.30851
       6     H     0.39897  0.39897  0.00000  0.20206
       7     H     0.40117  0.40117  0.00000  0.19767
       8     C     3.15724  3.15724  0.00000 -0.31447
       9     H     0.41294  0.41294  0.00000  0.17412
      10     H     0.40866  0.40866  0.00000  0.18268
      11     C     3.15660  3.15660  0.00000 -0.31321
      12     H     0.41792  0.41792  0.00000  0.16417
      13     H     0.42364  0.42364  0.00000  0.15271
      14     C     3.15111  3.15111  0.00000 -0.30222
      15     H     0.42151  0.42151  0.00000  0.15698
      16     H     0.42293  0.42293  0.00000  0.15415
      17     C     3.15247  3.15247  0.00000 -0.30494
      18     H     0.42349  0.42349  0.00000  0.15302
      19     H     0.42227  0.42227  0.00000  0.15546
      20     C     3.23969  3.23969  0.00000 -0.47939
      21     H     0.42221  0.42221  0.00000  0.15558
      22     H     0.42340  0.42340  0.00000  0.15321
      23     H     0.41917  0.41917  0.00000  0.16166
      24     H     0.42163  0.42163  0.00000  0.15674
      25     H     0.42179  0.42179  0.00000  0.15642
      26     C     3.09241  3.09241  0.00000 -0.18481
      27     H     0.40908  0.40908  0.00000  0.18184
      28     H     0.40851  0.40851  0.00000  0.18297
      29     H     0.40912  0.40912  0.00000  0.18176

   Total alpha = 44.00000, Total beta = 44.00000, Total charge = -0.00000
