  ==> Input File <==

--------------------------------------------------------------------------
set {
	reference rhf
	basis 6-31G*
}

set_num_threads( 4 )
memory 2 gb

molecule MOL {
0 1

O	 0.675720	 -1.064234	 2.185768
C	 0.067039	 -1.129181	 1.167600
C	 -1.330802	 -1.666362	 1.026018
O	 0.550821	 -0.724572	 0.000672
H	 -1.978185	 -0.899080	 0.617535
H	 -1.695974	 -1.983930	 1.991260
H	 -1.333650	 -2.500848	 0.334495
C	 1.863949	 -0.193559	 -0.000319
H	 2.028859	 0.409284	 -0.881648
H	 2.526261	 -1.045082	 -0.000003
H	 2.029520	 0.410555	 0.880008

	symmetry c1
}
set optking {
	frozen_dihedral = ("
		2 4 8 9
	")
}

ee = optimize('scf')
oeprop('DIPOLE', 'QUADRUPOLE', 'MULLIKEN_CHARGES')
f=open( 'psi4out.xyz', 'w' )
f.write( "11  " )
f.write( str(ee) + "\n" )
f.write( MOL.save_string_xyz() )
f.close()
--------------------------------------------------------------------------

    Molecular point group: c1
  Charge       = 0
  Multiplicity = 1
  Basis Set: 6-31G*
  Basis Set:
  @DF-RHF Final Energy:  -266.83437211045225
    Total Energy =                       -266.8343721104520228
    Molecular point group: c1
  Basis Set: 6-31G*
  Basis Set:
  Basis Set: 6-31G*
  Basis Set:
  @DF-RHF Final Energy:  -266.83544597092475
    Total Energy =                       -266.8354459709243542
  Basis Set: 6-31G*
  Basis Set:
  Basis Set: 6-31G*
  Basis Set:
  @DF-RHF Final Energy:  -266.83567633494977
    Total Energy =                       -266.8356763349495964
  Basis Set: 6-31G*
  Basis Set:
  Basis Set: 6-31G*
  Basis Set:
  @DF-RHF Final Energy:  -266.83578849265155
    Total Energy =                       -266.8357884926513179
  Basis Set: 6-31G*
  Basis Set:
  Basis Set: 6-31G*
  Basis Set:
  @DF-RHF Final Energy:  -266.83582918486371
    Total Energy =                       -266.8358291848636554
  Basis Set: 6-31G*
  Basis Set:
  Charge       = 0
  Multiplicity = 1
  Basis Set: 6-31G*
  Basis Set:

    Orbital Energies (a.u.)
    -----------------------

    Doubly Occupied:

       1A    -20.605604     2A    -20.546292     3A    -11.376815
       4A    -11.281779     5A    -11.234547     6A     -1.470450
       7A     -1.364673     8A     -1.035955     9A     -0.953142
      10A     -0.778013    11A     -0.695982    12A     -0.680689
      13A     -0.677100    14A     -0.596370    15A     -0.591270
      16A     -0.560626    17A     -0.526523    18A     -0.521620
      19A     -0.457316    20A     -0.442213

  @DF-RHF Final Energy:  -266.83582930526399

   => Energetics <=

    Nuclear Repulsion Energy =            183.1894607753269497
    One-Electron Energy =                -727.2566250193825681
    Two-Electron Energy =                 277.2313349387917469
    DFT Exchange-Correlation Energy =       0.0000000000000000
    Empirical Dispersion Energy =           0.0000000000000000
    PCM Polarization Energy =               0.0000000000000000
    EFP Energy =                            0.0000000000000000
    Total Energy =                       -266.8358293052639283
    Molecular point group: c1
  Basis Set: 6-31G*
  Basis Set:

  -Total Gradient:
     Atom            X                  Y                   Z
    ------   -----------------  -----------------  -----------------
       1        0.000027720164     0.000028110963    -0.000067957355
       2       -0.000523790740     0.001262861364     0.000244191328
       3       -0.000020190632    -0.000013122824    -0.000000533914
       4        0.000687766669    -0.001474884006    -0.000116450592
       5       -0.000000897739    -0.000005369149     0.000001435979
       6       -0.000005383278    -0.000003117923    -0.000002176789
       7       -0.000004978082    -0.000001721391    -0.000002412715
       8        0.000403940175    -0.001055456922    -0.000835703353
       9       -0.000537627379     0.001267449142     0.000748361620
      10        0.000012265561     0.000004335275     0.000005005303
      11       -0.000038824719    -0.000009084530     0.000026240488

  **** Optimization is complete! (in 6 steps) ****
    Final optimized geometry and variables:
    Molecular point group: c1

    Geometry (in Angstrom), charge = 0, multiplicity = 1:

    O            0.285930624025    -0.140303299102     1.323802938078
    C           -0.317521408828    -0.184004591131     0.301509425339
    C           -1.723285850434    -0.697223319475     0.147989458594
    O            0.177121620117     0.218710757975    -0.861926410425
    H           -2.356204242448     0.084041740524    -0.256583474468
    H           -2.098366548244    -1.018217991934     1.108207243646
    H           -1.735705035396    -1.525066879260    -0.551485957675
    C            1.487460431755     0.757529485163    -0.868006632903
    H            1.568885547739     1.334930376409    -1.775932863740
    H            2.218317232482    -0.039550783413    -0.861788105035
    H            1.642703780378     1.392336226650    -0.009632442332

  Mulliken Charges: (a.u.)
   Center  Symbol    Alpha    Beta     Spin     Total
       1     O     4.28191  4.28191  0.00000 -0.56382
       2     C     2.62245  2.62245  0.00000  0.75511
       3     C     3.28180  3.28180  0.00000 -0.56360
       4     O     4.29995  4.29995  0.00000 -0.59991
       5     H     0.40009  0.40009  0.00000  0.19982
       6     H     0.39664  0.39664  0.00000  0.20672
       7     H     0.39982  0.39982  0.00000  0.20035
       8     C     3.09376  3.09376  0.00000 -0.18752
       9     H     0.40895  0.40895  0.00000  0.18210
      10     H     0.41176  0.41176  0.00000  0.17647
      11     H     0.40287  0.40287  0.00000  0.19427

   Total alpha = 20.00000, Total beta = 20.00000, Total charge = -0.00000
