  ==> Input File <==

--------------------------------------------------------------------------
set {
	reference rhf
	basis 6-31G*
}

set_num_threads( 4 )
memory 2 gb

molecule MOL {
0 1

H	 2.424108	 0.981083	 -2.410033
O	 2.818108	 0.378791	 -3.024102
C	 3.089997	 -0.841281	 -2.382577
C	 1.837204	 -1.661102	 -2.094258
H	 3.738566	 -1.388855	 -3.054289
H	 3.647249	 -0.671848	 -1.461957
C	 0.869791	 -0.995051	 -1.112751
H	 1.327551	 -1.854323	 -3.034623
H	 2.147519	 -2.626285	 -1.697404
C	 -0.350688	 -1.866210	 -0.802377
H	 0.541884	 -0.044478	 -1.524155
H	 1.394000	 -0.770676	 -0.183665
C	 -1.309753	 -1.282496	 0.241564
H	 -0.896412	 -2.059330	 -1.724190
H	 -0.003598	 -2.834402	 -0.447647
C	 -2.037799	 -0.007733	 -0.193645
H	 -2.052144	 -2.039804	 0.484786
H	 -0.763148	 -1.088947	 1.163301
C	 -3.489788	 0.042957	 0.286558
H	 -2.017067	 0.064384	 -1.280144
H	 -1.513726	 0.868678	 0.179924
C	 -4.216917	 1.317354	 -0.141063
H	 -4.025645	 -0.823308	 -0.095450
H	 -3.513059	 -0.038752	 1.371301
H	 -4.239342	 1.411634	 -1.223113
H	 -5.243387	 1.322503	 0.212445
H	 -3.726170	 2.201406	 0.256408

	symmetry c1
}
set optking {
	frozen_dihedral = ("
		10 13 16 20
	")
}

ee = optimize('scf')
oeprop('DIPOLE', 'QUADRUPOLE', 'MULLIKEN_CHARGES')
f=open( 'psi4out.xyz', 'w' )
f.write( "27  " )
f.write( str(ee) + "\n" )
f.write( MOL.save_string_xyz() )
f.close()
--------------------------------------------------------------------------

    Molecular point group: c1
  Charge       = 0
  Multiplicity = 1
  Basis Set: 6-31G*
  Basis Set:
  @DF-RHF Final Energy:  -388.27855028170762
    Total Energy =                       -388.2785502817080214
    Molecular point group: c1
  Basis Set: 6-31G*
  Basis Set:
  Basis Set: 6-31G*
  Basis Set:
  @DF-RHF Final Energy:  -388.27872681662433
    Total Energy =                       -388.2787268166249532
  Basis Set: 6-31G*
  Basis Set:
  Basis Set: 6-31G*
  Basis Set:
  @DF-RHF Final Energy:  -388.27885976370993
    Total Energy =                       -388.2788597637093062
  Basis Set: 6-31G*
  Basis Set:
  Basis Set: 6-31G*
  Basis Set:
  @DF-RHF Final Energy:  -388.27887714395877
    Total Energy =                       -388.2788771439585389
  Basis Set: 6-31G*
  Basis Set:
  Basis Set: 6-31G*
  Basis Set:
  @DF-RHF Final Energy:  -388.27888222003440
    Total Energy =                       -388.2788822200345749
  Basis Set: 6-31G*
  Basis Set:
  Basis Set: 6-31G*
  Basis Set:
  @DF-RHF Final Energy:  -388.27888349939639
    Total Energy =                       -388.2788834993958744
  Basis Set: 6-31G*
  Basis Set:
  Charge       = 0
  Multiplicity = 1
  Basis Set: 6-31G*
  Basis Set:

    Orbital Energies (a.u.)
    -----------------------

    Doubly Occupied:

       1A    -20.552159     2A    -11.266945     3A    -11.219641
       4A    -11.217333     5A    -11.216458     6A    -11.215364
       7A    -11.215134     8A    -11.214382     9A    -11.209175
      10A     -1.358924    11A     -1.094711    12A     -1.060993
      13A     -1.011452    14A     -0.947516    15A     -0.888181
      16A     -0.820774    17A     -0.802944    18A     -0.777075
      19A     -0.693546    20A     -0.653962    21A     -0.629819
      22A     -0.615790    23A     -0.603031    24A     -0.585292
      25A     -0.578407    26A     -0.553614    27A     -0.538438
      28A     -0.531796    29A     -0.505639    30A     -0.493975
      31A     -0.484214    32A     -0.475560    33A     -0.470855
      34A     -0.456111    35A     -0.452397    36A     -0.442359
      37A     -0.422382

  @DF-RHF Final Energy:  -388.27888359779485

   => Energetics <=

    Nuclear Repulsion Energy =            460.0453140481374135
    One-Electron Energy =               -1438.0956879290449706
    Two-Electron Energy =                 589.7714902831128256
    DFT Exchange-Correlation Energy =       0.0000000000000000
    Empirical Dispersion Energy =           0.0000000000000000
    PCM Polarization Energy =               0.0000000000000000
    EFP Energy =                            0.0000000000000000
    Total Energy =                       -388.2788835977946746
    Molecular point group: c1
  Basis Set: 6-31G*
  Basis Set:

  -Total Gradient:
     Atom            X                  Y                   Z
    ------   -----------------  -----------------  -----------------
       1       -0.000000834563     0.000000189607     0.000001346928
       2       -0.000001058990     0.000003262685    -0.000002219728
       3       -0.000001529901    -0.000002310238     0.000002736679
       4       -0.000000904019    -0.000002176046    -0.000003474800
       5        0.000000030620     0.000000185667     0.000000029975
       6       -0.000000118013    -0.000000737570    -0.000000090311
       7        0.000000938325     0.000003789909     0.000003734701
       8        0.000000228246    -0.000001510992    -0.000002398600
       9       -0.000001011059     0.000001179531    -0.000000855499
      10       -0.002099089689    -0.001598924670    -0.001057870369
      11        0.000006110897    -0.000005255100    -0.000006218652
      12       -0.000001555648     0.000002688832     0.000005716320
      13        0.003758314433     0.002756007506     0.001534651115
      14        0.000001344550     0.000004438632    -0.000002251704
      15       -0.000006179419    -0.000002441353    -0.000000316343
      16       -0.004988218039    -0.003136458677    -0.000673161959
      17       -0.000004760800     0.000008181571     0.000002008453
      18        0.000008854941     0.000009107988    -0.000001200100
      19       -0.000001778605    -0.000016441931    -0.000012053251
      20        0.003331640967     0.001975852860     0.000190517484
      21        0.000000114433    -0.000005252846     0.000012149418
      22        0.000003752254     0.000000715844     0.000001963492
      23       -0.000003557144     0.000001938265     0.000003214763
      24       -0.000002362698     0.000003311774     0.000002054017
      25        0.000000369512    -0.000001241084     0.000000857278
      26        0.000001901319    -0.000000542618     0.000001317126
      27       -0.000000641923     0.000002442455    -0.000000186431

  **** Optimization is complete! (in 7 steps) ****
    Final optimized geometry and variables:
    Molecular point group: c1

    Geometry (in Angstrom), charge = 0, multiplicity = 1:

    H            2.642886824136     1.518636203170    -1.312806410683
    O            3.035213271739     0.936904348169    -1.947479992457
    C            3.335436123820    -0.293573817201    -1.339430384222
    C            2.099019896819    -1.136288637279    -1.046567183937
    H            3.978110035297    -0.816677890771    -2.035827952243
    H            3.907974665348    -0.137659602878    -0.425830442263
    C            1.141050917433    -0.504460449434    -0.033999635486
    H            1.574913341733    -1.316442595147    -1.981572644855
    H            2.428918467662    -2.105449508529    -0.675970942539
    C           -0.060947626167    -1.396677553595     0.287202467316
    H            0.788196366281     0.449110771828    -0.419003988088
    H            1.679519082321    -0.288503371415     0.888883599175
    C           -1.033256099383    -0.798588373565     1.309112921672
    H           -0.602208004699    -1.616140408964    -0.631100905341
    H            0.302219174624    -2.350641726955     0.663773175994
    C           -1.762753441104     0.471677806960     0.831571637537
    H           -1.773196288142    -1.561062423856     1.543064136717
    H           -0.509945869164    -0.597237930539     2.241006519866
    C           -3.208450234784     0.565823266199     1.320372364545
    H           -1.733627007296     0.529793148762    -0.254953503765
    H           -1.221063326979     1.351865861048     1.172998764076
    C           -3.902911687119     1.857610936448     0.892222997593
    H           -3.768972858145    -0.288002029819     0.945841615998
    H           -3.225340687238     0.488367679459     2.405700616665
    H           -3.925718006267     1.949967031729    -0.190051140267
    H           -4.927966476862     1.890155969477     1.248336090841
    H           -3.388103623325     2.729272950408     1.286497449732

  Mulliken Charges: (a.u.)
   Center  Symbol    Alpha    Beta     Spin     Total
       1     H     0.27983  0.27983  0.00000  0.44035
       2     O     4.37100  4.37100  0.00000 -0.74200
       3     C     2.99734  2.99734  0.00000  0.00533
       4     C     3.16093  3.16093  0.00000 -0.32187
       5     H     0.41449  0.41449  0.00000  0.17101
       6     H     0.43204  0.43204  0.00000  0.13592
       7     C     3.16320  3.16320  0.00000 -0.32641
       8     H     0.41515  0.41515  0.00000  0.16970
       9     H     0.42431  0.42431  0.00000  0.15138
      10     C     3.15322  3.15322  0.00000 -0.30644
      11     H     0.42249  0.42249  0.00000  0.15501
      12     H     0.42545  0.42545  0.00000  0.14909
      13     C     3.15561  3.15561  0.00000 -0.31122
      14     H     0.42152  0.42152  0.00000  0.15697
      15     H     0.42200  0.42200  0.00000  0.15600
      16     C     3.15433  3.15433  0.00000 -0.30866
      17     H     0.41996  0.41996  0.00000  0.16008
      18     H     0.42187  0.42187  0.00000  0.15627
      19     C     3.15240  3.15240  0.00000 -0.30480
      20     H     0.42174  0.42174  0.00000  0.15651
      21     H     0.42363  0.42363  0.00000  0.15274
      22     C     3.23993  3.23993  0.00000 -0.47986
      23     H     0.42251  0.42251  0.00000  0.15498
      24     H     0.42257  0.42257  0.00000  0.15485
      25     H     0.42136  0.42136  0.00000  0.15728
      26     H     0.41913  0.41913  0.00000  0.16175
      27     H     0.42198  0.42198  0.00000  0.15604

   Total alpha = 37.00000, Total beta = 37.00000, Total charge =  0.00000
