                              Psi4 1.0.54 Driver

  ==> Input File <==

--------------------------------------------------------------------------
set {
	reference rhf
	basis cc-pvtz
}

set_num_threads( 4 )
memory 2 gb

molecule MOL {
0 1

H	 3.459101	 0.139266	 -0.762951
C	 2.749156	 -0.051729	 0.031265
C	 1.322304	 0.099773	 -0.484271
H	 2.929445	 -1.053887	 0.403481
H	 2.954281	 0.646699	 0.834672
C	 0.308557	 -0.162619	 0.622645
H	 1.143368	 -0.594400	 -1.295960
H	 1.169532	 1.100095	 -0.870217
N	 -1.069352	 -0.004081	 0.085342
H	 0.371632	 -1.172932	 0.991288
H	 0.400391	 0.548875	 1.426218
O	 -1.486214	 1.100187	 -0.021402
O	 -1.668530	 -0.993721	 -0.172615

	symmetry c1
}
set optking {
	frozen_dihedral = ("
		12 9 6 3
	")
}

ee,wfn = optimize('scf', return_wfn=True)
oeprop( wfn, 'DIPOLE', 'QUADRUPOLE', 'MULLIKEN_CHARGES')
f=open( 'psi4out.xyz', 'w' )
f.write( "13  " )
f.write( str(ee) + "\n" )
f.write( MOL.save_string_xyz() )
f.close()
--------------------------------------------------------------------------

    Molecular point group: c1
  Charge       = 0
  Multiplicity = 1
  Basis Set: CC-PVTZ
  Basis Set:
  @DF-RHF Final Energy:  -321.86129877354404
    Total Energy =                       -321.8612987735441493
    Molecular point group: c1
  Basis Set: CC-PVTZ
  Basis Set:
  Basis Set: CC-PVTZ
  Basis Set:
  @DF-RHF Final Energy:  -321.85613074568482
    Total Energy =                       -321.8561307456847089
  Basis Set: CC-PVTZ
  Basis Set:
  Basis Set: CC-PVTZ
  Basis Set:
  @DF-RHF Final Energy:  -321.86028925511158
    Total Energy =                       -321.8602892551115247
  Basis Set: CC-PVTZ
  Basis Set:
  Basis Set: CC-PVTZ
  Basis Set:
  @DF-RHF Final Energy:  -321.86149071362388
    Total Energy =                       -321.8614907136237662
  Basis Set: CC-PVTZ
  Basis Set:
  Basis Set: CC-PVTZ
  Basis Set:
  @DF-RHF Final Energy:  -321.86150920595037
    Total Energy =                       -321.8615092059501421
  Basis Set: CC-PVTZ
  Basis Set:
  Charge       = 0
  Multiplicity = 1
  Basis Set: CC-PVTZ
  Basis Set:

    Orbital Energies (a.u.)
    -----------------------

    Doubly Occupied:

       1A    -20.591223     2A    -20.589492     3A    -15.836951
       4A    -11.297344     5A    -11.254078     6A    -11.237207
       7A     -1.636070     8A     -1.420284     9A     -1.134278
      10A     -1.027900    11A     -0.884089    12A     -0.834279
      13A     -0.761684    14A     -0.738797    15A     -0.727692
      16A     -0.673217    17A     -0.604218    18A     -0.588274
      19A     -0.551468    20A     -0.520764    21A     -0.514610
      22A     -0.486941    23A     -0.475155    24A     -0.452944

  @DF-RHF Final Energy:  -321.86151118411601

   => Energetics <=

    Nuclear Repulsion Energy =            248.0035278306094142
    One-Electron Energy =                -930.0521575485420271
    Two-Electron Energy =                 360.1871185338166015
    DFT Exchange-Correlation Energy =       0.0000000000000000
    Empirical Dispersion Energy =           0.0000000000000000
    PCM Polarization Energy =               0.0000000000000000
    EFP Energy =                            0.0000000000000000
    Total Energy =                       -321.8615111841160115
    Molecular point group: c1
  Basis Set: CC-PVTZ
  Basis Set:

  -Total Gradient:
     Atom            X                  Y                   Z
    ------   -----------------  -----------------  -----------------
       1        0.000004677337    -0.000001693914    -0.000001381170
       2        0.000002588747    -0.000011419008    -0.000008425206
       3        0.000016339750     0.000158757636     0.000047883584
       4        0.000000719389     0.000002090700     0.000001619265
       5       -0.000002497944     0.000001325033    -0.000001295388
       6       -0.000002128066    -0.000237141125    -0.000058219963
       7       -0.000001826605    -0.000002128463     0.000009745730
       8       -0.000002450317     0.000000170065     0.000000790966
       9        0.000060809627     0.000052072489     0.000173176377
      10        0.000035369029     0.000003708639     0.000015379791
      11        0.000029362930    -0.000003857095    -0.000011496842
      12       -0.000076127586    -0.000185992223    -0.000195371903
      13       -0.000064836287     0.000224107265     0.000027594757

  **** Optimization is complete! (in 6 steps) ****
    Final optimized geometry and variables:
    Molecular point group: c1

    Geometry (in Angstrom), charge = 0, multiplicity = 1:

    H            3.457697544266     0.077720149939    -0.786986092233
    C            2.749286640509    -0.099339597026     0.011819453573
    C            1.322484445035     0.083530261901    -0.493754711877
    H            2.911384016740    -1.105303029411     0.382061778826
    H            2.974403279545     0.593934858312     0.814430972116
    C            0.311318810291    -0.163176687817     0.618796846233
    H            1.125411629644    -0.604977454452    -1.306993507904
    H            1.186245758452     1.086932169870    -0.875683077960
    N           -1.069005225024     0.012557061457     0.092258783792
    H            0.362814049664    -1.170423936107     0.995754807182
    H            0.418041950006     0.553203498927     1.417272832005
    O           -1.469634082340     1.123500916621    -0.011753190831
    O           -1.666427033263    -0.964365317203    -0.212012320674

  Mulliken Charges: (a.u.)
   Center  Symbol    Alpha    Beta     Spin     Total
       1     H     0.44166  0.44166  0.00000  0.11669
       2     C     3.15110  3.15110  0.00000 -0.30219
       3     C     3.09606  3.09606  0.00000 -0.19212
       4     H     0.45161  0.45161  0.00000  0.09678
       5     H     0.45164  0.45164  0.00000  0.09671
       6     C     3.03937  3.03937  0.00000 -0.07874
       7     H     0.43973  0.43973  0.00000  0.12054
       8     H     0.43630  0.43630  0.00000  0.12741
       9     N     3.27615  3.27615  0.00000  0.44770
      10     H     0.43401  0.43401  0.00000  0.13198
      11     H     0.43531  0.43531  0.00000  0.12938
      12     O     4.17498  4.17498  0.00000 -0.34996
      13     O     4.17209  4.17209  0.00000 -0.34418

   Total alpha = 24.00000, Total beta = 24.00000, Total charge =  0.00000

*** Psi4 exiting successfully. Buy a developer a beer!
