  ==> Input File <==

--------------------------------------------------------------------------
set {
	reference rhf
	basis 6-31G*
}

set_num_threads( 4 )
memory 2 gb

molecule MOL {
0 1

H	 -1.515081	 -0.248720	 -0.153545
N	 -0.626943	 -0.667432	 -0.000092
C	 -0.571943	 -2.096309	 0.209676
C	 0.469286	 0.129090	 0.000148
H	 -1.146986	 -2.382992	 1.083830
H	 0.458073	 -2.375155	 0.361467
H	 -0.958217	 -2.630985	 -0.651686
C	 1.788933	 -0.616240	 -0.000037
O	 0.411098	 1.327768	 -0.000049
H	 1.872803	 -1.245775	 -0.880381
H	 2.595421	 0.101576	 0.003713
H	 1.870096	 -1.252171	 0.875943

	symmetry c1
}
set optking {
	frozen_dihedral = ("
		3 2 4 9
	")
}

ee = optimize('scf')
oeprop('DIPOLE', 'QUADRUPOLE', 'MULLIKEN_CHARGES')
f=open( 'psi4out.xyz', 'w' )
f.write( "12  " )
f.write( str(ee) + "\n" )
f.write( MOL.save_string_xyz() )
f.close()
--------------------------------------------------------------------------

    Molecular point group: c1
  Charge       = 0
  Multiplicity = 1
  Basis Set: 6-31G*
  Basis Set:
  @DF-RHF Final Energy:  -246.99473969606993
    Total Energy =                       -246.9947396960700416
    Molecular point group: c1
  Basis Set: 6-31G*
  Basis Set:
  Basis Set: 6-31G*
  Basis Set:
  @DF-RHF Final Energy:  -246.99678997514548
    Total Energy =                       -246.9967899751453615
  Basis Set: 6-31G*
  Basis Set:
  Basis Set: 6-31G*
  Basis Set:
  @DF-RHF Final Energy:  -246.99999750937840
    Total Energy =                       -246.9999975093783746
  Basis Set: 6-31G*
  Basis Set:
  Basis Set: 6-31G*
  Basis Set:
  @DF-RHF Final Energy:  -247.00064638188638
    Total Energy =                       -247.0006463818863267
  Basis Set: 6-31G*
  Basis Set:
  @DF-RHF Final Energy:  -247.00078879883245
    Total Energy =                       -247.0007887988323318
  @DF-RHF Final Energy:  -247.00081902790257
    Total Energy =                       -247.0008190279025939
  @DF-RHF Final Energy:  -247.00083442708296
    Total Energy =                       -247.0008344270830776
  @DF-RHF Final Energy:  -247.00084937427590
    Total Energy =                       -247.0008493742758446
  @DF-RHF Final Energy:  -247.00089542204117
    Total Energy =                       -247.0008954220411965
  @DF-RHF Final Energy:  -246.99934984323792
    Total Energy =                       -246.9993498432378942
  @DF-RHF Final Energy:  -247.00100054986203
    Total Energy =                       -247.0010005498618852
  @DF-RHF Final Energy:  -247.00104884707176
    Total Energy =                       -247.0010488470718428
  @DF-RHF Final Energy:  -247.00110364479721
    Total Energy =                       -247.0011036447970127
  @DF-RHF Final Energy:  -247.00115272864997
    Total Energy =                       -247.0011527286496857
  @DF-RHF Final Energy:  -247.00128771139185
    Total Energy =                       -247.0012877113917398
  @DF-RHF Final Energy:  -246.99052984275642
    Total Energy =                       -246.9905298427563025
  @DF-RHF Final Energy:  -247.00081854179598
    Total Energy =                       -247.0008185417958657
  @DF-RHF Final Energy:  -247.00163758550065
    Total Energy =                       -247.0016375855005890
  @DF-RHF Final Energy:  -247.00176889631885
    Total Energy =                       -247.0017688963188220
  @DF-RHF Final Energy:  -247.00160046214899
    Total Energy =                       -247.0016004621490993
  Basis Set: 6-31G*
  Basis Set:
  @DF-RHF Final Energy:  -247.00182903881060
    Total Energy =                       -247.0018290388105697
  Basis Set: 6-31G*
  Basis Set:
  Basis Set: 6-31G*
  Basis Set:
  @DF-RHF Final Energy:  -247.00183802573460
    Total Energy =                       -247.0018380257345143
  Basis Set: 6-31G*
  Basis Set:
  Basis Set: 6-31G*
  Basis Set:
  @DF-RHF Final Energy:  -247.00183967679985
    Total Energy =                       -247.0018396767995910
  Basis Set: 6-31G*
  Basis Set:
  Charge       = 0
  Multiplicity = 1
  Basis Set: 6-31G*
  Basis Set:

    Orbital Energies (a.u.)
    -----------------------

    Doubly Occupied:

       1A    -20.514972     2A    -15.579640     3A    -11.343005
       4A    -11.271858     5A    -11.229420     6A     -1.383969
       7A     -1.228932     8A     -1.005263     9A     -0.957323
      10A     -0.782287    11A     -0.673358    12A     -0.666940
      13A     -0.640871    14A     -0.584911    15A     -0.577177
      16A     -0.561670    17A     -0.555911    18A     -0.514295
      19A     -0.411993    20A     -0.383300

  @DF-RHF Final Energy:  -247.00183975600856

   => Energetics <=

    Nuclear Repulsion Energy =            181.3312219735894928
    One-Electron Energy =                -694.9319369652120031
    Two-Electron Energy =                 266.5988752356138320
    DFT Exchange-Correlation Energy =       0.0000000000000000
    Empirical Dispersion Energy =           0.0000000000000000
    PCM Polarization Energy =               0.0000000000000000
    EFP Energy =                            0.0000000000000000
    Total Energy =                       -247.0018397560086214
    Molecular point group: c1
  Basis Set: 6-31G*
  Basis Set:

  -Total Gradient:
     Atom            X                  Y                   Z
    ------   -----------------  -----------------  -----------------
       1        0.000002689112     0.000008042693     0.000002213178
       2        0.000066917257    -0.000032657670    -0.000165388388
       3       -0.000039753119     0.000006001394     0.000135680658
       4        0.000028876767     0.000048227494    -0.000143261699
       5        0.000001193341     0.000020106343    -0.000009277540
       6       -0.000002826424    -0.000009642250     0.000012239413
       7        0.000002871722    -0.000004175245     0.000006180138
       8       -0.000013637971    -0.000011060763    -0.000004093174
       9       -0.000032129385    -0.000033238259     0.000185332462
      10        0.000009996267    -0.000009717057    -0.000007620588
      11       -0.000006388032     0.000007090437     0.000001028244
      12       -0.000017809538     0.000011022880    -0.000013032702

  **** Optimization is complete! (in 24 steps) ****
    Final optimized geometry and variables:
    Molecular point group: c1

    Geometry (in Angstrom), charge = 0, multiplicity = 1:

    H           -1.742545651300     0.168372981964    -0.228717255561
    N           -0.873934899945    -0.312221312699    -0.147440171587
    C           -0.908187672328    -1.722764553817     0.164588683857
    C            0.195633035987     0.520641208827    -0.051738353076
    H           -0.789794802608    -1.923673566758     1.226001291838
    H           -0.141142854143    -2.263106590989    -0.375553957095
    H           -1.865954970896    -2.116573306292    -0.147205362805
    C            1.544438719503    -0.125246968152     0.181514771275
    O            0.071940528752     1.708755288430    -0.166488582134
    H            1.796294583317    -0.798283090759    -0.631522609780
    H            2.286789904009     0.656288026918     0.240686683260
    H            1.552261743026    -0.699327696356     1.102236373411

  Mulliken Charges: (a.u.)
   Center  Symbol    Alpha    Beta     Spin     Total
       1     H     0.30559  0.30559  0.00000  0.38882
       2     N     3.88800  3.88800  0.00000 -0.77601
       3     C     3.13934  3.13934  0.00000 -0.27868
       4     C     2.63157  2.63157  0.00000  0.73686
       5     H     0.41506  0.41506  0.00000  0.16989
       6     H     0.41024  0.41024  0.00000  0.17952
       7     H     0.40685  0.40685  0.00000  0.18630
       8     C     3.29872  3.29872  0.00000 -0.59745
       9     O     4.29997  4.29997  0.00000 -0.59995
      10     H     0.40561  0.40561  0.00000  0.18878
      11     H     0.39100  0.39100  0.00000  0.21799
      12     H     0.40803  0.40803  0.00000  0.18393

   Total alpha = 20.00000, Total beta = 20.00000, Total charge =  0.00000
