                              Psi4 1.0.54 Driver

  ==> Input File <==

--------------------------------------------------------------------------
set {
	reference rhf
	basis cc-pvtz
}

set_num_threads( 4 )
memory 2 gb

molecule MOL {
0 1

H	 2.076651	 -0.317124	 -1.015320
O	 2.063695	 -0.083403	 -0.105237
C	 0.742924	 0.005675	 0.350750
H	 0.731380	 0.039219	 1.440080
C	 -0.064076	 -1.193495	 -0.124425
C	 -0.047832	 1.190568	 -0.194462
H	 0.194729	 -1.376165	 -1.161308
H	 0.163013	 -2.094508	 0.429933
C	 -1.533112	 -0.752002	 0.006102
H	 0.148003	 1.266545	 -1.259275
H	 0.226235	 2.136493	 0.259722
C	 -1.506634	 0.799189	 0.067162
H	 -2.124360	 -1.110499	 -0.826089
H	 -1.983103	 -1.158030	 0.903403
H	 -2.183808	 1.252169	 -0.644677
H	 -1.813926	 1.138698	 1.049457

	symmetry c1
}
set optking {
	frozen_dihedral = ("
		1 2 3 6
	")
}

ee,wfn = optimize('scf', return_wfn=True)
oeprop( wfn, 'DIPOLE', 'QUADRUPOLE', 'MULLIKEN_CHARGES')
f=open( 'psi4out.xyz', 'w' )
f.write( "16  " )
f.write( str(ee) + "\n" )
f.write( MOL.save_string_xyz() )
f.close()
--------------------------------------------------------------------------

    Molecular point group: c1
  Charge       = 0
  Multiplicity = 1
  Basis Set: CC-PVTZ
  Basis Set:
  @DF-RHF Final Energy:  -270.11439500901872
    Total Energy =                       -270.1143950090186081
    Molecular point group: c1
  Basis Set: CC-PVTZ
  Basis Set:
  Basis Set: CC-PVTZ
  Basis Set:
  @DF-RHF Final Energy:  -270.11618779175296
    Total Energy =                       -270.1161877917527931
  Basis Set: CC-PVTZ
  Basis Set:
  Basis Set: CC-PVTZ
  Basis Set:
  @DF-RHF Final Energy:  -270.11643638033235
    Total Energy =                       -270.1164363803322885
  Basis Set: CC-PVTZ
  Basis Set:
  Basis Set: CC-PVTZ
  Basis Set:
  @DF-RHF Final Energy:  -270.11644111894299
    Total Energy =                       -270.1164411189432144
  Basis Set: CC-PVTZ
  Basis Set:
  Charge       = 0
  Multiplicity = 1
  Basis Set: CC-PVTZ
  Basis Set:

    Orbital Energies (a.u.)
    -----------------------

    Doubly Occupied:

       1A    -20.545423     2A    -11.267587     3A    -11.217296
       4A    -11.216217     5A    -11.214071     6A    -11.210728
       7A     -1.366170     8A     -1.116582     9A     -0.969625
      10A     -0.949826    11A     -0.805320    12A     -0.783803
      13A     -0.683727    14A     -0.663478    15A     -0.609887
      16A     -0.587319    17A     -0.579599    18A     -0.549911
      19A     -0.506513    20A     -0.484591    21A     -0.473766
      22A     -0.459650    23A     -0.455433    24A     -0.414966

  @DF-RHF Final Energy:  -270.11644157555713

   => Energetics <=

    Nuclear Repulsion Energy =            255.4714097997606075
    One-Electron Energy =                -872.9127304733588062
    Two-Electron Energy =                 347.3248790980411513
    DFT Exchange-Correlation Energy =       0.0000000000000000
    Empirical Dispersion Energy =           0.0000000000000000
    PCM Polarization Energy =               0.0000000000000000
    EFP Energy =                            0.0000000000000000
    Total Energy =                       -270.1164415755570190
    Molecular point group: c1
  Basis Set: CC-PVTZ
  Basis Set:

  -Total Gradient:
     Atom            X                  Y                   Z
    ------   -----------------  -----------------  -----------------
       1       -0.000007945082    -0.000790721468     0.000163335267
       2        0.000027721146     0.001088504894     0.000018671872
       3       -0.000191405447    -0.000540615632    -0.000583666499
       4        0.000007849995     0.000003392573     0.000008909075
       5        0.000042897180     0.000031076318    -0.000048947396
       6        0.000154961511     0.000232656872     0.000396884585
       7       -0.000000324329    -0.000010934401     0.000009972991
       8        0.000008054156     0.000020444109     0.000006681664
       9       -0.000031707943     0.000016708705     0.000026018300
      10        0.000012860568    -0.000000510151    -0.000005053718
      11        0.000010726836    -0.000009263941    -0.000000058264
      12       -0.000002627322    -0.000027338326     0.000006295520
      13       -0.000008265552     0.000003328823    -0.000011416697
      14       -0.000016580275    -0.000000589037    -0.000011571798
      15       -0.000003188655    -0.000011553461     0.000012560788
      16       -0.000003026786    -0.000004585878     0.000011384309

  **** Optimization is complete! (in 5 steps) ****
    Final optimized geometry and variables:
    Molecular point group: c1

    Geometry (in Angstrom), charge = 0, multiplicity = 1:

    H            2.156072409267    -0.212307197410    -0.990272063601
    O            2.094393147637    -0.041679725478    -0.067334614618
    C            0.752225953377    -0.009713609978     0.322311601956
    H            0.771898795128     0.010357055410     1.406529743416
    C           -0.086278908722    -1.196437344273    -0.145924942964
    C           -0.039827594423     1.192654307062    -0.180532332952
    H            0.124432104884    -1.375155028286    -1.197995631163
    H            0.146718406182    -2.109251466673     0.386367122839
    C           -1.544235927114    -0.737706193131     0.035572210074
    H            0.119694526505     1.293361709553    -1.251808136376
    H            0.267204194010     2.121561394555     0.281990666016
    C           -1.494916693899     0.813068729347     0.114224031657
    H           -2.167892111425    -1.078651518117    -0.780256461180
    H           -1.968385433237    -1.149602446341     0.942455377279
    H           -2.188157343659     1.281356964567    -0.571687188712
    H           -1.769552091749     1.143191480310     1.109089410868

  Mulliken Charges: (a.u.)
   Center  Symbol    Alpha    Beta     Spin     Total
       1     H     0.39487  0.39487  0.00000  0.21026
       2     O     4.20683  4.20683  0.00000 -0.41367
       3     C     2.93362  2.93362  0.00000  0.13277
       4     H     0.44434  0.44434  0.00000  0.11133
       5     C     3.10801  3.10801  0.00000 -0.21602
       6     C     3.09823  3.09823  0.00000 -0.19646
       7     H     0.46018  0.46018  0.00000  0.07964
       8     H     0.44172  0.44172  0.00000  0.11656
       9     C     3.11042  3.11042  0.00000 -0.22083
      10     H     0.46108  0.46108  0.00000  0.07784
      11     H     0.44354  0.44354  0.00000  0.11291
      12     C     3.11305  3.11305  0.00000 -0.22609
      13     H     0.44530  0.44530  0.00000  0.10939
      14     H     0.44657  0.44657  0.00000  0.10685
      15     H     0.44354  0.44354  0.00000  0.11292
      16     H     0.44871  0.44871  0.00000  0.10259

   Total alpha = 24.00000, Total beta = 24.00000, Total charge = -0.00000

*** Psi4 exiting successfully. Buy a developer a beer!
