  ==> Input File <==

--------------------------------------------------------------------------
set {
	reference rhf
	basis 6-31G*
}

set_num_threads( 4 )
memory 2 gb

molecule MOL {
0 1

H	 -0.821032	 -1.655889	 0.000000
O	 -1.037828	 -0.728600	 0.000000
C	 0.100509	 -0.036935	 0.000000
C	 0.112967	 1.019156	 -1.067904
O	 0.978323	 -0.257695	 0.768069
H	 -0.018073	 0.556742	 -2.039355
H	 1.049014	 1.555712	 -1.035113
H	 -0.714226	 1.702466	 -0.914425

	symmetry c1
}
set optking {
	frozen_dihedral = ("
		4 3 2 1
	")
}

ee = optimize('scf')
oeprop('DIPOLE', 'QUADRUPOLE', 'MULLIKEN_CHARGES')
f=open( 'psi4out.xyz', 'w' )
f.write( "8  " )
f.write( str(ee) + "\n" )
f.write( MOL.save_string_xyz() )
f.close()
--------------------------------------------------------------------------

    Molecular point group: c1
  Charge       = 0
  Multiplicity = 1
  Basis Set: 6-31G*
  Basis Set:
  @DF-RHF Final Energy:  -227.79729013488310
    Total Energy =                       -227.7972901348829282
    Molecular point group: c1
  Basis Set: 6-31G*
  Basis Set:
  Basis Set: 6-31G*
  Basis Set:
  @DF-RHF Final Energy:  -227.79499897614278
    Total Energy =                       -227.7949989761428924
  Basis Set: 6-31G*
  Basis Set:
  Basis Set: 6-31G*
  Basis Set:
  @DF-RHF Final Energy:  -227.79815029974276
    Total Energy =                       -227.7981502997427299
  Basis Set: 6-31G*
  Basis Set:
  Basis Set: 6-31G*
  Basis Set:
  @DF-RHF Final Energy:  -227.79831935124724
    Total Energy =                       -227.7983193512472155
  Basis Set: 6-31G*
  Basis Set:
  @DF-RHF Final Energy:  -227.79838159190487
    Total Energy =                       -227.7983815919048709
  @DF-RHF Final Energy:  -227.79838913811122
    Total Energy =                       -227.7983891381111903
  @DF-RHF Final Energy:  -227.79838568636191
    Total Energy =                       -227.7983856863619962
  Basis Set: 6-31G*
  Basis Set:
  @DF-RHF Final Energy:  -227.79827236555818
    Total Energy =                       -227.7982723655582902
  Basis Set: 6-31G*
  Basis Set:
  Basis Set: 6-31G*
  Basis Set:
  @DF-RHF Final Energy:  -227.79840397190355
    Total Energy =                       -227.7984039719035252
  Basis Set: 6-31G*
  Basis Set:
  Basis Set: 6-31G*
  Basis Set:
  @DF-RHF Final Energy:  -227.79840634975804
    Total Energy =                       -227.7984063497581246
  Basis Set: 6-31G*
  Basis Set:
  Charge       = 0
  Multiplicity = 1
  Basis Set: 6-31G*
  Basis Set:

    Orbital Energies (a.u.)
    -----------------------

    Doubly Occupied:

       1A    -20.604699     2A    -20.558757     3A    -11.386624
       4A    -11.241097     5A     -1.468696     6A     -1.368938
       7A     -1.024770     8A     -0.828384     9A     -0.704171
      10A     -0.677879    11A     -0.656815    12A     -0.582794
      13A     -0.579620    14A     -0.535675    15A     -0.486294
      16A     -0.449478

  @DF-RHF Final Energy:  -227.79840706999715

   => Energetics <=

    Nuclear Repulsion Energy =            122.0717398371643725
    One-Electron Energy =                -553.4309091955591384
    Two-Electron Energy =                 203.5607622883975694
    DFT Exchange-Correlation Energy =       0.0000000000000000
    Empirical Dispersion Energy =           0.0000000000000000
    PCM Polarization Energy =               0.0000000000000000
    EFP Energy =                            0.0000000000000000
    Total Energy =                       -227.7984070699971824
    Molecular point group: c1
  Basis Set: 6-31G*
  Basis Set:

  -Total Gradient:
     Atom            X                  Y                   Z
    ------   -----------------  -----------------  -----------------
       1       -0.000661726339     0.000088433839    -0.012540728733
       2        0.001847799914    -0.002356611493     0.013177943840
       3       -0.003727705405     0.007735706385     0.004694620795
       4        0.002676095923    -0.005399351608    -0.005363437630
       5       -0.000065386575    -0.000045101546     0.000040495334
       6       -0.000023582240     0.000000617614     0.000003503653
       7       -0.000010202702    -0.000022835381    -0.000006467603
       8       -0.000035292578    -0.000000857808    -0.000005929660

  **** Optimization is complete! (in 11 steps) ****
    Final optimized geometry and variables:
    Molecular point group: c1

    Geometry (in Angstrom), charge = 0, multiplicity = 1:

    H           -0.933715807560    -1.591387008838     0.129914956456
    O           -1.092935185024    -0.654643114794     0.147364719432
    C            0.080318980442     0.007880978467     0.089453444628
    C            0.078662730967     1.075717562009    -0.967496161868
    O            1.018682880231    -0.307322343256     0.737430203545
    H            0.072495760261     0.582103183745    -1.933703822584
    H            0.962106573309     1.690121360048    -0.878042669402
    H           -0.815416566950     1.684030182077    -0.905801760829

  Mulliken Charges: (a.u.)
   Center  Symbol    Alpha    Beta     Spin     Total
       1     H     0.26526  0.26526  0.00000  0.46948
       2     O     4.35622  4.35622  0.00000 -0.71244
       3     C     2.64178  2.64178  0.00000  0.71645
       4     C     3.28258  3.28258  0.00000 -0.56516
       5     O     4.25889  4.25889  0.00000 -0.51779
       6     H     0.40040  0.40040  0.00000  0.19921
       7     H     0.39636  0.39636  0.00000  0.20727
       8     H     0.39851  0.39851  0.00000  0.20298

   Total alpha = 16.00000, Total beta = 16.00000, Total charge = -0.00000
