  ==> Input File <==

--------------------------------------------------------------------------
set {
	reference rhf
	basis cc-pvtz
}

set_num_threads( 4 )
memory 2 gb

molecule MOL {
0 1

H	 2.451673	 0.771689	 -0.141765
O	 2.063695	 -0.083403	 -0.105237
C	 0.742924	 0.005675	 0.350750
H	 0.731380	 0.039219	 1.440080
C	 -0.064076	 -1.193495	 -0.124425
C	 -0.047832	 1.190568	 -0.194462
H	 0.194729	 -1.376165	 -1.161308
H	 0.163013	 -2.094508	 0.429933
C	 -1.533112	 -0.752002	 0.006102
H	 0.148003	 1.266545	 -1.259275
H	 0.226235	 2.136493	 0.259722
C	 -1.506634	 0.799189	 0.067162
H	 -2.124360	 -1.110499	 -0.826089
H	 -1.983103	 -1.158030	 0.903403
H	 -2.183808	 1.252169	 -0.644677
H	 -1.813926	 1.138698	 1.049457

	symmetry c1
}
set optking {
	frozen_dihedral = ("
		1 2 3 6
	")
}

ee = optimize('scf')
oeprop('DIPOLE', 'QUADRUPOLE', 'MULLIKEN_CHARGES')
f=open( 'psi4out.xyz', 'w' )
f.write( "16  " )
f.write( str(ee) + "\n" )
f.write( MOL.save_string_xyz() )
f.close()
--------------------------------------------------------------------------

    Molecular point group: c1
  Charge       = 0
  Multiplicity = 1
  Basis Set: CC-PVTZ
  Basis Set:
  @DF-RHF Final Energy:  -270.11606736616852
    Total Energy =                       -270.1160673661686360
    Molecular point group: c1
  Basis Set: CC-PVTZ
  Basis Set:
  Basis Set: CC-PVTZ
  Basis Set:
  @DF-RHF Final Energy:  -270.11611684661705
    Total Energy =                       -270.1161168466171034
  Basis Set: CC-PVTZ
  Basis Set:
  Basis Set: CC-PVTZ
  Basis Set:
  @DF-RHF Final Energy:  -270.11612788252540
    Total Energy =                       -270.1161278825254612
  Basis Set: CC-PVTZ
  Basis Set:
  Basis Set: CC-PVTZ
  Basis Set:
  @DF-RHF Final Energy:  -270.11612921849911
    Total Energy =                       -270.1161292184989406
  Basis Set: CC-PVTZ
  Basis Set:
  Basis Set: CC-PVTZ
  Basis Set:
  @DF-RHF Final Energy:  -270.11613056938620
    Total Energy =                       -270.1161305693864279
  Basis Set: CC-PVTZ
  Basis Set:
  Charge       = 0
  Multiplicity = 1
  Basis Set: CC-PVTZ
  Basis Set:

    Orbital Energies (a.u.)
    -----------------------

    Doubly Occupied:

       1A    -20.544849     2A    -11.266957     3A    -11.216878
       4A    -11.214250     5A    -11.214170     6A    -11.207222
       7A     -1.365182     8A     -1.116095     9A     -0.968547
      10A     -0.949634    11A     -0.795036    12A     -0.778486
      13A     -0.696894    14A     -0.662793    15A     -0.615993
      16A     -0.597624    17A     -0.572582    18A     -0.527974
      19A     -0.502746    20A     -0.483689    21A     -0.472350
      22A     -0.457754    23A     -0.446484    24A     -0.425891

  @DF-RHF Final Energy:  -270.11613073208645

   => Energetics <=

    Nuclear Repulsion Energy =            255.6558782120560522
    One-Electron Energy =                -873.3438541604003831
    Two-Electron Energy =                 347.5718452162579410
    DFT Exchange-Correlation Energy =       0.0000000000000000
    Empirical Dispersion Energy =           0.0000000000000000
    PCM Polarization Energy =               0.0000000000000000
    EFP Energy =                            0.0000000000000000
    Total Energy =                       -270.1161307320863330
    Molecular point group: c1
  Basis Set: CC-PVTZ
  Basis Set:

  -Total Gradient:
     Atom            X                  Y                   Z
    ------   -----------------  -----------------  -----------------
       1       -0.000550361962     0.000195142359    -0.001675707387
       2        0.000674146517     0.000119063533     0.002398254474
       3       -0.000607788104    -0.001166951187    -0.001627347404
       4       -0.000061370759     0.000197603738    -0.000007329571
       5        0.000278776370     0.000080803188    -0.000049055010
       6        0.000682082406     0.000609308608     0.001045156885
       7       -0.000089068649    -0.000060125366    -0.000032430246
       8       -0.000023186452     0.000014513253     0.000030203466
       9       -0.000119154497    -0.000051397189    -0.000082260912
      10       -0.000013798123    -0.000012022645    -0.000012261099
      11       -0.000071096233     0.000043118839    -0.000051658357
      12       -0.000090043628     0.000048848109     0.000059647225
      13        0.000007140329     0.000003745690    -0.000003434101
      14       -0.000007451516     0.000001050753    -0.000000948814
      15       -0.000005770110     0.000006656804    -0.000005057322
      16       -0.000003055591    -0.000029358487     0.000014228171

  **** Optimization is complete! (in 6 steps) ****
    Final optimized geometry and variables:
    Molecular point group: c1

    Geometry (in Angstrom), charge = 0, multiplicity = 1:

    H            2.458902684341     0.774657471829    -0.106799940952
    O            2.070933229462    -0.080701082684    -0.087485629928
    C            0.742050620970     0.000541740655     0.346704420653
    H            0.720821106970     0.035411844159     1.436023719657
    C           -0.065469507931    -1.196190288654    -0.131919863988
    C           -0.045651520209     1.188321448813    -0.193498102530
    H            0.180057122003    -1.370068408165    -1.173509351423
    H            0.166389543879    -2.102034240173     0.412596311272
    C           -1.532494607854    -0.754656109001     0.020643722597
    H            0.145788847415     1.271804669784    -1.259444876302
    H            0.229120425007     2.130827401402     0.267436703299
    C           -1.506088933837     0.797495035826     0.066261192005
    H           -2.139168238819    -1.122565024005    -0.796130462440
    H           -1.964751152864    -1.150878567358     0.930890796690
    H           -2.179103502198     1.243273292403    -0.653956224910
    H           -1.817746927821     1.147523057706     1.043137666215

  Mulliken Charges: (a.u.)
   Center  Symbol    Alpha    Beta     Spin     Total
       1     H     0.39306  0.39306  0.00000  0.21388
       2     O     4.20346  4.20346  0.00000 -0.40693
       3     C     2.92234  2.92234  0.00000  0.15531
       4     H     0.46476  0.46476  0.00000  0.07048
       5     C     3.09932  3.09932  0.00000 -0.19864
       6     C     3.11132  3.11132  0.00000 -0.22263
       7     H     0.45263  0.45263  0.00000  0.09475
       8     H     0.44249  0.44249  0.00000  0.11501
       9     C     3.11125  3.11125  0.00000 -0.22251
      10     H     0.45314  0.45314  0.00000  0.09372
      11     H     0.44663  0.44663  0.00000  0.10674
      12     C     3.11326  3.11326  0.00000 -0.22651
      13     H     0.44509  0.44509  0.00000  0.10983
      14     H     0.44838  0.44838  0.00000  0.10323
      15     H     0.44335  0.44335  0.00000  0.11330
      16     H     0.44952  0.44952  0.00000  0.10096

   Total alpha = 24.00000, Total beta = 24.00000, Total charge =  0.00000
