                              Psi4 1.0.54 Driver

  ==> Input File <==

--------------------------------------------------------------------------
set {
	reference rhf
	basis cc-pvtz
}

set_num_threads( 4 )
memory 2 gb

molecule MOL {
0 1

H	 -1.752232	 -2.214755	 -0.011938
C	 -1.343852	 -1.221619	 -0.018179
N	 -0.058800	 -1.097635	 -0.261688
C	 -2.148159	 -0.124236	 0.219734
C	 0.449026	 0.119242	 -0.273393
H	 -3.196988	 -0.237571	 0.417076
N	 -1.655094	 1.094230	 0.209506
C	 -0.370318	 1.215445	 -0.035100
C	 1.924033	 0.265863	 -0.538106
H	 0.033214	 2.210441	 -0.046812
C	 2.666741	 -1.070437	 -0.491889
H	 2.048607	 0.712988	 -1.517046
H	 2.352610	 0.950004	 0.184727
H	 3.716387	 -0.928978	 -0.720292
H	 2.251642	 -1.762096	 -1.213193
H	 2.594743	 -1.523177	 0.490654

	symmetry c1
}
set optking {
	frozen_dihedral = ("
		12 9 5 3
	")
}

ee,wfn = optimize('scf', return_wfn=True)
oeprop( wfn, 'DIPOLE', 'QUADRUPOLE', 'MULLIKEN_CHARGES')
f=open( 'psi4out.xyz', 'w' )
f.write( "16  " )
f.write( str(ee) + "\n" )
f.write( MOL.save_string_xyz() )
f.close()
--------------------------------------------------------------------------

    Molecular point group: c1
  Charge       = 0
  Multiplicity = 1
  Basis Set: CC-PVTZ
  Basis Set:
  @DF-RHF Final Energy:  -340.87012214501573
    Total Energy =                       -340.8701221450156709
    Molecular point group: c1
  Basis Set: CC-PVTZ
  Basis Set:
  Basis Set: CC-PVTZ
  Basis Set:
  @DF-RHF Final Energy:  -340.85185540173791
    Total Energy =                       -340.8518554017379074
  Basis Set: CC-PVTZ
  Basis Set:
  Basis Set: CC-PVTZ
  Basis Set:
  @DF-RHF Final Energy:  -340.87076108409394
    Total Energy =                       -340.8707610840937718
  Basis Set: CC-PVTZ
  Basis Set:
  Basis Set: CC-PVTZ
  Basis Set:
  @DF-RHF Final Energy:  -340.87099213439581
    Total Energy =                       -340.8709921343958058
  Basis Set: CC-PVTZ
  Basis Set:
  @DF-RHF Final Energy:  -340.87101504329354
    Total Energy =                       -340.8710150432933688
  Basis Set: CC-PVTZ
  Basis Set:
  @DF-RHF Final Energy:  -340.87103435663408
    Total Energy =                       -340.8710343566338565
  Basis Set: CC-PVTZ
  Basis Set:
  Basis Set: CC-PVTZ
  Basis Set:
  @DF-RHF Final Energy:  -340.87103795372565
    Total Energy =                       -340.8710379537258177
  Basis Set: CC-PVTZ
  Basis Set:
  Basis Set: CC-PVTZ
  Basis Set:
  @DF-RHF Final Energy:  -340.87103945147896
    Total Energy =                       -340.8710394514789641
  Basis Set: CC-PVTZ
  Basis Set:
  Charge       = 0
  Multiplicity = 1
  Basis Set: CC-PVTZ
  Basis Set:

    Orbital Energies (a.u.)
    -----------------------

    Doubly Occupied:

       1A    -15.580320     2A    -15.574936     3A    -11.280538
       4A    -11.270596     5A    -11.269305     6A    -11.265936
       7A    -11.233636     8A    -11.211101     9A     -1.315780
      10A     -1.223895    11A     -1.084783    12A     -1.015218
      13A     -0.912274    14A     -0.890465    15A     -0.825177
      16A     -0.720523    17A     -0.708185    18A     -0.658113
      19A     -0.629747    20A     -0.604284    21A     -0.569853
      22A     -0.560709    23A     -0.523356    24A     -0.504276
      25A     -0.501847    26A     -0.487490    27A     -0.434943
      28A     -0.397225    29A     -0.345558

  @DF-RHF Final Energy:  -340.87103961748267

   => Energetics <=

    Nuclear Repulsion Energy =            350.4091424554070500
    One-Electron Energy =               -1155.3602302642102586
    Two-Electron Energy =                 464.0800481913205431
    DFT Exchange-Correlation Energy =       0.0000000000000000
    Empirical Dispersion Energy =           0.0000000000000000
    PCM Polarization Energy =               0.0000000000000000
    EFP Energy =                            0.0000000000000000
    Total Energy =                       -340.8710396174826656
    Molecular point group: c1
  Basis Set: CC-PVTZ
  Basis Set:

  -Total Gradient:
     Atom            X                  Y                   Z
    ------   -----------------  -----------------  -----------------
       1        0.000003422677     0.000000095380    -0.000003236300
       2        0.000010540963     0.000002483312     0.000004522146
       3        0.000045732172    -0.000053872225     0.000169996115
       4        0.000004211701     0.000003857981     0.000015091201
       5       -0.000052365534     0.000109853511    -0.000210068191
       6       -0.000003191359     0.000006477671    -0.000007097376
       7       -0.000000378702    -0.000000858516     0.000006362174
       8       -0.000017240376     0.000003868987    -0.000022159731
       9       -0.000029266839    -0.000254075086    -0.000076680111
      10       -0.000000921073     0.000000095286     0.000003220383
      11       -0.000003799094     0.000005637564    -0.000011756608
      12        0.000043375207     0.000175391170     0.000125900757
      13       -0.000007217391     0.000002176258    -0.000001082239
      14        0.000000876499    -0.000003343520     0.000001423941
      15        0.000004968983     0.000000597108     0.000006997330
      16        0.000001252166     0.000001615119    -0.000001433492

  **** Optimization is complete! (in 9 steps) ****
    Final optimized geometry and variables:
    Molecular point group: c1

    Geometry (in Angstrom), charge = 0, multiplicity = 1:

    H           -2.206122912063    -1.642633959974    -0.069549093319
    C           -1.572672284411    -0.785007429190     0.054901762925
    N           -0.295824191589    -0.927447433403    -0.255075187826
    C           -2.076905355022     0.405094563563     0.518607830191
    C            0.488318692265     0.111767672783    -0.106632199715
    H           -3.114912998609     0.512044904970     0.767673393725
    N           -1.297063897022     1.460991253394     0.676305928199
    C           -0.036019819578     1.316166430284     0.370063363741
    C            1.952922682188     0.007592137607    -0.464088189122
    H            0.602652787194     2.170635916447     0.499875143310
    C            2.456555819076    -1.411259087156    -0.690176513172
    H            2.125877021165     0.602927895861    -1.356529346993
    H            2.529811153687     0.482374419879     0.322995496780
    H            3.514486748186    -1.392808564476    -0.923396002305
    H            1.933830673290    -1.888444309621    -1.507162634821
    H            2.313067999244    -2.022728455383     0.191687445243

  Mulliken Charges: (a.u.)
   Center  Symbol    Alpha    Beta     Spin     Total
       1     H     0.41469  0.41469  0.00000  0.17063
       2     C     3.04806  3.04806  0.00000 -0.09611
       3     N     3.58912  3.58912  0.00000 -0.17824
       4     C     3.04692  3.04692  0.00000 -0.09383
       5     C     2.94520  2.94520  0.00000  0.10960
       6     H     0.41363  0.41363  0.00000  0.17273
       7     N     3.58678  3.58678  0.00000 -0.17356
       8     C     3.07415  3.07415  0.00000 -0.14831
       9     C     3.08084  3.08084  0.00000 -0.16168
      10     H     0.41626  0.41626  0.00000  0.16747
      11     C     3.14372  3.14372  0.00000 -0.28745
      12     H     0.44598  0.44598  0.00000  0.10804
      13     H     0.44737  0.44737  0.00000  0.10525
      14     H     0.45015  0.45015  0.00000  0.09970
      15     H     0.44651  0.44651  0.00000  0.10697
      16     H     0.45061  0.45061  0.00000  0.09879

   Total alpha = 29.00000, Total beta = 29.00000, Total charge = -0.00000

*** Psi4 exiting successfully. Buy a developer a beer!
