  ==> Input File <==

--------------------------------------------------------------------------
set {
	reference rhf
	basis cc-pvtz
}

set_num_threads( 4 )
memory 2 gb

molecule MOL {
0 1

O	 -0.988175	 -1.402891	 0.050086
C	 -0.675048	 -0.248293	 -0.009686
C	 -1.742492	 0.826599	 -0.011538
N	 0.622280	 0.144970	 -0.099307
H	 -1.692153	 1.431066	 -0.908439
H	 -2.698310	 0.331559	 0.031353
H	 -1.642148	 1.483784	 0.843455
C	 1.615152	 -0.814548	 -0.534599
C	 1.147503	 1.339335	 0.518259
H	 2.340434	 -0.320862	 -1.169787
H	 1.137427	 -1.604108	 -1.085556
H	 2.142073	 -1.248911	 0.311163
H	 1.948620	 1.733459	 -0.093716
H	 0.396958	 2.106193	 0.604901
H	 1.551911	 1.140350	 1.508159

	symmetry c1
}
set optking {
	frozen_dihedral = ("
		8 4 2 3
	")
}

ee = optimize('scf')
oeprop('DIPOLE', 'QUADRUPOLE', 'MULLIKEN_CHARGES')
f=open( 'psi4out.xyz', 'w' )
f.write( "15  " )
f.write( str(ee) + "\n" )
f.write( MOL.save_string_xyz() )
f.close()
--------------------------------------------------------------------------

    Molecular point group: c1
  Charge       = 0
  Multiplicity = 1
  Basis Set: CC-PVTZ
  Basis Set:
  @DF-RHF Final Energy:  -286.12966038858337
    Total Energy =                       -286.1296603885832042
    Molecular point group: c1
  Basis Set: CC-PVTZ
  Basis Set:
  Basis Set: CC-PVTZ
  Basis Set:
  @DF-RHF Final Energy:  -286.13000003071807
    Total Energy =                       -286.1300000307177243
  Basis Set: CC-PVTZ
  Basis Set:
  Basis Set: CC-PVTZ
  Basis Set:
  @DF-RHF Final Energy:  -286.13118069936951
    Total Energy =                       -286.1311806993694518
  Basis Set: CC-PVTZ
  Basis Set:
  Basis Set: CC-PVTZ
  Basis Set:
  @DF-RHF Final Energy:  -286.13170578767881
    Total Energy =                       -286.1317057876790955
  Basis Set: CC-PVTZ
  Basis Set:
  @DF-RHF Final Energy:  -286.13198139344325
    Total Energy =                       -286.1319813934430272
  @DF-RHF Final Energy:  -286.13218479217232
    Total Energy =                       -286.1321847921723247
  @DF-RHF Final Energy:  -286.13234320458474
    Total Energy =                       -286.1323432045849131
  @DF-RHF Final Energy:  -286.13247855725575
    Total Energy =                       -286.1324785572558085
  @DF-RHF Final Energy:  -286.13260518212167
    Total Energy =                       -286.1326051821216083
  @DF-RHF Final Energy:  -286.13295927315949
    Total Energy =                       -286.1329592731589173
  @DF-RHF Final Energy:  -286.13333412085382
    Total Energy =                       -286.1333341208534762
  @DF-RHF Final Energy:  -286.13391501719718
    Total Energy =                       -286.1339150171968413
  @DF-RHF Final Energy:  -286.13410414886198
    Total Energy =                       -286.1341041488622068
  @DF-RHF Final Energy:  -286.13420939694794
    Total Energy =                       -286.1342093969479947
  @DF-RHF Final Energy:  -286.13428491261766
    Total Energy =                       -286.1342849126173746
  @DF-RHF Final Energy:  -286.13433045389496
    Total Energy =                       -286.1343304538949610
  Basis Set: CC-PVTZ
  Basis Set:
  @DF-RHF Final Energy:  -286.13434760465952
    Total Energy =                       -286.1343476046596379
  Basis Set: CC-PVTZ
  Basis Set:
  Basis Set: CC-PVTZ
  Basis Set:
  @DF-RHF Final Energy:  -286.13435249023763
    Total Energy =                       -286.1343524902374611
  Basis Set: CC-PVTZ
  Basis Set:
  Basis Set: CC-PVTZ
  Basis Set:
  @DF-RHF Final Energy:  -286.13435401730811
    Total Energy =                       -286.1343540173079987
  Basis Set: CC-PVTZ
  Basis Set:
  Charge       = 0
  Multiplicity = 1
  Basis Set: CC-PVTZ
  Basis Set:

    Orbital Energies (a.u.)
    -----------------------

    Doubly Occupied:

       1A    -20.506258     2A    -15.577527     3A    -11.335928
       4A    -11.263041     5A    -11.247035     6A    -11.227269
       7A     -1.389315     8A     -1.246066     9A     -1.015254
      10A     -0.971694    11A     -0.920087    12A     -0.738484
      13A     -0.683804    14A     -0.662193    15A     -0.653396
      16A     -0.589517    17A     -0.577645    18A     -0.569383
      19A     -0.562268    20A     -0.548925    21A     -0.529657
      22A     -0.507848    23A     -0.415434    24A     -0.371799

  @DF-RHF Final Energy:  -286.13435407445763

   => Energetics <=

    Nuclear Repulsion Energy =            253.0980133419873539
    One-Electron Energy =                -890.2450869571841849
    Two-Electron Energy =                 351.0127195407392833
    DFT Exchange-Correlation Energy =       0.0000000000000000
    Empirical Dispersion Energy =           0.0000000000000000
    PCM Polarization Energy =               0.0000000000000000
    EFP Energy =                            0.0000000000000000
    Total Energy =                       -286.1343540744575762
    Molecular point group: c1
  Basis Set: CC-PVTZ
  Basis Set:

  -Total Gradient:
     Atom            X                  Y                   Z
    ------   -----------------  -----------------  -----------------
       1        0.000042101342     0.000002047811    -0.000035738839
       2       -0.000865622105    -0.000368251259     0.003866330630
       3        0.000656758761     0.000980512340    -0.003553070655
       4       -0.000175688423    -0.002821712046     0.002921005333
       5        0.000009090929     0.000001730778     0.000000582727
       6        0.000008169963    -0.000001228399     0.000002047278
       7       -0.000008688934     0.000006393196    -0.000002208349
       8        0.000343921759     0.002198556244    -0.003202821674
       9       -0.000003009596     0.000012641185     0.000008552194
      10       -0.000004621671     0.000001047312     0.000007677816
      11        0.000000124123    -0.000009919775    -0.000005906967
      12       -0.000003916684     0.000001556299    -0.000003168427
      13       -0.000005026920    -0.000007293086     0.000001966931
      14        0.000003162543     0.000001752772    -0.000004684143
      15        0.000003244910     0.000002166623    -0.000000563854

  **** Optimization is complete! (in 20 steps) ****
    Final optimized geometry and variables:
    Molecular point group: c1

    Geometry (in Angstrom), charge = 0, multiplicity = 1:

    O           -1.043796002224    -1.288505727365    -0.464685310271
    C           -0.684233628520    -0.216027910564    -0.074799321598
    C           -1.678872493383     0.919537521603     0.047556727887
    N            0.617816486003     0.040026426570     0.238631814418
    H           -1.384961985612     1.758077677567    -0.571472107795
    H           -2.636156152918     0.548499329802    -0.278715978262
    H           -1.763893409712     1.270850219684     1.068289336684
    C            1.634396020154    -0.856605669234    -0.274901846613
    C            1.095118758664     1.365310779094     0.560916512876
    H            2.041032417247    -0.487473962611    -1.213502755082
    H            1.209504603325    -1.830321243562    -0.437941262603
    H            2.444394914307    -0.937083854181     0.439045308135
    H            1.328026209417     1.950084173211    -0.326926496708
    H            0.380004443853     1.910727194630     1.153910270706
    H            2.000925215286     1.276387203957     1.145418022033

  Mulliken Charges: (a.u.)
   Center  Symbol    Alpha    Beta     Spin     Total
       1     O     4.21713  4.21713  0.00000 -0.43425
       2     C     2.84261  2.84261  0.00000  0.31478
       3     C     3.16075  3.16075  0.00000 -0.32150
       4     N     3.56690  3.56690  0.00000 -0.13381
       5     H     0.44956  0.44956  0.00000  0.10087
       6     H     0.42874  0.42874  0.00000  0.14251
       7     H     0.44750  0.44750  0.00000  0.10500
       8     C     3.09888  3.09888  0.00000 -0.19777
       9     C     3.09989  3.09989  0.00000 -0.19978
      10     H     0.45948  0.45948  0.00000  0.08105
      11     H     0.42620  0.42620  0.00000  0.14759
      12     H     0.45556  0.45556  0.00000  0.08888
      13     H     0.45612  0.45612  0.00000  0.08776
      14     H     0.44474  0.44474  0.00000  0.11053
      15     H     0.44593  0.44593  0.00000  0.10814

   Total alpha = 24.00000, Total beta = 24.00000, Total charge = -0.00000
