                              Psi4 1.0.54 Driver

  ==> Input File <==

--------------------------------------------------------------------------
set {
	reference rhf
	basis cc-pvtz
}

set_num_threads( 4 )
memory 2 gb

molecule MOL {
0 1

H	 2.342730	 0.877684	 -1.045694
C	 2.360424	 0.000000	 -0.411793
C	 1.173749	 0.000000	 0.526870
H	 3.286567	 0.000000	 0.151574
H	 2.342730	 -0.877684	 -1.045694
O	 0.000000	 0.000000	 -0.223739
H	 1.203779	 0.876757	 1.172538
H	 1.203779	 -0.876757	 1.172538
C	 -1.173749	 0.000000	 0.526870
C	 -2.074340	 -1.112134	 0.035565
H	 -1.676686	 0.961635	 0.433040
H	 -0.942027	 -0.140786	 1.581847
H	 -2.319439	 -0.968225	 -1.009274
H	 -2.995612	 -1.131067	 0.606548
H	 -1.584004	 -2.071812	 0.140747

	symmetry c1
}
set optking {
	frozen_dihedral = ("
		11 9 6 3
	")
}

ee,wfn = optimize('scf', return_wfn=True)
oeprop( wfn, 'DIPOLE', 'QUADRUPOLE', 'MULLIKEN_CHARGES')
f=open( 'psi4out.xyz', 'w' )
f.write( "15  " )
f.write( str(ee) + "\n" )
f.write( MOL.save_string_xyz() )
f.close()
--------------------------------------------------------------------------

    Molecular point group: c1
  Charge       = 0
  Multiplicity = 1
  Basis Set: CC-PVTZ
  Basis Set:
  @DF-RHF Final Energy:  -232.22976155640885
    Total Energy =                       -232.2297615564090165
    Molecular point group: c1
  Basis Set: CC-PVTZ
  Basis Set:
  Basis Set: CC-PVTZ
  Basis Set:
  @DF-RHF Final Energy:  -232.23002035806127
    Total Energy =                       -232.2300203580613243
  Basis Set: CC-PVTZ
  Basis Set:
  Basis Set: CC-PVTZ
  Basis Set:
  @DF-RHF Final Energy:  -232.23010976635831
    Total Energy =                       -232.2301097663582823
  Basis Set: CC-PVTZ
  Basis Set:
  Charge       = 0
  Multiplicity = 1
  Basis Set: CC-PVTZ
  Basis Set:

    Orbital Energies (a.u.)
    -----------------------

    Doubly Occupied:

       1A    -20.542344     2A    -11.266997     3A    -11.265838
       4A    -11.206999     5A    -11.206852     6A     -1.376916
       7A     -1.043892     8A     -0.983916     9A     -0.851376
      10A     -0.823252    11A     -0.673333    12A     -0.663984
      13A     -0.627325    14A     -0.580683    15A     -0.551040
      16A     -0.536903    17A     -0.522657    18A     -0.499337
      19A     -0.486577    20A     -0.464777    21A     -0.407630

  @DF-RHF Final Energy:  -232.23011065089921

   => Energetics <=

    Nuclear Repulsion Energy =            191.4695714213103486
    One-Electron Energy =                -694.2341139133511660
    Two-Electron Energy =                 270.5344318411416680
    DFT Exchange-Correlation Energy =       0.0000000000000000
    Empirical Dispersion Energy =           0.0000000000000000
    PCM Polarization Energy =               0.0000000000000000
    EFP Energy =                            0.0000000000000000
    Total Energy =                       -232.2301106508991779
    Molecular point group: c1
  Basis Set: CC-PVTZ
  Basis Set:

  -Total Gradient:
     Atom            X                  Y                   Z
    ------   -----------------  -----------------  -----------------
       1       -0.000006851249    -0.000013620399     0.000014458904
       2        0.000010564584    -0.000009297223     0.000003745305
       3        0.000093661628    -0.001226966228    -0.000039657839
       4        0.000030190393    -0.000002241212    -0.000003629881
       5        0.000000551536     0.000008083651     0.000003883614
       6       -0.000297070499     0.001685323490    -0.000237831008
       7       -0.000015548191    -0.000015017595    -0.000005574622
       8       -0.000027179771     0.000011489774    -0.000026000655
       9        0.001014703115     0.000032222794     0.001488216363
      10       -0.000021781265     0.000049307208     0.000011788964
      11       -0.000773507074    -0.000537443745    -0.001236856461
      12       -0.000029630491    -0.000002953078     0.000018715419
      13       -0.000000908049    -0.000008782269     0.000006175590
      14        0.000007060531    -0.000000661297    -0.000007345005
      15        0.000015744803     0.000030556129     0.000009911314

  **** Optimization is complete! (in 4 steps) ****
    Final optimized geometry and variables:
    Molecular point group: c1

    Geometry (in Angstrom), charge = 0, multiplicity = 1:

    H            2.267803365473     1.145385880705    -1.132780133554
    C            2.303264645601     0.259303793611    -0.511383072072
    C            1.131709128535     0.235958187559     0.445548163040
    H            3.238226556996     0.259883942894     0.037646826143
    H            2.282839514849    -0.609598519845    -1.157321900378
    O           -0.052363370284     0.232479739265    -0.291057603629
    H            1.166990606367     1.104934218535     1.100966569046
    H            1.181467108668    -0.648712310286     1.078272146238
    C           -1.241982581650     0.192693425428     0.444544797783
    C           -2.144027222870    -0.905064579088    -0.084905276225
    H           -1.743443678435     1.152091702117     0.354178103745
    H           -1.034930933472     0.029110264575     1.498034587082
    H           -2.345592330853    -0.750921814700    -1.137695444813
    H           -3.088655288371    -0.910994501437     0.448346820957
    H           -1.676665833559    -1.875719308604     0.031366622601

  Mulliken Charges: (a.u.)
   Center  Symbol    Alpha    Beta     Spin     Total
       1     H     0.45142  0.45142  0.00000  0.09716
       2     C     3.13741  3.13741  0.00000 -0.27482
       3     C     2.96441  2.96441  0.00000  0.07119
       4     H     0.45929  0.45929  0.00000  0.08142
       5     H     0.45180  0.45180  0.00000  0.09641
       6     O     4.18455  4.18455  0.00000 -0.36910
       7     H     0.47213  0.47213  0.00000  0.05574
       8     H     0.47451  0.47451  0.00000  0.05099
       9     C     2.97368  2.97368  0.00000  0.05264
      10     C     3.13387  3.13387  0.00000 -0.26774
      11     H     0.46021  0.46021  0.00000  0.07957
      12     H     0.47164  0.47164  0.00000  0.05672
      13     H     0.45082  0.45082  0.00000  0.09837
      14     H     0.45875  0.45875  0.00000  0.08250
      15     H     0.45553  0.45553  0.00000  0.08895

   Total alpha = 21.00000, Total beta = 21.00000, Total charge =  0.00000

*** Psi4 exiting successfully. Buy a developer a beer!
