  ==> Input File <==

--------------------------------------------------------------------------
set {
	reference rhf
	basis 6-31G*
}

set_num_threads( 4 )
memory 2 gb

molecule MOL {
0 1

H	 3.089270	 -1.380733	 0.000000
O	 2.178328	 -1.639175	 0.000000
C	 1.368216	 -0.558384	 0.000000
C	 1.242850	 0.277671	 1.102089
C	 0.647885	 -0.296717	 -1.152425
H	 1.804325	 0.072251	 1.997961
C	 0.398089	 1.373780	 1.051157
H	 0.743797	 -0.941700	 -2.004408
C	 -0.195617	 0.802709	 -1.195123
H	 0.309340	 2.013567	 1.910327
C	 -0.325595	 1.642837	 -0.096459
C	 -0.972418	 1.089625	 -2.430085
H	 -0.982344	 2.493685	 -0.138211
O	 -0.930743	 0.432836	 -3.420760
H	 -1.612236	 1.975642	 -2.376660

	symmetry c1
}
set optking {
	frozen_dihedral = ("
		4 3 2 1
	")
}

ee = optimize('scf')
oeprop('DIPOLE', 'QUADRUPOLE', 'MULLIKEN_CHARGES')
f=open( 'psi4out.xyz', 'w' )
f.write( "15  " )
f.write( str(ee) + "\n" )
f.write( MOL.save_string_xyz() )
f.close()
--------------------------------------------------------------------------

    Molecular point group: c1
  Charge       = 0
  Multiplicity = 1
  Basis Set: 6-31G*
  Basis Set:
  @DF-RHF Final Energy:  -418.28235878361801
    Total Energy =                       -418.2823587836186334
    Molecular point group: c1
  Basis Set: 6-31G*
  Basis Set:
  Basis Set: 6-31G*
  Basis Set:
  @DF-RHF Final Energy:  -418.28291496020131
    Total Energy =                       -418.2829149602011967
  Basis Set: 6-31G*
  Basis Set:
  Basis Set: 6-31G*
  Basis Set:
  @DF-RHF Final Energy:  -418.28218579930933
    Total Energy =                       -418.2821857993088770
  Basis Set: 6-31G*
  Basis Set:
  Basis Set: 6-31G*
  Basis Set:
  @DF-RHF Final Energy:  -418.28302567809908
    Total Energy =                       -418.2830256780991931
  Basis Set: 6-31G*
  Basis Set:
  Basis Set: 6-31G*
  Basis Set:
  @DF-RHF Final Energy:  -418.28303506853212
    Total Energy =                       -418.2830350685317171
  Basis Set: 6-31G*
  Basis Set:
  Charge       = 0
  Multiplicity = 1
  Basis Set: 6-31G*
  Basis Set:

    Orbital Energies (a.u.)
    -----------------------

    Doubly Occupied:

       1A    -20.588882     2A    -20.564670     3A    -11.333356
       4A    -11.304273     5A    -11.253067     6A    -11.251534
       7A    -11.250999     8A    -11.249782     9A    -11.243248
      10A     -1.405804    11A     -1.404763    12A     -1.170185
      13A     -1.048851    14A     -1.026439    15A     -0.897628
      16A     -0.845038    17A     -0.804235    18A     -0.738847
      19A     -0.698473    20A     -0.682691    21A     -0.647349
      22A     -0.635202    23A     -0.617806    24A     -0.605922
      25A     -0.555658    26A     -0.545694    27A     -0.533839
      28A     -0.499575    29A     -0.486317    30A     -0.423724
      31A     -0.352278    32A     -0.339892

  @DF-RHF Final Energy:  -418.28303624197355

   => Energetics <=

    Nuclear Repulsion Energy =            402.6257393852654900
    One-Electron Energy =               -1367.8055085272030738
    Two-Electron Energy =                 546.8967328999640358
    DFT Exchange-Correlation Energy =       0.0000000000000000
    Empirical Dispersion Energy =           0.0000000000000000
    PCM Polarization Energy =               0.0000000000000000
    EFP Energy =                            0.0000000000000000
    Total Energy =                       -418.2830362419736048
    Molecular point group: c1
  Basis Set: 6-31G*
  Basis Set:

  -Total Gradient:
     Atom            X                  Y                   Z
    ------   -----------------  -----------------  -----------------
       1        0.000061074737    -0.000001507116    -0.001093318698
       2       -0.000286098034    -0.000335109898     0.001456300739
       3        0.000791273908     0.000870223690    -0.000505020058
       4       -0.000546517630    -0.000592842917     0.000211804900
       5       -0.000026745127     0.000006394954    -0.000043265375
       6       -0.000001902953    -0.000010891972     0.000002353815
       7       -0.000076569498     0.000165368566    -0.000113293587
       8       -0.000004027904    -0.000003295941     0.000003388901
       9        0.000079461642    -0.000068993459    -0.000108553499
      10        0.000006208093    -0.000010416475    -0.000003914813
      11        0.000018870875    -0.000034140567     0.000207086673
      12        0.000007241357     0.000018353493     0.000027047467
      13       -0.000013039069     0.000001608965    -0.000021701639
      14       -0.000006504853     0.000000150139    -0.000009465094
      15       -0.000002725540    -0.000004901461    -0.000009449731

  **** Optimization is complete! (in 6 steps) ****
    Final optimized geometry and variables:
    Molecular point group: c1

    Geometry (in Angstrom), charge = 0, multiplicity = 1:

    H            2.690235533208    -1.704320966435     0.786958520154
    O            1.777206185647    -1.956706021243     0.751620339445
    C            0.975606174128    -0.850863469121     0.703233081188
    C            0.846097128615    -0.025288901341     1.813750677080
    C            0.249087147655    -0.594416102493    -0.440733447297
    H            1.403252815957    -0.254359352237     2.704524232185
    C            0.001972204200     1.069569777755     1.770681622479
    H            0.340318752712    -1.239121091247    -1.293635416904
    C           -0.606683169813     0.501697223779    -0.478738328834
    H           -0.092177962294     1.706152315045     2.631466487998
    C           -0.728644838417     1.334849962598     0.623107344798
    C           -1.391461609840     0.787860183415    -1.706514410108
    H           -1.390702367650     2.182414755489     0.588025999175
    O           -1.343707881785     0.140219524045    -2.703491322835
    H           -2.043472427610     1.664447059490    -1.644292780661

  Mulliken Charges: (a.u.)
   Center  Symbol    Alpha    Beta     Spin     Total
       1     H     0.27023  0.27023  0.00000  0.45955
       2     O     4.38477  4.38477  0.00000 -0.76954
       3     C     2.81765  2.81765  0.00000  0.36469
       4     C     3.11293  3.11293  0.00000 -0.22586
       5     C     3.10696  3.10696  0.00000 -0.21391
       6     H     0.39103  0.39103  0.00000  0.21794
       7     C     3.10083  3.10083  0.00000 -0.20166
       8     H     0.37120  0.37120  0.00000  0.25761
       9     C     3.05105  3.05105  0.00000 -0.10210
      10     H     0.39270  0.39270  0.00000  0.21459
      11     C     3.10827  3.10827  0.00000 -0.21654
      12     C     2.83206  2.83206  0.00000  0.33588
      13     H     0.39212  0.39212  0.00000  0.21575
      14     O     4.24620  4.24620  0.00000 -0.49240
      15     H     0.42199  0.42199  0.00000  0.15601

   Total alpha = 32.00000, Total beta = 32.00000, Total charge = -0.00000
