                              Psi4 1.0.54 Driver

  ==> Input File <==

--------------------------------------------------------------------------
set {
	reference rhf
	basis cc-pvtz
}

set_num_threads( 4 )
memory 2 gb

molecule MOL {
0 1

H	 -1.770961	 -0.852802	 0.530088
O	 -2.041679	 -0.058866	 0.103463
C	 -0.959304	 0.780994	 -0.094939
C	 0.354905	 0.037902	 -0.006215
H	 -0.985899	 1.279578	 -1.057596
H	 -0.969809	 1.529522	 0.682889
F	 0.412060	 -0.931028	 -0.902708
F	 1.359641	 0.856111	 -0.239961
F	 0.545380	 -0.506387	 1.171682

	symmetry c1
}
set optking {
	frozen_dihedral = ("
		1 2 3 5
	")
}

ee,wfn = optimize('scf', return_wfn=True)
oeprop( wfn, 'DIPOLE', 'QUADRUPOLE', 'MULLIKEN_CHARGES')
f=open( 'psi4out.xyz', 'w' )
f.write( "9  " )
f.write( str(ee) + "\n" )
f.write( MOL.save_string_xyz() )
f.close()
--------------------------------------------------------------------------

    Molecular point group: c1
  Charge       = 0
  Multiplicity = 1
  Basis Set: CC-PVTZ
  Basis Set:
  @DF-RHF Final Energy:  -450.84280146078953
    Total Energy =                       -450.8428014607896444
    Molecular point group: c1
  Basis Set: CC-PVTZ
  Basis Set:
  Basis Set: CC-PVTZ
  Basis Set:
  @DF-RHF Final Energy:  -450.84084614199583
    Total Energy =                       -450.8408461419957121
  Basis Set: CC-PVTZ
  Basis Set:
  Basis Set: CC-PVTZ
  Basis Set:
  @DF-RHF Final Energy:  -450.84417403588907
    Total Energy =                       -450.8441740358892957
  Basis Set: CC-PVTZ
  Basis Set:
  Basis Set: CC-PVTZ
  Basis Set:
  @DF-RHF Final Energy:  -450.84430312895347
    Total Energy =                       -450.8443031289534702
  Basis Set: CC-PVTZ
  Basis Set:
  Basis Set: CC-PVTZ
  Basis Set:
  @DF-RHF Final Energy:  -450.84431308414878
    Total Energy =                       -450.8443130841487800
  Basis Set: CC-PVTZ
  Basis Set:
  Charge       = 0
  Multiplicity = 1
  Basis Set: CC-PVTZ
  Basis Set:

    Orbital Energies (a.u.)
    -----------------------

    Doubly Occupied:

       1A    -26.346042     2A    -26.345604     3A    -26.342354
       4A    -20.581023     5A    -11.500930     6A    -11.310098
       7A     -1.754467     8A     -1.651955     9A     -1.648698
      10A     -1.404168    11A     -1.053690    12A     -0.934567
      13A     -0.843801    14A     -0.842909    15A     -0.821045
      16A     -0.727913    17A     -0.725433    18A     -0.690067
      19A     -0.677498    20A     -0.675522    21A     -0.655747
      22A     -0.645343    23A     -0.625648    24A     -0.528251
      25A     -0.482672

  @DF-RHF Final Energy:  -450.84431512002993

   => Energetics <=

    Nuclear Repulsion Energy =            278.0394931799976348
    One-Electron Energy =               -1178.1367221117238842
    Two-Electron Energy =                 449.2529138116961462
    DFT Exchange-Correlation Energy =       0.0000000000000000
    Empirical Dispersion Energy =           0.0000000000000000
    PCM Polarization Energy =               0.0000000000000000
    EFP Energy =                            0.0000000000000000
    Total Energy =                       -450.8443151200301031
    Molecular point group: c1
  Basis Set: CC-PVTZ
  Basis Set:

  -Total Gradient:
     Atom            X                  Y                   Z
    ------   -----------------  -----------------  -----------------
       1        0.000171934200    -0.001135176003    -0.002673254786
       2        0.000122835179     0.000974559703     0.003034208725
       3       -0.001396579850     0.002021049227     0.000897041071
       4        0.000082733369    -0.000065691123     0.000222014709
       5        0.001183206070    -0.001859910936    -0.001231666827
       6       -0.000007029880     0.000000858348     0.000015232456
       7       -0.000004977537    -0.000073293683    -0.000100655870
       8       -0.000050561568     0.000002821890     0.000007518267
       9       -0.000101559983     0.000134782576    -0.000170437747

  **** Optimization is complete! (in 6 steps) ****
    Final optimized geometry and variables:
    Molecular point group: c1

    Geometry (in Angstrom), charge = 0, multiplicity = 1:

    H           -1.699820786437    -0.901739177108     0.782274884216
    O           -2.012668353638    -0.091923181919     0.420108395370
    C           -0.969876960929     0.768704201013     0.106559816118
    C            0.344531645353     0.048370289611    -0.083396522921
    H           -1.190161922962     1.260668485154    -0.830410057913
    H           -0.821922660881     1.513984609587     0.878814183205
    F            0.307367052872    -0.794047426612    -1.092804194343
    F            1.311590573843     0.907482206005    -0.309360275567
    F            0.667421544079    -0.651488417360     0.989775258023

  Mulliken Charges: (a.u.)
   Center  Symbol    Alpha    Beta     Spin     Total
       1     H     0.38646  0.38646  0.00000  0.22707
       2     O     4.19537  4.19537  0.00000 -0.39073
       3     C     2.97123  2.97123  0.00000  0.05755
       4     C     2.68927  2.68927  0.00000  0.62147
       5     H     0.45767  0.45767  0.00000  0.08466
       6     H     0.46489  0.46489  0.00000  0.07022
       7     F     4.61026  4.61026  0.00000 -0.22051
       8     F     4.60802  4.60802  0.00000 -0.21604
       9     F     4.61684  4.61684  0.00000 -0.23368

   Total alpha = 25.00000, Total beta = 25.00000, Total charge = -0.00000

*** Psi4 exiting successfully. Buy a developer a beer!
