                              Psi4 1.0.54 Driver

  ==> Input File <==

--------------------------------------------------------------------------
set {
	reference rhf
	basis cc-pvtz
}

set_num_threads( 4 )
memory 2 gb

molecule MOL {
0 1

O	 2.051589	 -0.088797	 -0.700481
C	 1.121787	 0.124983	 0.000110
C	 -0.170912	 -0.649867	 -0.000147
O	 1.098932	 1.097638	 0.896657
C	 -1.413045	 0.229353	 0.001137
H	 -0.152877	 -1.303435	 -0.866175
H	 -0.152278	 -1.305116	 0.864586
C	 -2.702562	 -0.586401	 0.000228
H	 -1.390744	 0.882001	 -0.864365
H	 -1.390549	 0.879837	 0.868264
C	 -3.953810	 0.284959	 -0.000782
H	 -2.717793	 -1.238567	 -0.869075
H	 -2.719108	 -1.238472	 0.869576
H	 -3.983727	 0.924403	 -0.876454
H	 -4.852989	 -0.320147	 -0.001515
H	 -3.985140	 0.924399	 0.874841
C	 2.252002	 1.907596	 1.004910
H	 3.111309	 1.313185	 1.277847
H	 2.037841	 2.628581	 1.777039
H	 2.453804	 2.410542	 0.070810

	symmetry c1
}
set optking {
	frozen_dihedral = ("
		1 2 3 6
	")
}

ee,wfn = optimize('scf', return_wfn=True)
oeprop( wfn, 'DIPOLE', 'QUADRUPOLE', 'MULLIKEN_CHARGES')
f=open( 'psi4out.xyz', 'w' )
f.write( "20  " )
f.write( str(ee) + "\n" )
f.write( MOL.save_string_xyz() )
f.close()
--------------------------------------------------------------------------

    Molecular point group: c1
  Charge       = 0
  Multiplicity = 1
  Basis Set: CC-PVTZ
  Basis Set:
  @DF-RHF Final Energy:  -384.08126590441810
    Total Energy =                       -384.0812659044183874
    Molecular point group: c1
  Basis Set: CC-PVTZ
  Basis Set:
  Basis Set: CC-PVTZ
  Basis Set:
  @DF-RHF Final Energy:  -384.07991656130366
    Total Energy =                       -384.0799165613033210
  Basis Set: CC-PVTZ
  Basis Set:
  Basis Set: CC-PVTZ
  Basis Set:
  @DF-RHF Final Energy:  -384.08145721988916
    Total Energy =                       -384.0814572198893302
  Basis Set: CC-PVTZ
  Basis Set:
  Basis Set: CC-PVTZ
  Basis Set:
  @DF-RHF Final Energy:  -384.08169596959402
    Total Energy =                       -384.0816959695937385
  Basis Set: CC-PVTZ
  Basis Set:
  Basis Set: CC-PVTZ
  Basis Set:
  @DF-RHF Final Energy:  -384.08171322884851
    Total Energy =                       -384.0817132288489120
  Basis Set: CC-PVTZ
  Basis Set:
  Basis Set: CC-PVTZ
  Basis Set:
  @DF-RHF Final Energy:  -384.08171539365657
    Total Energy =                       -384.0817153936561681
  Basis Set: CC-PVTZ
  Basis Set:
  Charge       = 0
  Multiplicity = 1
  Basis Set: CC-PVTZ
  Basis Set:

    Orbital Energies (a.u.)
    -----------------------

    Doubly Occupied:

       1A    -20.597451     2A    -20.532332     3A    -11.363954
       4A    -11.278918     5A    -11.233283     6A    -11.224914
       7A    -11.221604     8A    -11.212196     9A     -1.472383
      10A     -1.364576    11A     -1.093579    12A     -1.025861
      13A     -0.967400    14A     -0.892498    15A     -0.807351
      16A     -0.776304    17A     -0.695716    18A     -0.684439
      19A     -0.676544    20A     -0.649307    21A     -0.596393
      22A     -0.593318    23A     -0.579799    24A     -0.549392
      25A     -0.533195    26A     -0.523975    27A     -0.508621
      28A     -0.489718    29A     -0.481231    30A     -0.474148
      31A     -0.459106    32A     -0.431657

  @DF-RHF Final Energy:  -384.08171556782924

   => Energetics <=

    Nuclear Repulsion Energy =            384.1813469780129822
    One-Electron Energy =               -1284.5438053861876142
    Two-Electron Energy =                 516.2807428403450558
    DFT Exchange-Correlation Energy =       0.0000000000000000
    Empirical Dispersion Energy =           0.0000000000000000
    PCM Polarization Energy =               0.0000000000000000
    EFP Energy =                            0.0000000000000000
    Total Energy =                       -384.0817155678296331
    Molecular point group: c1
  Basis Set: CC-PVTZ
  Basis Set:

  -Total Gradient:
     Atom            X                  Y                   Z
    ------   -----------------  -----------------  -----------------
       1        0.000277699932    -0.000497040538     0.000628193897
       2       -0.000467395399     0.000807473536    -0.001020768102
       3        0.000509404027    -0.000900559131     0.000868809806
       4        0.000024680791     0.000052315496     0.000026022210
       5       -0.000009023914     0.000010752850     0.000000857092
       6       -0.000322802512     0.000560324809    -0.000493769804
       7        0.000000258415    -0.000007737540     0.000014409558
       8       -0.000001815467    -0.000004860751    -0.000019637790
       9       -0.000002516153     0.000000335201    -0.000012135706
      10        0.000009758434     0.000004479030     0.000005940187
      11        0.000008692984    -0.000004198517     0.000007297618
      12       -0.000007378265    -0.000004503599    -0.000014644003
      13        0.000001417063    -0.000003191938     0.000007687320
      14        0.000002833122     0.000001615726    -0.000010589377
      15       -0.000005653567    -0.000008488519     0.000004587469
      16        0.000000869963     0.000010228797     0.000011247154
      17       -0.000035600789    -0.000028068334    -0.000002438851
      18        0.000018596720    -0.000015242725     0.000008420335
      19       -0.000007944180     0.000014212785     0.000014176072
      20        0.000005918804     0.000012153365    -0.000023665085

  **** Optimization is complete! (in 7 steps) ****
    Final optimized geometry and variables:
    Molecular point group: c1

    Geometry (in Angstrom), charge = 0, multiplicity = 1:

    O            2.230262210649    -0.513652783986    -0.763058163698
    C            1.300241932429    -0.212886335151    -0.094461933049
    C           -0.017985907620    -0.944648258544    -0.090411330349
    O            1.323564042364     0.794333441252     0.762169043033
    C           -1.248303473067    -0.041595897862    -0.184383813103
    H            0.011586288813    -1.640371414530    -0.916697529408
    H           -0.055861870724    -1.522887467820     0.828130949780
    C           -2.547553687276    -0.840648204998    -0.228356784915
    H           -1.174648126532     0.573675641238    -1.077017755138
    H           -1.265326086296     0.637493100574     0.659038021365
    C           -3.784810208207     0.045166956662    -0.325365964734
    H           -2.524469315565    -1.521952617158    -1.074112868809
    H           -2.616935185509    -1.460803496399     0.661270756433
    H           -3.761238354110     0.652928726166    -1.223630707425
    H           -4.690470825914    -0.549369328171    -0.352277221329
    H           -3.853662568911     0.715480913399     0.524750093334
    C            2.525013651480     1.531791558995     0.863402844731
    H            3.337204164304     0.894799424501     1.180834197716
    H            2.342747096983     2.298045892890     1.599377252319
    H            2.778473077180     1.979075514880    -0.086181287396

  Mulliken Charges: (a.u.)
   Center  Symbol    Alpha    Beta     Spin     Total
       1     O     4.19970  4.19970  0.00000 -0.39940
       2     C     2.81259  2.81259  0.00000  0.37482
       3     C     3.07909  3.07909  0.00000 -0.15819
       4     O     4.14757  4.14757  0.00000 -0.29514
       5     C     3.09427  3.09427  0.00000 -0.18855
       6     H     0.43651  0.43651  0.00000  0.12698
       7     H     0.44701  0.44701  0.00000  0.10597
       8     C     3.08890  3.08890  0.00000 -0.17780
       9     H     0.45054  0.45054  0.00000  0.09891
      10     H     0.44309  0.44309  0.00000  0.11382
      11     C     3.14906  3.14906  0.00000 -0.29811
      12     H     0.45236  0.45236  0.00000  0.09527
      13     H     0.45384  0.45384  0.00000  0.09232
      14     H     0.45410  0.45410  0.00000  0.09180
      15     H     0.44741  0.44741  0.00000  0.10517
      16     H     0.45439  0.45439  0.00000  0.09122
      17     C     3.03648  3.03648  0.00000 -0.07296
      18     H     0.45311  0.45311  0.00000  0.09378
      19     H     0.44598  0.44598  0.00000  0.10805
      20     H     0.45398  0.45398  0.00000  0.09204

   Total alpha = 32.00000, Total beta = 32.00000, Total charge = -0.00000

*** Psi4 exiting successfully. Buy a developer a beer!
