                              Psi4 1.0.54 Driver

  ==> Input File <==

--------------------------------------------------------------------------
set {
	reference rhf
	basis cc-pvtz
}

set_num_threads( 4 )
memory 2 gb

molecule MOL {
0 1

H	 -3.138155	 -0.068349	 -2.680323
O	 -2.858445	 -0.383627	 -1.840944
C	 -1.591217	 0.131618	 -1.529376
C	 -1.175688	 -0.398187	 -0.171891
H	 -0.863790	 -0.165904	 -2.281775
H	 -1.616585	 1.219198	 -1.510535
C	 0.196029	 0.106276	 0.266738
H	 -1.178609	 -1.482946	 -0.210744
H	 -1.928914	 -0.110571	 0.554638
C	 1.330220	 -0.826136	 -0.155230
H	 0.359542	 1.097229	 -0.145561
H	 0.212134	 0.218135	 1.348778
C	 2.719700	 -0.407669	 0.328325
H	 1.339388	 -0.911200	 -1.239363
H	 1.119001	 -1.821953	 0.224128
C	 3.241564	 0.893452	 -0.276737
H	 3.418299	 -1.204729	 0.093035
H	 2.711776	 -0.323368	 1.411960
H	 3.254204	 0.841071	 -1.360784
H	 2.634460	 1.745075	 0.005842
H	 4.254264	 1.092401	 0.054971

	symmetry c1
}
set optking {
	frozen_dihedral = ("
		8 4 7 10
	")
}

ee,wfn = optimize('scf', return_wfn=True)
oeprop( wfn, 'DIPOLE', 'QUADRUPOLE', 'MULLIKEN_CHARGES')
f=open( 'psi4out.xyz', 'w' )
f.write( "21  " )
f.write( str(ee) + "\n" )
f.write( MOL.save_string_xyz() )
f.close()
--------------------------------------------------------------------------

    Molecular point group: c1
  Charge       = 0
  Multiplicity = 1
  Basis Set: CC-PVTZ
  Basis Set:
  @DF-RHF Final Energy:  -310.32967065107891
    Total Energy =                       -310.3296706510787430
    Molecular point group: c1
  Basis Set: CC-PVTZ
  Basis Set:
  Basis Set: CC-PVTZ
  Basis Set:
  @DF-RHF Final Energy:  -310.32967344672841
    Total Energy =                       -310.3296734467282931
  Basis Set: CC-PVTZ
  Basis Set:
  Basis Set: CC-PVTZ
  Basis Set:
  @DF-RHF Final Energy:  -310.32998010278726
    Total Energy =                       -310.3299801027869762
  Basis Set: CC-PVTZ
  Basis Set:
  Basis Set: CC-PVTZ
  Basis Set:
  @DF-RHF Final Energy:  -310.32998628866352
    Total Energy =                       -310.3299862886631217
  Basis Set: CC-PVTZ
  Basis Set:
  Charge       = 0
  Multiplicity = 1
  Basis Set: CC-PVTZ
  Basis Set:

    Orbital Energies (a.u.)
    -----------------------

    Doubly Occupied:

       1A    -20.545296     2A    -11.264811     3A    -11.213708
       4A    -11.213303     5A    -11.211995     6A    -11.208975
       7A    -11.206991     8A     -1.363172     9A     -1.087085
      10A     -1.033438    11A     -0.954093    12A     -0.879566
      13A     -0.810888    14A     -0.776629    15A     -0.697946
      16A     -0.650268    17A     -0.633450    18A     -0.610318
      19A     -0.588595    20A     -0.562124    21A     -0.545441
      22A     -0.521339    23A     -0.512765    24A     -0.494168
      25A     -0.475744    26A     -0.457470    27A     -0.456112
      28A     -0.447493    29A     -0.433823

  @DF-RHF Final Energy:  -310.32998636471325

   => Energetics <=

    Nuclear Repulsion Energy =            316.2955843266057627
    One-Electron Energy =               -1047.5371266853917405
    Two-Electron Energy =                 420.9115559940728417
    DFT Exchange-Correlation Energy =       0.0000000000000000
    Empirical Dispersion Energy =           0.0000000000000000
    PCM Polarization Energy =               0.0000000000000000
    EFP Energy =                            0.0000000000000000
    Total Energy =                       -310.3299863647131360
    Molecular point group: c1
  Basis Set: CC-PVTZ
  Basis Set:

  -Total Gradient:
     Atom            X                  Y                   Z
    ------   -----------------  -----------------  -----------------
       1       -0.000038675234    -0.000008618316    -0.000045242266
       2       -0.000019149149     0.000020885439     0.000006245404
       3        0.000067959666    -0.000028798024    -0.000040062707
       4       -0.001189511053    -0.000310305591     0.003620494908
       5        0.000009252230     0.000017915094    -0.000032751014
       6       -0.000013138573     0.000048724224    -0.000023725177
       7        0.000572960927     0.001167705338    -0.002728927552
       8        0.000922294642    -0.000059815234    -0.002316041147
       9        0.000026996277     0.000016202460     0.000046188118
      10       -0.000285314389    -0.000838307699     0.001509076202
      11       -0.000099716814    -0.000008918569    -0.000028761637
      12       -0.000019088383     0.000025387515     0.000050122160
      13       -0.000043628175     0.000023030715     0.000043729884
      14        0.000033799299    -0.000009287292    -0.000039192196
      15        0.000016797984    -0.000030319231    -0.000014809913
      16        0.000004581211    -0.000005000771    -0.000051517706
      17        0.000015843684    -0.000042064474     0.000020077021
      18       -0.000022795753     0.000006956945     0.000052925978
      19        0.000008143624     0.000016790919    -0.000045462901
      20        0.000040353903     0.000017346426     0.000015337025
      21        0.000012034072    -0.000019509876     0.000002297513

  **** Optimization is complete! (in 5 steps) ****
    Final optimized geometry and variables:
    Molecular point group: c1

    Geometry (in Angstrom), charge = 0, multiplicity = 1:

    H           -3.168168269603    -0.025648749703    -2.387447354598
    O           -2.956250958598    -0.308579564560    -1.517242028051
    C           -1.731845539710     0.244200480384    -1.113181208915
    C           -1.432936835715    -0.227212534883     0.298399267784
    H           -0.935885797609    -0.061650235423    -1.788442477336
    H           -1.779384998563     1.330923153901    -1.134679682615
    C           -0.069913846256     0.256406683977     0.810767150051
    H           -1.470112443461    -1.311284225556     0.296572548975
    H           -2.229841359414     0.120167643448     0.945096015701
    C            1.076453466725    -0.709887257070     0.507518848701
    H            0.141870278626     1.238586822646     0.399846613342
    H           -0.122443174037     0.389342668032     1.887094805074
    C            2.443997490079    -0.262528360410     1.026597806842
    H            1.143179234462    -0.882444036310    -0.564246672796
    H            0.835506054666    -1.670569237426     0.952788872231
    C            3.026804365711     0.960004666676     0.321313952718
    H            3.139157551541    -1.089334183332     0.917345958792
    H            2.374987016708    -0.065035421318     2.093264183671
    H            3.103934601996     0.792135369156    -0.748316640365
    H            2.421416442728     1.845280050083     0.474291636419
    H            4.021559155126     1.179424050828     0.692073256624

  Mulliken Charges: (a.u.)
   Center  Symbol    Alpha    Beta     Spin     Total
       1     H     0.39719  0.39719  0.00000  0.20562
       2     O     4.19494  4.19494  0.00000 -0.38988
       3     C     2.96074  2.96074  0.00000  0.07852
       4     C     3.09041  3.09041  0.00000 -0.18083
       5     H     0.47482  0.47482  0.00000  0.05037
       6     H     0.47464  0.47464  0.00000  0.05071
       7     C     3.11229  3.11229  0.00000 -0.22459
       8     H     0.45233  0.45233  0.00000  0.09533
       9     H     0.44545  0.44545  0.00000  0.10911
      10     C     3.09360  3.09360  0.00000 -0.18719
      11     H     0.45400  0.45400  0.00000  0.09200
      12     H     0.44640  0.44640  0.00000  0.10720
      13     C     3.08994  3.08994  0.00000 -0.17988
      14     H     0.45477  0.45477  0.00000  0.09046
      15     H     0.44753  0.44753  0.00000  0.10494
      16     C     3.15240  3.15240  0.00000 -0.30480
      17     H     0.44830  0.44830  0.00000  0.10340
      18     H     0.45466  0.45466  0.00000  0.09067
      19     H     0.45530  0.45530  0.00000  0.08941
      20     H     0.45410  0.45410  0.00000  0.09179
      21     H     0.44618  0.44618  0.00000  0.10764

   Total alpha = 29.00000, Total beta = 29.00000, Total charge =  0.00000

*** Psi4 exiting successfully. Buy a developer a beer!
