                              Psi4 1.0.54 Driver

  ==> Input File <==

--------------------------------------------------------------------------
set {
	reference rhf
	basis cc-pvtz
}

set_num_threads( 4 )
memory 2 gb

molecule MOL {
0 1

H	 2.614283	 2.028610	 0.296620
O	 3.358864	 1.662087	 -0.142800
C	 3.565468	 0.338079	 0.273842
C	 2.498425	 -0.626938	 -0.220979
H	 4.528037	 0.049320	 -0.126232
H	 3.639568	 0.288782	 1.358522
C	 1.106031	 -0.369256	 0.350586
H	 2.463753	 -0.577198	 -1.305176
H	 2.813052	 -1.634822	 0.038978
C	 0.068788	 -1.377061	 -0.142662
H	 0.789582	 0.634017	 0.085435
H	 1.150456	 -0.406407	 1.437753
C	 -1.329171	 -1.211210	 0.456053
H	 0.003863	 -1.320874	 -1.226569
H	 0.423877	 -2.377910	 0.086859
C	 -2.060072	 0.066558	 0.047598
H	 -1.931632	 -2.064372	 0.156584
H	 -1.262199	 -1.256026	 1.540794
C	 -3.485545	 0.138414	 0.589145
H	 -2.086527	 0.132218	 -1.037970
H	 -1.510685	 0.937605	 0.391769
C	 -4.216895	 1.414640	 0.186324
H	 -4.046380	 -0.723576	 0.238410
H	 -3.461490	 0.064428	 1.673124
H	 -4.286033	 1.502028	 -0.892945
H	 -5.225068	 1.432254	 0.584299
H	 -3.700828	 2.294984	 0.555136

	symmetry c1
}
set optking {
	frozen_dihedral = ("
		4 3 2 1
	")
}

ee,wfn = optimize('scf', return_wfn=True)
oeprop( wfn, 'DIPOLE', 'QUADRUPOLE', 'MULLIKEN_CHARGES')
f=open( 'psi4out.xyz', 'w' )
f.write( "27  " )
f.write( str(ee) + "\n" )
f.write( MOL.save_string_xyz() )
f.close()
--------------------------------------------------------------------------

    Molecular point group: c1
  Charge       = 0
  Multiplicity = 1
  Basis Set: CC-PVTZ
  Basis Set:
  @DF-RHF Final Energy:  -388.42778033660574
    Total Energy =                       -388.4277803366055650
    Molecular point group: c1
  Basis Set: CC-PVTZ
  Basis Set:
  Charge       = 0
  Multiplicity = 1
  Basis Set: CC-PVTZ
  Basis Set:

    Orbital Energies (a.u.)
    -----------------------

    Doubly Occupied:

       1A    -20.545247     2A    -11.264934     3A    -11.217278
       4A    -11.215016     5A    -11.214051     6A    -11.213622
       7A    -11.213480     8A    -11.212087     9A    -11.207399
      10A     -1.363175    11A     -1.096482    12A     -1.062774
      13A     -1.012646    14A     -0.949566    15A     -0.888907
      16A     -0.820872    17A     -0.802209    18A     -0.778571
      19A     -0.695310    20A     -0.653071    21A     -0.639936
      22A     -0.615795    23A     -0.602506    24A     -0.583702
      25A     -0.580971    26A     -0.554162    27A     -0.541291
      28A     -0.532783    29A     -0.505674    30A     -0.495996
      31A     -0.485599    32A     -0.474840    33A     -0.469378
      34A     -0.461601    35A     -0.452487    36A     -0.442558
      37A     -0.426098

  @DF-RHF Final Energy:  -388.42778015478473

   => Energetics <=

    Nuclear Repulsion Energy =            460.1375063251645088
    One-Electron Energy =               -1438.5464268733437621
    Two-Electron Energy =                 589.9811403933945257
    DFT Exchange-Correlation Energy =       0.0000000000000000
    Empirical Dispersion Energy =           0.0000000000000000
    PCM Polarization Energy =               0.0000000000000000
    EFP Energy =                            0.0000000000000000
    Total Energy =                       -388.4277801547847275
    Molecular point group: c1
  Basis Set: CC-PVTZ
  Basis Set:

  -Total Gradient:
     Atom            X                  Y                   Z
    ------   -----------------  -----------------  -----------------
       1       -0.000090671070    -0.000077089909    -0.000129600587
       2        0.000193542804     0.000150985100     0.000186305582
       3        0.000044531329    -0.000100848632    -0.000120836315
       4       -0.000090845045    -0.000079441883     0.000133050522
       5        0.000043624694     0.000057735560    -0.000002026749
       6        0.000017764190     0.000034926043     0.000010361902
       7       -0.000044881202    -0.000053652788    -0.000094348602
       8        0.000010943404     0.000052124331    -0.000001028218
       9       -0.000008904852    -0.000067791097    -0.000034603276
      10        0.000013567833     0.000038295987     0.000015085609
      11       -0.000098946259     0.000046048007    -0.000045892547
      12       -0.000001089621     0.000024256712     0.000038640141
      13       -0.000005612882    -0.000036847413     0.000045917618
      14       -0.000007677523     0.000009385556    -0.000009857850
      15        0.000062832804    -0.000010353581     0.000000032191
      16        0.000005147775    -0.000004436488    -0.000005173056
      17       -0.000010139463     0.000018407784     0.000000699889
      18       -0.000027497040    -0.000013896664     0.000009982218
      19       -0.000001000819     0.000003519687    -0.000002110978
      20       -0.000008401644    -0.000008317367     0.000009959028
      21       -0.000001092947     0.000009616142    -0.000008876895
      22        0.000002298730     0.000006565970     0.000007933363
      23        0.000005588043     0.000002755095    -0.000004296455
      24       -0.000001131582    -0.000001465673     0.000000108627
      25       -0.000000083642    -0.000003773623    -0.000001804234
      26       -0.000003534489     0.000001672972     0.000003862639
      27        0.000001668480     0.000001620171    -0.000001483566

  **** Optimization is complete! (in 2 steps) ****
    Final optimized geometry and variables:
    Molecular point group: c1

    Geometry (in Angstrom), charge = 0, multiplicity = 1:

    H            2.642050072667     1.983718443271     0.143434116205
    O            3.387157336538     1.611840480461    -0.290397833890
    C            3.579807641434     0.286011376080     0.126584995586
    C            2.510100882365    -0.671954756631    -0.376618989805
    H            4.543785832339    -0.008541233813    -0.265670498901
    H            3.644511624688     0.235870892555     1.211902172487
    C            1.114177477102    -0.405395147379     0.182683323218
    H            2.485182607577    -0.623165704053    -1.461105456283
    H            2.815633198585    -1.681667127235    -0.113001178658
    C            0.079988827361    -1.420850759381    -0.301066424115
    H            0.797776928292     0.593667756515    -0.098856864308
    H            1.152525918685    -0.426361423777     1.270467227101
    C           -1.317261779497    -1.256951830673     0.299944723386
    H            0.012371488420    -1.372815595328    -1.385190348039
    H            0.440301441173    -2.418314647838    -0.065139032064
    C           -2.051148378687     0.019185916883    -0.108131659785
    H           -1.918839031004    -2.111221071858     0.002096178664
    H           -1.248498532590    -1.300943027595     1.384561451564
    C           -3.475095373052     0.089932189001     0.437376908363
    H           -2.080892430058     0.083178481293    -1.193658122952
    H           -1.502062941152     0.891523751813     0.233179824547
    C           -4.208762460319     1.365337729000     0.036374171806
    H           -4.036095777749    -0.772655471667     0.088481377283
    H           -3.447853025871     0.016276862910     1.521253808608
    H           -4.281973709820     1.451870678355    -1.042664215772
    H           -5.215426493781     1.382608377755     0.438057756329
    H           -3.691911658357     2.246267893735     0.402597162363

  Mulliken Charges: (a.u.)
   Center  Symbol    Alpha    Beta     Spin     Total
       1     H     0.39235  0.39235  0.00000  0.21531
       2     O     4.20543  4.20543  0.00000 -0.41087
       3     C     2.97899  2.97899  0.00000  0.04201
       4     C     3.09029  3.09029  0.00000 -0.18057
       5     H     0.44867  0.44867  0.00000  0.10266
       6     H     0.47007  0.47007  0.00000  0.05986
       7     C     3.10241  3.10241  0.00000 -0.20483
       8     H     0.45050  0.45050  0.00000  0.09899
       9     H     0.45520  0.45520  0.00000  0.08961
      10     C     3.09861  3.09861  0.00000 -0.19722
      11     H     0.45621  0.45621  0.00000  0.08758
      12     H     0.45346  0.45346  0.00000  0.09308
      13     C     3.09805  3.09805  0.00000 -0.19611
      14     H     0.45159  0.45159  0.00000  0.09682
      15     H     0.44796  0.44796  0.00000  0.10408
      16     C     3.08797  3.08797  0.00000 -0.17595
      17     H     0.44793  0.44793  0.00000  0.10414
      18     H     0.45379  0.45379  0.00000  0.09242
      19     C     3.08408  3.08408  0.00000 -0.16815
      20     H     0.45408  0.45408  0.00000  0.09185
      21     H     0.45546  0.45546  0.00000  0.08908
      22     C     3.14960  3.14960  0.00000 -0.29920
      23     H     0.45372  0.45372  0.00000  0.09256
      24     H     0.45468  0.45468  0.00000  0.09063
      25     H     0.45485  0.45485  0.00000  0.09030
      26     H     0.44827  0.44827  0.00000  0.10347
      27     H     0.45577  0.45577  0.00000  0.08846

   Total alpha = 37.00000, Total beta = 37.00000, Total charge = -0.00000

*** Psi4 exiting successfully. Buy a developer a beer!
