  ==> Input File <==

--------------------------------------------------------------------------
set {
	reference rhf
	basis cc-pvtz
}

set_num_threads( 4 )
memory 2 gb

molecule MOL {
0 1

H	 1.166964	 -1.062386	 0.758429
O	 1.324748	 -0.612467	 -0.052206
C	 0.706474	 0.636793	 -0.025501
C	 0.243297	 1.134584	 -1.365390
H	 1.433485	 1.330179	 0.380667
H	 -0.138465	 0.636742	 0.660633
C	 0.466365	 0.550742	 -2.521969
H	 -0.316167	 2.055034	 -1.333435
H	 1.033619	 -0.357364	 -2.596392
H	 0.096927	 0.973613	 -3.436713

	symmetry c1
}
set optking {
	frozen_dihedral = ("
		5 3 2 1
	")
}

ee = optimize('scf')
oeprop('DIPOLE', 'QUADRUPOLE', 'MULLIKEN_CHARGES')
f=open( 'psi4out.xyz', 'w' )
f.write( "10  " )
f.write( str(ee) + "\n" )
f.write( MOL.save_string_xyz() )
f.close()
--------------------------------------------------------------------------

    Molecular point group: c1
  Charge       = 0
  Multiplicity = 1
  Basis Set: CC-PVTZ
  Basis Set:
  @DF-RHF Final Energy:  -191.99568722650486
    Total Energy =                       -191.9956872265050833
    Molecular point group: c1
  Basis Set: CC-PVTZ
  Basis Set:
  Basis Set: CC-PVTZ
  Basis Set:
  @DF-RHF Final Energy:  -191.99689778128626
    Total Energy =                       -191.9968977812862363
  Basis Set: CC-PVTZ
  Basis Set:
  Basis Set: CC-PVTZ
  Basis Set:
  @DF-RHF Final Energy:  -191.99719346432232
    Total Energy =                       -191.9971934643222937
  Basis Set: CC-PVTZ
  Basis Set:
  Basis Set: CC-PVTZ
  Basis Set:
  @DF-RHF Final Energy:  -191.99721088153055
    Total Energy =                       -191.9972108815304637
  Basis Set: CC-PVTZ
  Basis Set:
  Basis Set: CC-PVTZ
  Basis Set:
  @DF-RHF Final Energy:  -191.99721392954353
    Total Energy =                       -191.9972139295433635
  Basis Set: CC-PVTZ
  Basis Set:
  Basis Set: CC-PVTZ
  Basis Set:
  @DF-RHF Final Energy:  -191.99721652403568
    Total Energy =                       -191.9972165240357924
  Basis Set: CC-PVTZ
  Basis Set:
  Basis Set: CC-PVTZ
  Basis Set:
  @DF-RHF Final Energy:  -191.99722275980108
    Total Energy =                       -191.9972227598010477
  Basis Set: CC-PVTZ
  Basis Set:
  Charge       = 0
  Multiplicity = 1
  Basis Set: CC-PVTZ
  Basis Set:

    Orbital Energies (a.u.)
    -----------------------

    Doubly Occupied:

       1A    -20.553560     2A    -11.278270     3A    -11.223523
       4A    -11.207782     5A     -1.373656     6A     -1.058347
       7A     -0.926415     8A     -0.757189     9A     -0.712784
      10A     -0.645535    11A     -0.616665    12A     -0.589794
      13A     -0.516814    14A     -0.493732    15A     -0.455750
      16A     -0.360558

  @DF-RHF Final Energy:  -191.99722877403889

   => Energetics <=

    Nuclear Repulsion Energy =            119.5850266186793505
    One-Electron Energy =                -497.6237631517716977
    Two-Electron Energy =                 186.0415077590533883
    DFT Exchange-Correlation Energy =       0.0000000000000000
    Empirical Dispersion Energy =           0.0000000000000000
    PCM Polarization Energy =               0.0000000000000000
    EFP Energy =                            0.0000000000000000
    Total Energy =                       -191.9972287740389447
    Molecular point group: c1
  Basis Set: CC-PVTZ
  Basis Set:

  -Total Gradient:
     Atom            X                  Y                   Z
    ------   -----------------  -----------------  -----------------
       1       -0.000799104366    -0.000413574414    -0.000426807895
       2        0.001063463964     0.000580057662     0.000318341508
       3       -0.000538521644    -0.000386412521     0.000856450868
       4       -0.000026853922    -0.000022214816     0.000018121589
       5        0.000295726152     0.000225250263    -0.000769604069
       6       -0.000010120410     0.000009876667    -0.000003210129
       7        0.000000322763    -0.000012857740    -0.000016896093
       8        0.000007097552     0.000007767507     0.000006265434
       9        0.000001626093     0.000001315771     0.000009627171
      10        0.000006363818     0.000010791619     0.000007711616

  **** Optimization is complete! (in 8 steps) ****
    Final optimized geometry and variables:
    Molecular point group: c1

    Geometry (in Angstrom), charge = 0, multiplicity = 1:

    H            0.501506107643    -1.464161049929     1.591950092588
    O            0.645986941490    -0.951454190819     0.819756214529
    C           -0.031616364934     0.267259970859     0.915651954986
    C           -0.452777061331     0.765573856284    -0.433739307182
    H            0.608114463312     1.017826961081     1.375968165657
    H           -0.914569302964     0.173878881474     1.544107769586
    C           -0.280211563873     0.134419847247    -1.572713311689
    H           -0.928890154555     1.731922694855    -0.422110461698
    H            0.195313786552    -0.825495489080    -1.614145389169
    H           -0.609735814341     0.568006931808    -2.497919551017

  Mulliken Charges: (a.u.)
   Center  Symbol    Alpha    Beta     Spin     Total
       1     H     0.39202  0.39202  0.00000  0.21596
       2     O     4.19472  4.19472  0.00000 -0.38944
       3     C     2.94041  2.94041  0.00000  0.11919
       4     C     3.08076  3.08076  0.00000 -0.16153
       5     H     0.47174  0.47174  0.00000  0.05651
       6     H     0.47462  0.47462  0.00000  0.05076
       7     C     3.17128  3.17128  0.00000 -0.34255
       8     H     0.42419  0.42419  0.00000  0.15163
       9     H     0.42008  0.42008  0.00000  0.15983
      10     H     0.43018  0.43018  0.00000  0.13964

   Total alpha = 16.00000, Total beta = 16.00000, Total charge = -0.00000
