                              Psi4 1.0.54 Driver

  ==> Input File <==

--------------------------------------------------------------------------
set {
	reference rhf
	basis cc-pvtz
}

set_num_threads( 4 )
memory 2 gb

molecule MOL {
0 1

H	 -2.556344	 0.770586	 0.918069
C	 -2.545802	 0.089603	 0.077609
C	 -1.285283	 -0.761220	 0.080362
H	 -2.611086	 0.683838	 -0.823966
H	 -3.424899	 -0.540958	 0.136638
C	 0.000000	 0.039916	 0.000014
H	 -1.289667	 -1.460885	 -0.751112
H	 -1.235392	 -1.374936	 0.975769
C	 1.286532	 -0.763243	 0.000268
O	 -0.000926	 1.226011	 -0.059621
C	 2.547023	 0.087626	 -0.000114
H	 1.264245	 -1.421103	 -0.864380
H	 1.264290	 -1.420353	 0.865489
H	 2.584452	 0.725630	 -0.872909
H	 3.427035	 -0.544422	 0.000125
H	 2.584484	 0.726356	 0.872143

	symmetry c1
}
set optking {
	frozen_dihedral = ("
		3 6 9 12
	")
}

ee,wfn = optimize('scf', return_wfn=True)
oeprop( wfn, 'DIPOLE', 'QUADRUPOLE', 'MULLIKEN_CHARGES')
f=open( 'psi4out.xyz', 'w' )
f.write( "16  " )
f.write( str(ee) + "\n" )
f.write( MOL.save_string_xyz() )
f.close()
--------------------------------------------------------------------------

    Molecular point group: c1
  Charge       = 0
  Multiplicity = 1
  Basis Set: CC-PVTZ
  Basis Set:
  @DF-RHF Final Energy:  -270.13184835877979
    Total Energy =                       -270.1318483587796209
    Molecular point group: c1
  Basis Set: CC-PVTZ
  Basis Set:
  Basis Set: CC-PVTZ
  Basis Set:
  @DF-RHF Final Energy:  -270.13185627536757
    Total Energy =                       -270.1318562753673405
  Basis Set: CC-PVTZ
  Basis Set:
  Basis Set: CC-PVTZ
  Basis Set:
  @DF-RHF Final Energy:  -270.13179269757399
    Total Energy =                       -270.1317926975739283
  Basis Set: CC-PVTZ
  Basis Set:
  Basis Set: CC-PVTZ
  Basis Set:
  @DF-RHF Final Energy:  -270.13186160021007
    Total Energy =                       -270.1318616002098452
  Basis Set: CC-PVTZ
  Basis Set:
  Basis Set: CC-PVTZ
  Basis Set:
  @DF-RHF Final Energy:  -270.13186267698165
    Total Energy =                       -270.1318626769816547
  Basis Set: CC-PVTZ
  Basis Set:
  Charge       = 0
  Multiplicity = 1
  Basis Set: CC-PVTZ
  Basis Set:

    Orbital Energies (a.u.)
    -----------------------

    Doubly Occupied:

       1A    -20.539252     2A    -11.317909     3A    -11.232207
       4A    -11.232183     5A    -11.211774     6A    -11.211773
       7A     -1.399487     8A     -1.069380     9A     -1.037221
      10A     -0.917052    11A     -0.845978    12A     -0.725974
      13A     -0.669713    14A     -0.649277    15A     -0.619850
      16A     -0.608117    17A     -0.561199    18A     -0.527602
      19A     -0.525626    20A     -0.510883    21A     -0.505282
      22A     -0.492214    23A     -0.488263    24A     -0.401308

  @DF-RHF Final Energy:  -270.13186289485247

   => Energetics <=

    Nuclear Repulsion Energy =            240.3614987912179686
    One-Electron Energy =                -842.3876750772162723
    Two-Electron Energy =                 331.8943133911457153
    DFT Exchange-Correlation Energy =       0.0000000000000000
    Empirical Dispersion Energy =           0.0000000000000000
    PCM Polarization Energy =               0.0000000000000000
    EFP Energy =                            0.0000000000000000
    Total Energy =                       -270.1318628948525884
    Molecular point group: c1
  Basis Set: CC-PVTZ
  Basis Set:

  -Total Gradient:
     Atom            X                  Y                   Z
    ------   -----------------  -----------------  -----------------
       1       -0.000000585181     0.000000572476    -0.000000790518
       2        0.000000000540    -0.000002261817    -0.000000541740
       3        0.000004526106     0.000016599642     0.000035768766
       4        0.000000262741    -0.000000465404     0.000002563538
       5        0.000000566355    -0.000000433300     0.000000149912
       6       -0.000002565970     0.000028896082    -0.000067720333
       7       -0.000001439118    -0.000004728095     0.000000741019
       8       -0.000002046376    -0.000007168655     0.000001482089
       9       -0.000026980823    -0.000035482123     0.000056429426
      10        0.000000708554    -0.000022408528     0.000002873096
      11        0.000007053076     0.000002430857    -0.000001878057
      12        0.000020115160     0.000026903214    -0.000026851124
      13        0.000005770142     0.000002017984    -0.000008765270
      14       -0.000003500643    -0.000003704569     0.000004580133
      15       -0.000002393848    -0.000000588726     0.000002203591
      16        0.000000509284    -0.000000179038    -0.000000244530

  **** Optimization is complete! (in 6 steps) ****
    Final optimized geometry and variables:
    Molecular point group: c1

    Geometry (in Angstrom), charge = 0, multiplicity = 1:

    H           -2.569288812861     0.786395260586     0.859038652619
    C           -2.546808776924     0.087491931225     0.033886424218
    C           -1.285382901111    -0.761099911448     0.071990536083
    H           -2.600843711115     0.662033132984    -0.881311164945
    H           -3.425891366808    -0.542959347266     0.094329979917
    C           -0.000028458222     0.040429153705    -0.002709347520
    H           -1.277177561003    -1.480128254192    -0.742540344559
    H           -1.247047057444    -1.353452625754     0.982460540271
    C            1.285489444332    -0.763843537047    -0.031819441420
    O           -0.000112763974     1.227516567339    -0.036514221994
    C            2.546828852045     0.085788790232    -0.032754508551
    H            1.250202393157    -1.401050170070    -0.911671946522
    H            1.274695171602    -1.440913060612     0.817770417692
    H            2.571905837704     0.741978608487    -0.892147794770
    H            3.426077892996    -0.546802006393    -0.058319898708
    H            2.597988084154     0.705953273728     0.852370628415

  Mulliken Charges: (a.u.)
   Center  Symbol    Alpha    Beta     Spin     Total
       1     H     0.44723  0.44723  0.00000  0.10553
       2     C     3.14072  3.14072  0.00000 -0.28143
       3     C     3.09786  3.09786  0.00000 -0.19571
       4     H     0.44851  0.44851  0.00000  0.10299
       5     H     0.45075  0.45075  0.00000  0.09850
       6     C     2.87458  2.87458  0.00000  0.25084
       7     H     0.44620  0.44620  0.00000  0.10760
       8     H     0.44585  0.44585  0.00000  0.10830
       9     C     3.09785  3.09785  0.00000 -0.19569
      10     O     4.17122  4.17122  0.00000 -0.34244
      11     C     3.14072  3.14072  0.00000 -0.28144
      12     H     0.44586  0.44586  0.00000  0.10827
      13     H     0.44618  0.44618  0.00000  0.10765
      14     H     0.44714  0.44714  0.00000  0.10573
      15     H     0.45075  0.45075  0.00000  0.09850
      16     H     0.44860  0.44860  0.00000  0.10280

   Total alpha = 24.00000, Total beta = 24.00000, Total charge = -0.00000

*** Psi4 exiting successfully. Buy a developer a beer!
