  ==> Input File <==

--------------------------------------------------------------------------
set {
	reference rhf
	basis 6-31G*
}

set_num_threads( 4 )
memory 2 gb

molecule MOL {
0 1

H	 -3.794983	 -1.644552	 1.196117
O	 -3.252715	 -1.332112	 0.486024
C	 -2.019843	 -0.889529	 0.992716
C	 -1.177863	 -0.397191	 -0.171080
H	 -2.167832	 -0.085483	 1.712380
H	 -1.505152	 -1.698677	 1.509159
C	 0.198102	 0.111031	 0.262842
H	 -1.725300	 0.391920	 -0.679357
H	 -1.069849	 -1.210680	 -0.883151
C	 1.331804	 -0.827780	 -0.158768
H	 0.361943	 1.100838	 -0.156218
H	 0.217265	 0.229072	 1.345532
C	 2.723619	 -0.410569	 0.329459
H	 1.342964	 -0.912588	 -1.244120
H	 1.116806	 -1.824343	 0.220779
C	 3.243875	 0.895854	 -0.272975
H	 3.424222	 -1.207124	 0.091250
H	 2.714788	 -0.329854	 1.414619
H	 3.251977	 0.848779	 -1.358681
H	 2.637085	 1.747371	 0.016682
H	 4.259473	 1.094070	 0.055697

	symmetry c1
}
set optking {
	frozen_dihedral = ("
		8 4 7 10
	")
}

ee = optimize('scf')
oeprop('DIPOLE', 'QUADRUPOLE', 'MULLIKEN_CHARGES')
f=open( 'psi4out.xyz', 'w' )
f.write( "21  " )
f.write( str(ee) + "\n" )
f.write( MOL.save_string_xyz() )
f.close()
--------------------------------------------------------------------------

    Molecular point group: c1
  Charge       = 0
  Multiplicity = 1
  Basis Set: 6-31G*
  Basis Set:
  @DF-RHF Final Energy:  -310.20800675408935
    Total Energy =                       -310.2080067540894674
    Molecular point group: c1
  Basis Set: 6-31G*
  Basis Set:
  Basis Set: 6-31G*
  Basis Set:
  @DF-RHF Final Energy:  -310.20823185889378
    Total Energy =                       -310.2082318588937255
  Basis Set: 6-31G*
  Basis Set:
  Basis Set: 6-31G*
  Basis Set:
  @DF-RHF Final Energy:  -310.20827748706131
    Total Energy =                       -310.2082774870611388
  Basis Set: 6-31G*
  Basis Set:
  Basis Set: 6-31G*
  Basis Set:
  @DF-RHF Final Energy:  -310.20825642303720
    Total Energy =                       -310.2082564230371418
  Basis Set: 6-31G*
  Basis Set:
  Basis Set: 6-31G*
  Basis Set:
  @DF-RHF Final Energy:  -310.20829606775811
    Total Energy =                       -310.2082960677578285
  Basis Set: 6-31G*
  Basis Set:
  Charge       = 0
  Multiplicity = 1
  Basis Set: 6-31G*
  Basis Set:

    Orbital Energies (a.u.)
    -----------------------

    Doubly Occupied:

       1A    -20.552047     2A    -11.267633     3A    -11.215648
       4A    -11.215340     5A    -11.214112     6A    -11.210305
       7A    -11.208201     8A     -1.359124     9A     -1.085184
      10A     -1.031822    11A     -0.953327    12A     -0.877615
      13A     -0.808855    14A     -0.778615    15A     -0.694011
      16A     -0.651861    17A     -0.626458    18A     -0.608996
      19A     -0.589967    20A     -0.557111    21A     -0.548175
      22A     -0.516921    23A     -0.507268    24A     -0.495060
      25A     -0.474957    26A     -0.460210    27A     -0.452186
      28A     -0.446702    29A     -0.430847

  @DF-RHF Final Energy:  -310.20829553532764

   => Energetics <=

    Nuclear Repulsion Energy =            313.6631046586083471
    One-Electron Energy =               -1042.0656773499558767
    Two-Electron Energy =                 418.1942771560197798
    DFT Exchange-Correlation Energy =       0.0000000000000000
    Empirical Dispersion Energy =           0.0000000000000000
    PCM Polarization Energy =               0.0000000000000000
    EFP Energy =                            0.0000000000000000
    Total Energy =                       -310.2082955353278066
    Molecular point group: c1
  Basis Set: 6-31G*
  Basis Set:

  -Total Gradient:
     Atom            X                  Y                   Z
    ------   -----------------  -----------------  -----------------
       1       -0.000026214313    -0.000014898676    -0.000007838378
       2       -0.000068425714    -0.000043840948     0.000034509004
       3        0.000006512088     0.000052499594    -0.000095858384
       4       -0.000792060842     0.001006826438     0.001683373586
       5        0.000021476855     0.000003260987    -0.000006024549
       6        0.000001205006     0.000007747986    -0.000020673529
       7       -0.000052349933    -0.001162301389     0.001274936591
       8        0.000685657705    -0.000590896508    -0.001678353128
       9       -0.000017750024    -0.000010202836     0.000020326124
      10        0.000127221766     0.000753205987    -0.001192618452
      11        0.000031823245    -0.000007613682    -0.000001738047
      12        0.000020811028    -0.000015634852     0.000001820045
      13        0.000032470981     0.000004775512    -0.000018995584
      14       -0.000030789217     0.000009661068    -0.000003296806
      15        0.000021641070     0.000030318038     0.000010767924
      16        0.000020987020    -0.000018219338    -0.000004204384
      17        0.000030703065    -0.000007645424     0.000024293149
      18       -0.000027048655     0.000022415620    -0.000013143897
      19       -0.000008694319     0.000007190391    -0.000010785696
      20        0.000018597643    -0.000014391312     0.000012806263
      21        0.000004225553    -0.000012256654    -0.000009301854

  **** Optimization is complete! (in 6 steps) ****
    Final optimized geometry and variables:
    Molecular point group: c1

    Geometry (in Angstrom), charge = 0, multiplicity = 1:

    H           -3.862775836643    -1.261011504025     0.987605392345
    O           -3.326829847164    -0.949512714308     0.272272263401
    C           -2.110246033876    -0.458499161964     0.771169313013
    C           -1.281503359253     0.042656746548    -0.398421037747
    H           -2.283391957380     0.352417007325     1.477332580115
    H           -1.567834561326    -1.241103942914     1.301020324339
    C            0.113852273201     0.546135196467     0.026804014681
    H           -1.838082415982     0.820806979134    -0.910180864923
    H           -1.186582070443    -0.770917643044    -1.111620580587
    C            1.246330206940    -0.398116923873    -0.389973332508
    H            0.288096653053     1.527768467965    -0.400903327081
    H            0.146221790307     0.684851467960     1.106762588209
    C            2.637770027821     0.009051167541     0.106633812034
    H            1.260252849969    -0.477473861071    -1.475514816729
    H            1.024340266431    -1.396469271322    -0.017291087715
    C            3.167468569102     1.315785294655    -0.487141171404
    H            3.335613033268    -0.789932115231    -0.131837271998
    H            2.624290092436     0.085033924982     1.192203911157
    H            3.176063359074     1.275505952006    -1.573101386353
    H            2.566352944311     2.169541586193    -0.192527215086
    H            4.184177499232     1.504774169162    -0.156525713289

  Mulliken Charges: (a.u.)
   Center  Symbol    Alpha    Beta     Spin     Total
       1     H     0.28113  0.28113  0.00000  0.43773
       2     O     4.37147  4.37147  0.00000 -0.74294
       3     C     2.99273  2.99273  0.00000  0.01454
       4     C     3.16184  3.16184  0.00000 -0.32368
       5     H     0.43223  0.43223  0.00000  0.13554
       6     H     0.43294  0.43294  0.00000  0.13412
       7     C     3.16571  3.16571  0.00000 -0.33141
       8     H     0.41243  0.41243  0.00000  0.17514
       9     H     0.41184  0.41184  0.00000  0.17631
      10     C     3.15335  3.15335  0.00000 -0.30669
      11     H     0.41613  0.41613  0.00000  0.16774
      12     H     0.42370  0.42370  0.00000  0.15260
      13     C     3.15300  3.15300  0.00000 -0.30601
      14     H     0.42197  0.42197  0.00000  0.15606
      15     H     0.42234  0.42234  0.00000  0.15532
      16     C     3.24127  3.24127  0.00000 -0.48253
      17     H     0.42073  0.42073  0.00000  0.15853
      18     H     0.42396  0.42396  0.00000  0.15209
      19     H     0.42179  0.42179  0.00000  0.15642
      20     H     0.42020  0.42020  0.00000  0.15960
      21     H     0.41924  0.41924  0.00000  0.16153

   Total alpha = 29.00000, Total beta = 29.00000, Total charge =  0.00000
