  ==> Input File <==

--------------------------------------------------------------------------
set {
	reference rhf
	basis 6-31G*
}

set_num_threads( 1 )
memory 2 gb

molecule MOL {
0 1

H	 0.530914	 -0.336906	 -4.429012
O	 1.445999	 -0.569924	 -4.487258
C	 2.136018	 -0.061081	 -3.374151
C	 1.833143	 -0.814070	 -2.083415
H	 3.187840	 -0.152966	 -3.612693
H	 1.924941	 1.000130	 -3.247435
C	 0.375417	 -0.708490	 -1.628709
H	 2.096867	 -1.859104	 -2.223841
H	 2.484572	 -0.424579	 -1.302836
C	 0.115918	 -1.429151	 -0.302766
H	 -0.269699	 -1.122169	 -2.398814
H	 0.104203	 0.342064	 -1.523257
C	 -1.309753	 -1.282496	 0.241564
H	 0.350228	 -2.485894	 -0.417834
H	 0.809872	 -1.044605	 0.441716
C	 -2.037799	 -0.007733	 -0.193645
H	 -1.890610	 -2.142323	 -0.085726
H	 -1.285946	 -1.330893	 1.329189
C	 -3.489788	 0.042957	 0.286558
H	 -2.017067	 0.064384	 -1.280144
H	 -1.513726	 0.868678	 0.179924
C	 -4.216917	 1.317354	 -0.141063
H	 -4.025645	 -0.823308	 -0.095450
H	 -3.513059	 -0.038752	 1.371301
H	 -4.239342	 1.411634	 -1.223113
H	 -5.243387	 1.322503	 0.212445
H	 -3.726170	 2.201406	 0.256408

	symmetry c1
}
set optking {
	frozen_dihedral = ("
		14 10 7 4,
		10 7 4 8,
		8 4 3 2,
		10 13 16 20,
		20 16 19 22,
		4 3 2 1
	")
}

ee = energy('scf')
oeprop('DIPOLE', 'QUADRUPOLE', 'MULLIKEN_CHARGES')
f=open( 'psi4out.xyz', 'w' )
f.write( "27  " )
f.write( str(ee) + "\n" )
f.write( MOL.save_string_xyz() )
f.close()
--------------------------------------------------------------------------

    Molecular point group: c1

    Geometry (in Angstrom), charge = 0, multiplicity = 1:

       Center              X                  Y                   Z               Mass
    ------------   -----------------  -----------------  -----------------  -----------------
           H          1.086939135871     0.039736923788    -3.074186601548     1.007825032070
           O          2.002024135871    -0.193281076212    -3.132432601548    15.994914619560
           C          2.692043135871     0.315561923788    -2.019325601548    12.000000000000
           C          2.389168135871    -0.437427076212    -0.728589601548    12.000000000000
           H          3.743865135871     0.223676923788    -2.257867601548     1.007825032070
           H          2.480966135871     1.376772923788    -1.892609601548     1.007825032070
           C          0.931442135871    -0.331847076212    -0.273883601548    12.000000000000
           H          2.652892135871    -1.482461076212    -0.869015601548     1.007825032070
           H          3.040597135871    -0.047936076212     0.051989398452     1.007825032070
           C          0.671943135871    -1.052508076212     1.052059398452    12.000000000000
           H          0.286326135871    -0.745526076212    -1.043988601548     1.007825032070
           H          0.660228135871     0.718706923788    -0.168431601548     1.007825032070
           C         -0.753727864129    -0.905853076212     1.596389398452    12.000000000000
           H          0.906253135871    -2.109251076212     0.936991398452     1.007825032070
           H          1.365897135871    -0.667962076212     1.796541398452     1.007825032070
           C         -1.481773864129     0.368909923788     1.161180398452    12.000000000000
           H         -1.334584864129    -1.765680076212     1.269099398452     1.007825032070
           H         -0.729920864129    -0.954250076212     2.684014398452     1.007825032070
           C         -2.933762864129     0.419599923788     1.641383398452    12.000000000000
           H         -1.461041864129     0.441026923788     0.074681398452     1.007825032070
           H         -0.957700864129     1.245320923788     1.534749398452     1.007825032070
           C         -3.660891864129     1.693996923788     1.213762398452    12.000000000000
           H         -3.469619864129    -0.446665076212     1.259375398452     1.007825032070
           H         -2.957033864129     0.337890923788     2.726126398452     1.007825032070
           H         -3.683316864129     1.788276923788     0.131712398452     1.007825032070
           H         -4.687361864129     1.699145923788     1.567270398452     1.007825032070
           H         -3.170144864129     2.578048923788     1.611233398452     1.007825032070

  Charge       = 0
  Multiplicity = 1
  Basis Set: 6-31G*
  Basis Set:

    Orbital Energies (a.u.)
    -----------------------

    Doubly Occupied:

       1A    -20.552145     2A    -11.266823     3A    -11.219308
       4A    -11.216628     5A    -11.216274     6A    -11.215272
       7A    -11.214684     8A    -11.214603     9A    -11.210173
      10A     -1.358890    11A     -1.097042    12A     -1.060423
      13A     -1.011571    14A     -0.946820    15A     -0.891749
      16A     -0.819842    17A     -0.809088    18A     -0.768244
      19A     -0.693943    20A     -0.655432    21A     -0.636381
      22A     -0.612176    23A     -0.606559    24A     -0.584862
      25A     -0.576247    26A     -0.552528    27A     -0.546838
      28A     -0.526378    29A     -0.505565    30A     -0.499565
      31A     -0.488544    32A     -0.475208    33A     -0.463222
      34A     -0.456127    35A     -0.450353    36A     -0.442784
      37A     -0.423202

  @DF-RHF Final Energy:  -388.27513877203114

   => Energetics <=

    Nuclear Repulsion Energy =            464.0173303960760904
    One-Electron Energy =               -1446.0140558515881821
    Two-Electron Energy =                 593.7215866834819735
    DFT Exchange-Correlation Energy =       0.0000000000000000
    Empirical Dispersion Energy =           0.0000000000000000
    PCM Polarization Energy =               0.0000000000000000
    EFP Energy =                            0.0000000000000000
    Total Energy =                       -388.2751387720301182

  Mulliken Charges: (a.u.)
   Center  Symbol    Alpha    Beta     Spin     Total
       1     H     0.28003  0.28003  0.00000  0.43995
       2     O     4.37099  4.37099  0.00000 -0.74198
       3     C     2.99738  2.99738  0.00000  0.00525
       4     C     3.15974  3.15974  0.00000 -0.31948
       5     H     0.41445  0.41445  0.00000  0.17110
       6     H     0.43217  0.43217  0.00000  0.13567
       7     C     3.16834  3.16834  0.00000 -0.33668
       8     H     0.41545  0.41545  0.00000  0.16910
       9     H     0.42438  0.42438  0.00000  0.15123
      10     C     3.15190  3.15190  0.00000 -0.30379
      11     H     0.42491  0.42491  0.00000  0.15019
      12     H     0.42025  0.42025  0.00000  0.15950
      13     C     3.15379  3.15379  0.00000 -0.30757
      14     H     0.41878  0.41878  0.00000  0.16245
      15     H     0.42282  0.42282  0.00000  0.15436
      16     C     3.15650  3.15650  0.00000 -0.31300
      17     H     0.42269  0.42269  0.00000  0.15461
      18     H     0.42029  0.42029  0.00000  0.15941
      19     C     3.15028  3.15028  0.00000 -0.30056
      20     H     0.42222  0.42222  0.00000  0.15556
      21     H     0.42399  0.42399  0.00000  0.15201
      22     C     3.23920  3.23920  0.00000 -0.47839
      23     H     0.42288  0.42288  0.00000  0.15423
      24     H     0.42303  0.42303  0.00000  0.15393
      25     H     0.42258  0.42258  0.00000  0.15483
      26     H     0.41889  0.41889  0.00000  0.16222
      27     H     0.42208  0.42208  0.00000  0.15584

   Total alpha = 37.00000, Total beta = 37.00000, Total charge =  0.00000
