  ==> Input File <==

--------------------------------------------------------------------------
set {
	reference rhf
	basis cc-pvtz
}

set_num_threads( 4 )
memory 2 gb

molecule MOL {
0 1

O	 3.219313	 0.959291	 -0.614106
C	 2.698710	 0.058177	 -0.050237
C	 1.246364	 -0.005813	 0.348416
O	 3.344101	 -1.038700	 0.312317
C	 0.453207	 1.232821	 -0.049003
H	 0.839270	 -0.907818	 -0.092281
H	 1.216683	 -0.160521	 1.422434
C	 -0.998367	 1.217982	 0.432195
H	 0.481498	 1.345443	 -1.127236
H	 0.951413	 2.105557	 0.354893
C	 -1.882951	 0.151251	 -0.211235
H	 -1.429490	 2.193659	 0.228843
H	 -1.019755	 1.099323	 1.513279
C	 -3.342450	 0.243269	 0.226009
H	 -1.826223	 0.246578	 -1.293162
H	 -1.508033	 -0.839650	 0.027695
C	 -4.234517	 -0.821434	 -0.405970
H	 -3.730149	 1.228245	 -0.022691
H	 -3.398860	 0.159952	 1.308941
C	 -5.610559	 -0.914485	 0.244897
H	 -4.351247	 -0.608869	 -1.465173
H	 -3.740769	 -1.787376	 -0.342525
H	 -6.217593	 -1.678814	 -0.226585
H	 -6.144747	 0.026612	 0.166874
H	 -5.529332	 -1.160203	 1.298573
C	 4.720529	 -1.114346	 0.001449
H	 4.874321	 -1.055557	 -1.065852
H	 5.057824	 -2.067950	 0.373977
H	 5.264321	 -0.313596	 0.480350

	symmetry c1
}
set optking {
	frozen_dihedral = ("
		21 17 14 11
	")
}

ee = optimize('scf')
oeprop('DIPOLE', 'QUADRUPOLE', 'MULLIKEN_CHARGES')
f=open( 'psi4out.xyz', 'w' )
f.write( "29  " )
f.write( str(ee) + "\n" )
f.write( MOL.save_string_xyz() )
f.close()
--------------------------------------------------------------------------

    Molecular point group: c1
  Charge       = 0
  Multiplicity = 1
  Basis Set: CC-PVTZ
  Basis Set:
  @DF-RHF Final Energy:  -501.22439048936508
    Total Energy =                       -501.2243904893650779
    Molecular point group: c1
  Basis Set: CC-PVTZ
  Basis Set:
  Basis Set: CC-PVTZ
  Basis Set:
  @DF-RHF Final Energy:  -501.22444695997115
    Total Energy =                       -501.2244469599718286
  Basis Set: CC-PVTZ
  Basis Set:
  Basis Set: CC-PVTZ
  Basis Set:
  @DF-RHF Final Energy:  -501.22445586425340
    Total Energy =                       -501.2244558642539687
  Basis Set: CC-PVTZ
  Basis Set:
  Basis Set: CC-PVTZ
  Basis Set:
  @DF-RHF Final Energy:  -501.22442774214699
    Total Energy =                       -501.2244277421466450
  Basis Set: CC-PVTZ
  Basis Set:
  Basis Set: CC-PVTZ
  Basis Set:
  @DF-RHF Final Energy:  -501.22446690938614
    Total Energy =                       -501.2244669093864786
  Basis Set: CC-PVTZ
  Basis Set:
  Charge       = 0
  Multiplicity = 1
  Basis Set: CC-PVTZ
  Basis Set:

    Orbital Energies (a.u.)
    -----------------------

    Doubly Occupied:

       1A    -20.596000     2A    -20.533845     3A    -11.364262
       4A    -11.278255     5A    -11.232957     6A    -11.217049
       7A    -11.215511     8A    -11.213960     9A    -11.213720
      10A    -11.212301    11A    -11.207061    12A     -1.471893
      13A     -1.365479    14A     -1.099322    15A     -1.067912
      16A     -1.020600    17A     -0.978143    18A     -0.929126
      19A     -0.862111    20A     -0.799776    21A     -0.790941
      22A     -0.765617    23A     -0.703023    24A     -0.685473
      25A     -0.676050    26A     -0.652231    27A     -0.628607
      28A     -0.606559    29A     -0.596189    30A     -0.582331
      31A     -0.567605    32A     -0.549720    33A     -0.533664
      34A     -0.531736    35A     -0.517322    36A     -0.510914
      37A     -0.498293    38A     -0.477936    39A     -0.470829
      40A     -0.462044    41A     -0.460979    42A     -0.458277
      43A     -0.443677    44A     -0.437304

  @DF-RHF Final Energy:  -501.22446611598775

   => Energetics <=

    Nuclear Repulsion Energy =            611.3560139761696064
    One-Electron Energy =               -1894.1877448621075928
    Two-Electron Energy =                 781.6072647699502340
    DFT Exchange-Correlation Energy =       0.0000000000000000
    Empirical Dispersion Energy =           0.0000000000000000
    PCM Polarization Energy =               0.0000000000000000
    EFP Energy =                            0.0000000000000000
    Total Energy =                       -501.2244661159877523
    Molecular point group: c1
  Basis Set: CC-PVTZ
  Basis Set:

  -Total Gradient:
     Atom            X                  Y                   Z
    ------   -----------------  -----------------  -----------------
       1       -0.000017506221    -0.000032497044    -0.000061854811
       2        0.000052399427     0.000078216052     0.000163641819
       3       -0.000044020808    -0.000030334239    -0.000067920883
       4       -0.000014774900    -0.000024474012    -0.000051172934
       5        0.000021695486     0.000028552830     0.000047716961
       6       -0.000052893670    -0.000036097361     0.000002108030
       7        0.000014024113     0.000012682178    -0.000015479960
       8       -0.000025029090     0.000042746636    -0.000044232681
       9        0.000000675757     0.000017145317     0.000003018239
      10        0.000010952181    -0.000018339790     0.000009120897
      11        0.000347029418    -0.001070969329     0.001279818607
      12       -0.000014631619     0.000000040251    -0.000010833675
      13       -0.000005484684     0.000015245201    -0.000010950731
      14       -0.000878382264     0.001752594332    -0.001652177943
      15       -0.000007915060     0.000012917411     0.000033160619
      16        0.000054059055    -0.000044664394    -0.000008491775
      17        0.002375968042    -0.001983711708    -0.000044347879
      18        0.000025009682     0.000027860706    -0.000013490221
      19       -0.000023046997     0.000000787838    -0.000013484010
      20        0.000003481266     0.000009976125    -0.000020112038
      21       -0.001840466793     0.001260015154     0.000511162065
      22        0.000018157585    -0.000011050544    -0.000030416455
      23       -0.000003417417    -0.000001412836    -0.000001060397
      24       -0.000006641065     0.000001613681     0.000008035102
      25        0.000011233019    -0.000005978796    -0.000009955967
      26        0.000000590042    -0.000000415194    -0.000000569438
      27        0.000001373111    -0.000000345852    -0.000000403363
      28       -0.000000532228    -0.000000200091    -0.000000919317
      29       -0.000001905372     0.000000097479     0.000000092138

  **** Optimization is complete! (in 6 steps) ****
    Final optimized geometry and variables:
    Molecular point group: c1

    Geometry (in Angstrom), charge = 0, multiplicity = 1:

    O            3.210251470562     0.974109548298    -0.645538584002
    C            2.691272223379     0.078565778155    -0.071393376887
    C            1.239537214452     0.017419851434     0.330081080688
    O            3.337921772862    -1.014555555862     0.300178322859
    C            0.444966311714     1.251847190471    -0.077524643076
    H            0.832345801318    -0.888882172785    -0.101705689847
    H            1.211519949218    -0.127442288141     1.405505509816
    C           -1.006560432315     1.239202781187     0.403894324389
    H            0.472951252666     1.355424923929    -1.156668408777
    H            0.942216687690     2.128521001312     0.318972954985
    C           -1.888091943296     0.162011730864    -0.225974834585
    H           -1.440354038117     2.211110311280     0.188664698852
    H           -1.027547703162     1.133729232453     1.486407522357
    C           -3.345180057203     0.246148806297     0.221232632436
    H           -1.836935496171     0.248934082005    -1.309192930346
    H           -1.506944936423    -0.824767890899     0.018915200549
    C           -4.243127195722    -0.806303963536    -0.425911982705
    H           -3.738450529506     1.236192020093     0.005550907044
    H           -3.386491833730     0.132972131645     1.302303849252
    C           -5.624142180678    -0.887735292118     0.218047031394
    H           -4.365347134499    -0.572418719485    -1.479822401323
    H           -3.763103866345    -1.779105057078    -0.373244948351
    H           -6.248136696791    -1.620366322065    -0.280948571973
    H           -6.134993900560     0.068419613085     0.169961676378
    H           -5.552882643892    -1.170219176391     1.263078297388
    C            4.713697643899    -1.092599680742    -0.013017430153
    H            4.865089281382    -1.043826877544    -1.081168755506
    H            5.052291146786    -2.042495870889     0.367735117449
    H            5.258212707166    -0.287126324642     0.457069147400

  Mulliken Charges: (a.u.)
   Center  Symbol    Alpha    Beta     Spin     Total
       1     O     4.19698  4.19698  0.00000 -0.39395
       2     C     2.80486  2.80486  0.00000  0.39028
       3     C     3.10176  3.10176  0.00000 -0.20353
       4     O     4.14723  4.14723  0.00000 -0.29445
       5     C     3.09255  3.09255  0.00000 -0.18509
       6     H     0.43912  0.43912  0.00000  0.12176
       7     H     0.43989  0.43989  0.00000  0.12021
       8     C     3.10391  3.10391  0.00000 -0.20782
       9     H     0.44619  0.44619  0.00000  0.10763
      10     H     0.43961  0.43961  0.00000  0.12079
      11     C     3.09280  3.09280  0.00000 -0.18559
      12     H     0.44534  0.44534  0.00000  0.10932
      13     H     0.45368  0.45368  0.00000  0.09264
      14     C     3.08670  3.08670  0.00000 -0.17339
      15     H     0.45304  0.45304  0.00000  0.09391
      16     H     0.45379  0.45379  0.00000  0.09241
      17     C     3.08336  3.08336  0.00000 -0.16672
      18     H     0.45271  0.45271  0.00000  0.09458
      19     H     0.45604  0.45604  0.00000  0.08792
      20     C     3.15024  3.15024  0.00000 -0.30047
      21     H     0.45380  0.45380  0.00000  0.09241
      22     H     0.45545  0.45545  0.00000  0.08910
      23     H     0.44854  0.44854  0.00000  0.10291
      24     H     0.45498  0.45498  0.00000  0.09004
      25     H     0.45546  0.45546  0.00000  0.08909
      26     C     3.03814  3.03814  0.00000 -0.07628
      27     H     0.45434  0.45434  0.00000  0.09132
      28     H     0.44528  0.44528  0.00000  0.10944
      29     H     0.45423  0.45423  0.00000  0.09154

   Total alpha = 44.00000, Total beta = 44.00000, Total charge = -0.00000
