                              Psi4 1.0.54 Driver

  ==> Input File <==

--------------------------------------------------------------------------
set {
	reference rhf
	basis cc-pvtz
}

set_num_threads( 4 )
memory 2 gb

molecule MOL {
0 1

O	 -0.694481	 1.313155	 -0.204815
C	 -0.862519	 0.151932	 -0.046791
C	 -2.171428	 -0.477048	 0.339095
O	 0.085519	 -0.757083	 -0.192238
H	 -2.467997	 -1.191667	 -0.417688
H	 -2.923379	 0.287970	 0.444097
H	 -2.053854	 -1.015120	 1.270901
C	 1.392036	 -0.330828	 -0.560749
C	 1.898364	 -1.069554	 -1.782147
H	 2.058441	 -0.462487	 0.277336
H	 1.288106	 0.724255	 -0.765076
H	 2.864760	 -0.672618	 -2.071929
H	 2.012612	 -2.124896	 -1.575789
H	 1.216000	 -0.945717	 -2.614395

	symmetry c1
}
set optking {
	frozen_dihedral = ("
		10 8 4 2
	")
}

ee,wfn = optimize('scf', return_wfn=True)
oeprop( wfn, 'DIPOLE', 'QUADRUPOLE', 'MULLIKEN_CHARGES')
f=open( 'psi4out.xyz', 'w' )
f.write( "14  " )
f.write( str(ee) + "\n" )
f.write( MOL.save_string_xyz() )
f.close()
--------------------------------------------------------------------------

    Molecular point group: c1
  Charge       = 0
  Multiplicity = 1
  Basis Set: CC-PVTZ
  Basis Set:
  @DF-RHF Final Energy:  -305.98843021665590
    Total Energy =                       -305.9884302166560701
    Molecular point group: c1
  Basis Set: CC-PVTZ
  Basis Set:
  Basis Set: CC-PVTZ
  Basis Set:
  @DF-RHF Final Energy:  -305.98933694003892
    Total Energy =                       -305.9893369400390384
  Basis Set: CC-PVTZ
  Basis Set:
  Basis Set: CC-PVTZ
  Basis Set:
  @DF-RHF Final Energy:  -305.99008952580414
    Total Energy =                       -305.9900895258042510
  Basis Set: CC-PVTZ
  Basis Set:
  Basis Set: CC-PVTZ
  Basis Set:
  @DF-RHF Final Energy:  -305.98994720785834
    Total Energy =                       -305.9899472078577674
  Basis Set: CC-PVTZ
  Basis Set:
  Basis Set: CC-PVTZ
  Basis Set:
  @DF-RHF Final Energy:  -305.99017715252648
    Total Energy =                       -305.9901771525265417
  Basis Set: CC-PVTZ
  Basis Set:
  Basis Set: CC-PVTZ
  Basis Set:
  @DF-RHF Final Energy:  -305.99017922267603
    Total Energy =                       -305.9901792226761472
  Basis Set: CC-PVTZ
  Basis Set:
  Charge       = 0
  Multiplicity = 1
  Basis Set: CC-PVTZ
  Basis Set:

    Orbital Energies (a.u.)
    -----------------------

    Doubly Occupied:

       1A    -20.593907     2A    -20.532505     3A    -11.368454
       4A    -11.282001     5A    -11.231247     6A    -11.220682
       7A     -1.469091     8A     -1.366215     9A     -1.058335
      10A     -1.000381    11A     -0.877021    12A     -0.777251
      13A     -0.699074    14A     -0.686239    15A     -0.663652
      16A     -0.613288    17A     -0.582588    18A     -0.564775
      19A     -0.562881    20A     -0.534465    21A     -0.517943
      22A     -0.498179    23A     -0.452799    24A     -0.442507

  @DF-RHF Final Energy:  -305.99017959198005

   => Energetics <=

    Nuclear Repulsion Energy =            246.3741637865605867
    One-Electron Energy =                -905.5377138379672033
    Two-Electron Energy =                 353.1733704594266783
    DFT Exchange-Correlation Energy =       0.0000000000000000
    Empirical Dispersion Energy =           0.0000000000000000
    PCM Polarization Energy =               0.0000000000000000
    EFP Energy =                            0.0000000000000000
    Total Energy =                       -305.9901795919799952
    Molecular point group: c1
  Basis Set: CC-PVTZ
  Basis Set:

  -Total Gradient:
     Atom            X                  Y                   Z
    ------   -----------------  -----------------  -----------------
       1       -0.000007572945     0.000044995034    -0.000006545033
       2       -0.000084139039    -0.000110703947    -0.000470034003
       3       -0.000001637602     0.000000304023    -0.000003333611
       4        0.000176327981    -0.000022568723     0.000646850366
       5       -0.000002792441    -0.000003222435    -0.000000281224
       6       -0.000004695205     0.000006937533    -0.000000676031
       7        0.000000977274    -0.000004603360     0.000002990081
       8       -0.000211059646     0.000560525243     0.000025814559
       9       -0.000020377184     0.000010712655    -0.000002272493
      10        0.000150776579    -0.000487860155    -0.000168759176
      11        0.000008455040    -0.000000412559    -0.000015515220
      12       -0.000001317418     0.000004363160     0.000004783177
      13       -0.000001455081     0.000006822327     0.000004222267
      14       -0.000001490311    -0.000005288789    -0.000017243658

  **** Optimization is complete! (in 7 steps) ****
    Final optimized geometry and variables:
    Molecular point group: c1

    Geometry (in Angstrom), charge = 0, multiplicity = 1:

    O           -0.748195548381     1.490900061980     0.243266316056
    C           -0.828501886593     0.316597970967     0.364999327271
    C           -2.088586038818    -0.416827407965     0.729416474514
    O            0.179795610924    -0.522723445418     0.198799111910
    H           -2.332136725865    -1.129271312010    -0.048036058169
    H           -2.894125166496     0.288254108616     0.854359649662
    H           -1.932342132594    -0.971328886992     1.645731537988
    C            1.465479231343    -0.030684620400    -0.161235682816
    C            1.982668552162    -0.822878499962    -1.341924793771
    H            2.107427736285    -0.162444300920     0.699649136614
    H            1.398015703024     1.019958590228    -0.385939990499
    H            2.984425259849    -0.493798162166    -1.593263743950
    H            2.017264222575    -1.880542494491    -1.112839371868
    H            1.349151837242    -0.679848455284    -2.208707482342

  Mulliken Charges: (a.u.)
   Center  Symbol    Alpha    Beta     Spin     Total
       1     O     4.19814  4.19814  0.00000 -0.39629
       2     C     2.80058  2.80058  0.00000  0.39884
       3     C     3.14031  3.14031  0.00000 -0.28062
       4     O     4.15711  4.15711  0.00000 -0.31422
       5     H     0.44626  0.44626  0.00000  0.10748
       6     H     0.43824  0.43824  0.00000  0.12353
       7     H     0.44577  0.44577  0.00000  0.10846
       8     C     2.98717  2.98717  0.00000  0.02565
       9     C     3.13433  3.13433  0.00000 -0.26866
      10     H     0.45362  0.45362  0.00000  0.09277
      11     H     0.44110  0.44110  0.00000  0.11781
      12     H     0.45422  0.45422  0.00000  0.09156
      13     H     0.45150  0.45150  0.00000  0.09699
      14     H     0.45166  0.45166  0.00000  0.09669

   Total alpha = 24.00000, Total beta = 24.00000, Total charge = -0.00000

*** Psi4 exiting successfully. Buy a developer a beer!
