  ==> Input File <==

--------------------------------------------------------------------------
set {
	reference rhf
	basis cc-pvtz
}

set_num_threads( 4 )
memory 2 gb

molecule MOL {
0 1

H	 -3.034039	 -0.667848	 0.004703
O	 -2.240597	 -1.171748	 0.000934
C	 -1.159675	 -0.364500	 0.000370
C	 -0.569263	 0.081135	 -1.164636
C	 -0.647633	 0.011545	 1.232626
H	 -0.963352	 -0.210752	 -2.120959
C	 0.539557	 0.905803	 -1.082987
H	 -1.128637	 -0.354067	 2.119136
C	 0.456696	 0.835867	 1.312199
H	 1.003475	 1.252119	 -1.987210
C	 1.053199	 1.282674	 0.137237
C	 0.999243	 1.264107	 2.652310
H	 1.915391	 1.920649	 0.182771
H	 2.080873	 1.212688	 2.668224
H	 0.619061	 0.639601	 3.449304
H	 0.717114	 2.288882	 2.868833

	symmetry c1
}
set optking {
	frozen_dihedral = ("
		5 3 2 1
	")
}

ee = optimize('scf')
oeprop('DIPOLE', 'QUADRUPOLE', 'MULLIKEN_CHARGES')
f=open( 'psi4out.xyz', 'w' )
f.write( "16  " )
f.write( str(ee) + "\n" )
f.write( MOL.save_string_xyz() )
f.close()
--------------------------------------------------------------------------

    Molecular point group: c1
  Charge       = 0
  Multiplicity = 1
  Basis Set: CC-PVTZ
  Basis Set:
  @DF-RHF Final Energy:  -344.71528150604161
    Total Energy =                       -344.7152815060416060
    Molecular point group: c1
  Basis Set: CC-PVTZ
  Basis Set:
  Basis Set: CC-PVTZ
  Basis Set:
  @DF-RHF Final Energy:  -344.71611578431151
    Total Energy =                       -344.7161157843114552
  Basis Set: CC-PVTZ
  Basis Set:
  Basis Set: CC-PVTZ
  Basis Set:
  @DF-RHF Final Energy:  -344.71617775233176
    Total Energy =                       -344.7161777523318165
  Basis Set: CC-PVTZ
  Basis Set:
  Basis Set: CC-PVTZ
  Basis Set:
  @DF-RHF Final Energy:  -344.71618412200388
    Total Energy =                       -344.7161841220043357
  Basis Set: CC-PVTZ
  Basis Set:
  Basis Set: CC-PVTZ
  Basis Set:
  @DF-RHF Final Energy:  -344.71618529104472
    Total Energy =                       -344.7161852910446669
  Basis Set: CC-PVTZ
  Basis Set:
  Charge       = 0
  Multiplicity = 1
  Basis Set: CC-PVTZ
  Basis Set:

    Orbital Energies (a.u.)
    -----------------------

    Doubly Occupied:

       1A    -20.568741     2A    -11.286213     3A    -11.240430
       4A    -11.230942     5A    -11.220968     6A    -11.219236
       7A    -11.219146     8A    -11.218946     9A     -1.395362
      10A     -1.155046    11A     -1.046934    12A     -1.007341
      13A     -0.939326    14A     -0.831890    15A     -0.809787
      16A     -0.721419    17A     -0.679612    18A     -0.659221
      19A     -0.622584    20A     -0.593051    21A     -0.578284
      22A     -0.570253    23A     -0.552753    24A     -0.514401
      25A     -0.505782    26A     -0.485064    27A     -0.466469
      28A     -0.334100    29A     -0.322935

  @DF-RHF Final Energy:  -344.71618571799343

   => Energetics <=

    Nuclear Repulsion Energy =            345.8007342772924630
    One-Electron Energy =               -1153.0413677901765368
    Two-Electron Energy =                 462.5244477948907615
    DFT Exchange-Correlation Energy =       0.0000000000000000
    Empirical Dispersion Energy =           0.0000000000000000
    PCM Polarization Energy =               0.0000000000000000
    EFP Energy =                            0.0000000000000000
    Total Energy =                       -344.7161857179933122
    Molecular point group: c1
  Basis Set: CC-PVTZ
  Basis Set:

  -Total Gradient:
     Atom            X                  Y                   Z
    ------   -----------------  -----------------  -----------------
       1       -0.000007414457     0.000001232715    -0.000089887122
       2       -0.000064742074    -0.000073344867     0.000122425488
       3        0.000060718712     0.000113938493    -0.000114343344
       4       -0.000017301946    -0.000002835161    -0.000002614775
       5        0.000010747252    -0.000066087377     0.000073384358
       6       -0.000004644784    -0.000004612043     0.000003054072
       7       -0.000018772943    -0.000003048213     0.000025699885
       8        0.000017508444     0.000008478028    -0.000029235775
       9        0.000009577101     0.000008832122     0.000000393855
      10        0.000000268160     0.000000328157     0.000000240707
      11        0.000008094352     0.000003486343    -0.000004572073
      12        0.000002369335     0.000010397267    -0.000000677084
      13       -0.000008102325     0.000002344719     0.000010914531
      14        0.000003302610    -0.000010569261     0.000002761352
      15       -0.000004185990     0.000006403930     0.000006102855
      16        0.000012578549     0.000005055145    -0.000003646930

  **** Optimization is complete! (in 6 steps) ****
    Final optimized geometry and variables:
    Molecular point group: c1

    Geometry (in Angstrom), charge = 0, multiplicity = 1:

    H           -2.800141629532    -1.030918671200    -0.444640275516
    O           -1.997083968205    -1.521429173967    -0.450945266230
    C           -0.920841533685    -0.678098282723    -0.398223324611
    C           -0.329263228802    -0.244772699218    -1.565231388914
    C           -0.405012699771    -0.306844868425     0.830168322515
    H           -0.730549960145    -0.555968570034    -2.509836842166
    C            0.783469985329     0.573157474025    -1.489685003986
    H           -0.878222782266    -0.677322239370     1.719583411893
    C            0.707105694235     0.512998674322     0.911322133891
    H            1.253478861639     0.913029078014    -2.393064816602
    C            1.297542806185     0.950537399977    -0.266605104626
    C            1.258979887669     0.936762728725     2.249514379224
    H            2.165209937796     1.582159306041    -0.225127929029
    H            2.340451672279     0.880821487544     2.260226372919
    H            0.881706602552     0.310362936952     3.046660285222
    H            0.982332197358     1.961603207505     2.473181901855

  Mulliken Charges: (a.u.)
   Center  Symbol    Alpha    Beta     Spin     Total
       1     H     0.38913  0.38913  0.00000  0.22175
       2     O     4.19241  4.19241  0.00000 -0.38481
       3     C     2.85679  2.85679  0.00000  0.28641
       4     C     3.12413  3.12413  0.00000 -0.24826
       5     C     3.14429  3.14429  0.00000 -0.28859
       6     H     0.41751  0.41751  0.00000  0.16499
       7     C     3.06076  3.06076  0.00000 -0.12153
       8     H     0.42007  0.42007  0.00000  0.15986
       9     C     2.94637  2.94637  0.00000  0.10727
      10     H     0.42219  0.42219  0.00000  0.15561
      11     C     3.10742  3.10742  0.00000 -0.21485
      12     C     3.14621  3.14621  0.00000 -0.29242
      13     H     0.42692  0.42692  0.00000  0.14616
      14     H     0.44786  0.44786  0.00000  0.10427
      15     H     0.45052  0.45052  0.00000  0.09896
      16     H     0.44742  0.44742  0.00000  0.10516

   Total alpha = 29.00000, Total beta = 29.00000, Total charge = -0.00000
