  ==> Input File <==

--------------------------------------------------------------------------
set {
	reference rhf
	basis 6-31G*
}

set_num_threads( 4 )
memory 2 gb

molecule MOL {
0 1

O	 -2.796348	 1.274709	 0.433760
C	 -2.655162	 0.111424	 0.230163
C	 -3.789634	 -0.880335	 0.204581
O	 -1.481751	 -0.454642	 0.000584
H	 -4.501203	 -0.575520	 -0.553456
H	 -3.443728	 -1.883124	 0.001597
H	 -4.297733	 -0.852465	 1.161105
C	 -0.334255	 0.388708	 0.000906
C	 0.891947	 -0.504646	 0.000751
H	 -0.365390	 1.025305	 -0.873475
H	 -0.365484	 1.024911	 0.875569
C	 2.191998	 0.301789	 0.000897
H	 0.855148	 -1.151283	 -0.871571
H	 0.855132	 -1.151660	 0.872805
C	 3.441114	 -0.581407	 0.000108
H	 2.215074	 0.954890	 -0.869742
H	 2.215465	 0.953923	 0.872248
C	 4.739576	 0.224112	 -0.001102
H	 3.419457	 -1.233487	 -0.870178
H	 3.420834	 -1.233096	 0.870717
H	 4.804918	 0.861552	 -0.878265
H	 5.606527	 -0.429058	 -0.001824
H	 4.806469	 0.861674	 0.875853

	symmetry c1
}
set optking {
	frozen_dihedral = ("
		2 4 8 10
	")
}

ee = optimize('scf')
oeprop('DIPOLE', 'QUADRUPOLE', 'MULLIKEN_CHARGES')
f=open( 'psi4out.xyz', 'w' )
f.write( "23  " )
f.write( str(ee) + "\n" )
f.write( MOL.save_string_xyz() )
f.close()
--------------------------------------------------------------------------

    Molecular point group: c1
  Charge       = 0
  Multiplicity = 1
  Basis Set: 6-31G*
  Basis Set:
  @DF-RHF Final Energy:  -422.97929950763506
    Total Energy =                       -422.9792995076353463
    Molecular point group: c1
  Basis Set: 6-31G*
  Basis Set:
  Basis Set: 6-31G*
  Basis Set:
  @DF-RHF Final Energy:  -422.97931090597802
    Total Energy =                       -422.9793109059780818
  Basis Set: 6-31G*
  Basis Set:
  Basis Set: 6-31G*
  Basis Set:
  @DF-RHF Final Energy:  -422.97925095557946
    Total Energy =                       -422.9792509555799143
  Basis Set: 6-31G*
  Basis Set:
  Basis Set: 6-31G*
  Basis Set:
  @DF-RHF Final Energy:  -422.97932882244680
    Total Energy =                       -422.9793288224466323
  Basis Set: 6-31G*
  Basis Set:
  Basis Set: 6-31G*
  Basis Set:
  @DF-RHF Final Energy:  -422.97933206379253
    Total Energy =                       -422.9793320637928673
  Basis Set: 6-31G*
  Basis Set:
  Charge       = 0
  Multiplicity = 1
  Basis Set: 6-31G*
  Basis Set:

    Orbital Energies (a.u.)
    -----------------------

    Doubly Occupied:

       1A    -20.602989     2A    -20.540491     3A    -11.374229
       4A    -11.281462     5A    -11.232340     6A    -11.224407
       7A    -11.223806     8A    -11.221724     9A    -11.212990
      10A     -1.467738    11A     -1.360829    12A     -1.094257
      13A     -1.042291    14A     -1.003418    15A     -0.931024
      16A     -0.841814    17A     -0.802582    18A     -0.774344
      19A     -0.693053    20A     -0.684360    21A     -0.667662
      22A     -0.646763    23A     -0.606126    24A     -0.588429
      25A     -0.582303    26A     -0.567059    27A     -0.558288
      28A     -0.537089    29A     -0.523507    30A     -0.504891
      31A     -0.491107    32A     -0.477983    33A     -0.471233
      34A     -0.466317    35A     -0.450676    36A     -0.435056

  @DF-RHF Final Energy:  -422.97933199086356

   => Energetics <=

    Nuclear Repulsion Energy =            449.6256402695495353
    One-Electron Energy =               -1466.8406667070839831
    Two-Electron Energy =                 594.2356944466706636
    DFT Exchange-Correlation Energy =       0.0000000000000000
    Empirical Dispersion Energy =           0.0000000000000000
    PCM Polarization Energy =               0.0000000000000000
    EFP Energy =                            0.0000000000000000
    Total Energy =                       -422.9793319908637841
    Molecular point group: c1
  Basis Set: 6-31G*
  Basis Set:

  -Total Gradient:
     Atom            X                  Y                   Z
    ------   -----------------  -----------------  -----------------
       1       -0.000005245705    -0.000000436021    -0.000004043071
       2        0.000095333498    -0.000139386432     0.000866868579
       3        0.000000558220     0.000004029450    -0.000014545909
       4       -0.000009753099     0.000026229967    -0.001351231481
       5       -0.000001802804     0.000001485814     0.000004550028
       6        0.000001409384     0.000001368493     0.000000842057
       7        0.000002355643    -0.000002556925     0.000004490422
       8       -0.000601037139     0.000799482916     0.001001772636
       9        0.000000754922     0.000002232956    -0.000011088583
      10        0.000513484323    -0.000684428447    -0.000517707694
      11        0.000000826841    -0.000006043369    -0.000003189303
      12        0.000001091159    -0.000001282743     0.000005106487
      13       -0.000002013235    -0.000003773415     0.000001428982
      14        0.000003082531     0.000002742563     0.000001917724
      15       -0.000000278185     0.000000475105     0.000013685869
      16        0.000001253404     0.000006715734     0.000006570573
      17       -0.000001198694    -0.000006225665     0.000006383553
      18        0.000000508066    -0.000000589910    -0.000018232077
      19       -0.000003275854    -0.000005798973     0.000005350881
      20        0.000003854996     0.000005851070     0.000005160908
      21        0.000001351936     0.000005592431     0.000001004544
      22        0.000000441148     0.000000140527    -0.000005937653
      23       -0.000001701353    -0.000005825130     0.000000842529

  **** Optimization is complete! (in 6 steps) ****
    Final optimized geometry and variables:
    Molecular point group: c1

    Geometry (in Angstrom), charge = 0, multiplicity = 1:

    O           -2.813829524350     1.285254541454     0.313429518402
    C           -2.663711973152     0.120719788123     0.123995258405
    C           -3.791982095218    -0.878283897202     0.104288065090
    O           -1.486278739267    -0.441502263912    -0.094929150631
    H           -4.500475320181    -0.587833717404    -0.662212584435
    H           -3.438785072441    -1.881533590316    -0.083231966837
    H           -4.306390902616    -0.840748556676     1.057109944002
    C           -0.337489510826     0.400236787033    -0.079439336281
    C            0.887555964106    -0.495424689412    -0.087522756488
    H           -0.362627605272     1.038671278102    -0.953744519108
    H           -0.369051828017     1.029664745067     0.798524161797
    C            2.188915330682     0.308869499667    -0.090221755545
    H            0.846613498216    -1.139850098492    -0.961258009805
    H            0.852802317176    -1.144544512776     0.783111474586
    C            3.436583702638    -0.576309030567    -0.097845869186
    H            2.209905004194     0.963934203534    -0.959474490413
    H            2.216715268348     0.958999102187     0.782501720848
    C            4.736306888444     0.227164022478    -0.104539716962
    H            3.409627011790    -1.227510918418    -0.968647278228
    H            3.419400586657    -1.228812162459     0.772217336722
    H            4.798281311499     0.865726460892    -0.981140077751
    H            5.602173444527    -0.427402966239    -0.110563121161
    H            4.808699259841     0.863405481510     0.772932111653

  Mulliken Charges: (a.u.)
   Center  Symbol    Alpha    Beta     Spin     Total
       1     O     4.28382  4.28382  0.00000 -0.56764
       2     C     2.61536  2.61536  0.00000  0.76929
       3     C     3.28780  3.28780  0.00000 -0.57560
       4     O     4.31282  4.31282  0.00000 -0.62564
       5     H     0.39745  0.39745  0.00000  0.20509
       6     H     0.39987  0.39987  0.00000  0.20025
       7     H     0.39758  0.39758  0.00000  0.20484
       8     C     2.99609  2.99609  0.00000  0.00783
       9     C     3.16468  3.16468  0.00000 -0.32936
      10     H     0.41330  0.41330  0.00000  0.17340
      11     H     0.40714  0.40714  0.00000  0.18572
      12     C     3.16006  3.16006  0.00000 -0.32012
      13     H     0.41409  0.41409  0.00000  0.17183
      14     H     0.41463  0.41463  0.00000  0.17073
      15     C     3.15141  3.15141  0.00000 -0.30282
      16     H     0.42099  0.42099  0.00000  0.15801
      17     H     0.42061  0.42061  0.00000  0.15879
      18     C     3.23987  3.23987  0.00000 -0.47975
      19     H     0.42140  0.42140  0.00000  0.15719
      20     H     0.42136  0.42136  0.00000  0.15729
      21     H     0.42090  0.42090  0.00000  0.15821
      22     H     0.41799  0.41799  0.00000  0.16402
      23     H     0.42078  0.42078  0.00000  0.15844

   Total alpha = 36.00000, Total beta = 36.00000, Total charge = -0.00000
