  ==> Input File <==

--------------------------------------------------------------------------
set {
	reference rhf
	basis 6-31G*
}

set_num_threads( 4 )
memory 2 gb

molecule MOL {
0 1

H	 -4.236494	 0.538104	 0.039757
O	 -3.517110	 -0.026191	 -0.205115
C	 -2.306886	 0.532354	 0.237577
C	 -1.177863	 -0.397191	 -0.171080
H	 -2.156308	 1.517575	 -0.201710
H	 -2.315015	 0.655684	 1.319734
C	 0.198102	 0.111031	 0.262842
H	 -1.208843	 -0.518759	 -1.250427
H	 -1.368741	 -1.376554	 0.258909
C	 1.331804	 -0.827780	 -0.158768
H	 0.361943	 1.100838	 -0.156218
H	 0.217265	 0.229072	 1.345532
C	 2.723619	 -0.410569	 0.329459
H	 1.342964	 -0.912588	 -1.244120
H	 1.116806	 -1.824343	 0.220779
C	 2.845328	 -0.254772	 1.846446
H	 2.982865	 0.535399	 -0.139609
H	 3.458696	 -1.132963	 -0.019787
H	 2.113186	 0.453063	 2.225890
H	 2.695466	 -1.195784	 2.365305
H	 3.830201	 0.112564	 2.118185

	symmetry c1
}
set optking {
	frozen_dihedral = ("
		16 13 10 14
	")
}

ee = optimize('scf')
oeprop('DIPOLE', 'QUADRUPOLE', 'MULLIKEN_CHARGES')
f=open( 'psi4out.xyz', 'w' )
f.write( "21  " )
f.write( str(ee) + "\n" )
f.write( MOL.save_string_xyz() )
f.close()
--------------------------------------------------------------------------

    Molecular point group: c1
  Charge       = 0
  Multiplicity = 1
  Basis Set: 6-31G*
  Basis Set:
  @DF-RHF Final Energy:  -310.21153102633320
    Total Energy =                       -310.2115310263333186
    Molecular point group: c1
  Basis Set: 6-31G*
  Basis Set:
  Basis Set: 6-31G*
  Basis Set:
  @DF-RHF Final Energy:  -310.21230645677190
    Total Energy =                       -310.2123064567721258
  Basis Set: 6-31G*
  Basis Set:
  Basis Set: 6-31G*
  Basis Set:
  @DF-RHF Final Energy:  -310.21259511502114
    Total Energy =                       -310.2125951150209744
  Basis Set: 6-31G*
  Basis Set:
  Basis Set: 6-31G*
  Basis Set:
  @DF-RHF Final Energy:  -310.21264173818304
    Total Energy =                       -310.2126417381830379
  Basis Set: 6-31G*
  Basis Set:
  Basis Set: 6-31G*
  Basis Set:
  @DF-RHF Final Energy:  -310.21264247421090
    Total Energy =                       -310.2126424742107247
  Basis Set: 6-31G*
  Basis Set:
  Basis Set: 6-31G*
  Basis Set:
  @DF-RHF Final Energy:  -310.21264974516095
    Total Energy =                       -310.2126497451608884
  Basis Set: 6-31G*
  Basis Set:
  Charge       = 0
  Multiplicity = 1
  Basis Set: 6-31G*
  Basis Set:

    Orbital Energies (a.u.)
    -----------------------

    Doubly Occupied:

       1A    -20.551826     2A    -11.267033     3A    -11.215607
       4A    -11.215208     5A    -11.213656     6A    -11.210647
       7A    -11.208219     8A     -1.358640     9A     -1.086329
      10A     -1.033023    11A     -0.954163    12A     -0.876549
      13A     -0.807683    14A     -0.777444    15A     -0.692348
      16A     -0.661686    17A     -0.624061    18A     -0.605234
      19A     -0.586340    20A     -0.570579    21A     -0.536025
      22A     -0.520320    23A     -0.510716    24A     -0.486544
      25A     -0.479920    26A     -0.459566    27A     -0.456138
      28A     -0.443267    29A     -0.433976

  @DF-RHF Final Energy:  -310.21264977827173

   => Energetics <=

    Nuclear Repulsion Energy =            312.7684892637032590
    One-Electron Energy =               -1040.2767817668518546
    Two-Electron Energy =                 417.2956427248768136
    DFT Exchange-Correlation Energy =       0.0000000000000000
    Empirical Dispersion Energy =           0.0000000000000000
    PCM Polarization Energy =               0.0000000000000000
    EFP Energy =                            0.0000000000000000
    Total Energy =                       -310.2126497782717820
    Molecular point group: c1
  Basis Set: 6-31G*
  Basis Set:

  -Total Gradient:
     Atom            X                  Y                   Z
    ------   -----------------  -----------------  -----------------
       1       -0.000002679063    -0.000000866646    -0.000000215943
       2       -0.000007052532    -0.000002714544    -0.000003342961
       3        0.000011256341    -0.000002931230     0.000007262661
       4        0.000002200894     0.000001605248    -0.000010785667
       5        0.000001445640    -0.000009434654    -0.000000334065
       6        0.000003703207     0.000003063273    -0.000001945180
       7        0.000009676795     0.000003568271     0.000010063009
       8       -0.000006399935     0.000004177677     0.000001927134
       9       -0.000000071463     0.000006966195    -0.000004371382
      10        0.000404285859    -0.001293599685     0.000124069169
      11        0.000008566677    -0.000009001284     0.000004561862
      12       -0.000004601352    -0.000001726235    -0.000013288168
      13        0.000370322860    -0.001177749265     0.000094157403
      14       -0.000450757163     0.001427616207    -0.000118904083
      15        0.000006816898     0.000001450046     0.000005142684
      16       -0.000340661348     0.001057829322    -0.000086080785
      17        0.000002510475    -0.000003179351    -0.000002013814
      18       -0.000008998990    -0.000004040530    -0.000003719565
      19       -0.000000045967    -0.000003884863     0.000000407188
      20        0.000007295151     0.000002265113     0.000002335884
      21       -0.000006812975     0.000000586937    -0.000004925380

  **** Optimization is complete! (in 7 steps) ****
    Final optimized geometry and variables:
    Molecular point group: c1

    Geometry (in Angstrom), charge = 0, multiplicity = 1:

    H           -4.181270260373     0.740130356731    -0.367066753252
    O           -3.457038169014     0.186890884824    -0.622665799639
    C           -2.264687944792     0.685719602334    -0.073009192020
    C           -1.127275466830    -0.223829446762    -0.502767750300
    H           -2.079692153512     1.702207801426    -0.417783264701
    H           -2.327354087289     0.716439515349     1.013918589103
    C            0.231152993033     0.225816526572     0.038021987826
    H           -1.107057038175    -0.256166473583    -1.588561977317
    H           -1.349613367233    -1.232300731299    -0.164626055225
    C            1.369500878418    -0.706758558596    -0.386578970365
    H            0.445994141976     1.234813188767    -0.312159600481
    H            0.182883711380     0.281489037804     1.122610743700
    C            2.771342065557    -0.231701889901     0.012554555874
    H            1.339158496939    -0.809249812570    -1.469161111969
    H            1.192158550563    -1.698984132244     0.024228763702
    C            2.979738089638    -0.037112038659     1.515544833032
    H            2.989661917258     0.703098223070    -0.500153329184
    H            3.496280026358    -0.954003600615    -0.354351562021
    H            2.366829590038     0.766836647018     1.908741948807
    H            2.734303613749    -0.941284328891     2.066692974201
    H            4.015110971535     0.208449167681     1.730896786802

  Mulliken Charges: (a.u.)
   Center  Symbol    Alpha    Beta     Spin     Total
       1     H     0.28118  0.28118  0.00000  0.43764
       2     O     4.37180  4.37180  0.00000 -0.74361
       3     C     2.98970  2.98970  0.00000  0.02060
       4     C     3.15895  3.15895  0.00000 -0.31791
       5     H     0.43290  0.43290  0.00000  0.13420
       6     H     0.43292  0.43292  0.00000  0.13415
       7     C     3.16255  3.16255  0.00000 -0.32509
       8     H     0.41483  0.41483  0.00000  0.17035
       9     H     0.41482  0.41482  0.00000  0.17036
      10     C     3.15137  3.15137  0.00000 -0.30273
      11     H     0.42424  0.42424  0.00000  0.15153
      12     H     0.42119  0.42119  0.00000  0.15762
      13     C     3.15207  3.15207  0.00000 -0.30414
      14     H     0.42110  0.42110  0.00000  0.15781
      15     H     0.42281  0.42281  0.00000  0.15439
      16     C     3.24178  3.24178  0.00000 -0.48356
      17     H     0.42361  0.42361  0.00000  0.15278
      18     H     0.42058  0.42058  0.00000  0.15885
      19     H     0.42021  0.42021  0.00000  0.15958
      20     H     0.42222  0.42222  0.00000  0.15556
      21     H     0.41918  0.41918  0.00000  0.16163

   Total alpha = 29.00000, Total beta = 29.00000, Total charge =  0.00000
