  ==> Input File <==

--------------------------------------------------------------------------
set {
	reference rhf
	basis 6-31G*
}

set_num_threads( 4 )
memory 2 gb

molecule MOL {
0 1

H	 -0.944757	 -0.000069	 1.678017
O	 -0.042387	 -0.000390	 1.388199
C	 -0.001487	 0.000018	 -0.026623
C	 0.264193	 1.419835	 -0.530780
C	 1.087097	 -0.961320	 -0.507724
C	 -1.380162	 -0.480681	 -0.465493
H	 0.260105	 1.462301	 -1.615251
H	 1.233833	 1.775643	 -0.190038
H	 -0.493438	 2.099059	 -0.155722
H	 1.118002	 -1.014292	 -1.591388
H	 2.067217	 -0.637708	 -0.164837
H	 0.907039	 -1.957225	 -0.118329
H	 -1.453434	 -0.515910	 -1.547683
H	 -2.147058	 0.186426	 -0.088232
H	 -1.573365	 -1.472691	 -0.073088

	symmetry c1
}
set optking {
	frozen_dihedral = ("
		4 3 2 1
	")
}

ee = optimize('scf')
oeprop('DIPOLE', 'QUADRUPOLE', 'MULLIKEN_CHARGES')
f=open( 'psi4out.xyz', 'w' )
f.write( "15  " )
f.write( str(ee) + "\n" )
f.write( MOL.save_string_xyz() )
f.close()
--------------------------------------------------------------------------

    Molecular point group: c1
  Charge       = 0
  Multiplicity = 1
  Basis Set: 6-31G*
  Basis Set:
  @DF-RHF Final Energy:  -232.14917624924411
    Total Energy =                       -232.1491762492441353
    Molecular point group: c1
  Basis Set: 6-31G*
  Basis Set:
  Basis Set: 6-31G*
  Basis Set:
  @DF-RHF Final Energy:  -232.15101948810752
    Total Energy =                       -232.1510194881075222
  Basis Set: 6-31G*
  Basis Set:
  Basis Set: 6-31G*
  Basis Set:
  @DF-RHF Final Energy:  -232.15153755930064
    Total Energy =                       -232.1515375593007775
  Basis Set: 6-31G*
  Basis Set:
  Basis Set: 6-31G*
  Basis Set:
  @DF-RHF Final Energy:  -232.15154335761147
    Total Energy =                       -232.1515433576113310
  Basis Set: 6-31G*
  Basis Set:
  Charge       = 0
  Multiplicity = 1
  Basis Set: 6-31G*
  Basis Set:

    Orbital Energies (a.u.)
    -----------------------

    Doubly Occupied:

       1A    -20.547324     2A    -11.281853     3A    -11.217789
       4A    -11.205290     5A    -11.204345     6A     -1.358817
       7A     -1.063698     8A     -0.945454     9A     -0.935505
      10A     -0.775574    11A     -0.669539    12A     -0.622586
      13A     -0.621016    14A     -0.575250    15A     -0.556396
      16A     -0.532863    17A     -0.516722    18A     -0.508817
      19A     -0.501618    20A     -0.457138    21A     -0.423007

  @DF-RHF Final Energy:  -232.15154356376618

   => Energetics <=

    Nuclear Repulsion Energy =            200.2986378508083760
    One-Electron Energy =                -711.8591660250369841
    Two-Electron Energy =                 279.4089846104623689
    DFT Exchange-Correlation Energy =       0.0000000000000000
    Empirical Dispersion Energy =           0.0000000000000000
    PCM Polarization Energy =               0.0000000000000000
    EFP Energy =                            0.0000000000000000
    Total Energy =                       -232.1515435637662108
    Molecular point group: c1
  Basis Set: 6-31G*
  Basis Set:

  -Total Gradient:
     Atom            X                  Y                   Z
    ------   -----------------  -----------------  -----------------
       1       -0.000138450667    -0.002028255813    -0.000093846945
       2        0.000553451737     0.002427204618    -0.000223728357
       3       -0.001842338715    -0.000181066941     0.000146870325
       4        0.001309506422    -0.000377891208     0.000003088504
       5        0.000030039873     0.000061098871    -0.000168485954
       6        0.000067073165     0.000058720350     0.000282946801
       7       -0.000010817910    -0.000023374184     0.000055940785
       8        0.000050176785     0.000012457600     0.000039227340
       9       -0.000035526610    -0.000067093331     0.000013721804
      10       -0.000000941532    -0.000093068944    -0.000003443548
      11       -0.000048880466     0.000136174950     0.000023870392
      12        0.000018874303     0.000003885472     0.000044292174
      13        0.000030698594    -0.000014456318    -0.000126571978
      14        0.000032555213    -0.000034287471    -0.000007788627
      15       -0.000015420191     0.000119952349     0.000013907282

  **** Optimization is complete! (in 5 steps) ****
    Final optimized geometry and variables:
    Molecular point group: c1

    Geometry (in Angstrom), charge = 0, multiplicity = 1:

    H           -0.810581622359     0.038203047638     1.756933298256
    O            0.061252633031     0.007669916713     1.390683856549
    C           -0.002632081952     0.002954353071    -0.026417383315
    C            0.274424123219     1.421282273739    -0.525242007459
    C            1.093284532860    -0.951034620577    -0.494830860497
    C           -1.376026607930    -0.483032119612    -0.488023215703
    H            0.284739538883     1.466736855026    -1.610149435829
    H            1.235018745403     1.762367698232    -0.156035744863
    H           -0.485599415437     2.107689856998    -0.163772841042
    H            1.146646468674    -0.987723845570    -1.578519582751
    H            2.055060881152    -0.625638016533    -0.114134545811
    H            0.906202765506    -1.952159628459    -0.122181191208
    H           -1.433381178393    -0.525504187877    -1.570388126614
    H           -2.160260501730     0.187188509276    -0.143024646865
    H           -1.579589241264    -1.475841956948    -0.098700217032

  Mulliken Charges: (a.u.)
   Center  Symbol    Alpha    Beta     Spin     Total
       1     H     0.28064  0.28064  0.00000  0.43872
       2     O     4.38169  4.38169  0.00000 -0.76339
       3     C     2.84667  2.84667  0.00000  0.30665
       4     C     3.23245  3.23245  0.00000 -0.46490
       5     C     3.23218  3.23218  0.00000 -0.46436
       6     C     3.25756  3.25756  0.00000 -0.51511
       7     H     0.42542  0.42542  0.00000  0.14915
       8     H     0.41298  0.41298  0.00000  0.17404
       9     H     0.42330  0.42330  0.00000  0.15339
      10     H     0.42534  0.42534  0.00000  0.14932
      11     H     0.41301  0.41301  0.00000  0.17398
      12     H     0.41709  0.41709  0.00000  0.16583
      13     H     0.41510  0.41510  0.00000  0.16980
      14     H     0.42231  0.42231  0.00000  0.15538
      15     H     0.41425  0.41425  0.00000  0.17151

   Total alpha = 21.00000, Total beta = 21.00000, Total charge = -0.00000
