  ==> Input File <==

--------------------------------------------------------------------------
set {
	reference rhf
	basis cc-pvtz
}

set_num_threads( 4 )
memory 2 gb

molecule MOL {
0 1

H	 -3.401682	 -1.036167	 0.000000
O	 -3.113760	 -0.140926	 0.000000
C	 -1.775087	 -0.058754	 0.000000
C	 -0.983196	 -0.913614	 -0.756676
C	 -1.193869	 0.919558	 0.789478
H	 -1.441463	 -1.670111	 -1.366701
C	 0.385022	 -0.785833	 -0.719996
H	 -1.822687	 1.568455	 1.365272
C	 0.177698	 1.034331	 0.815092
H	 1.007013	 -1.439152	 -1.299143
C	 0.982596	 0.189525	 0.066167
H	 0.629683	 1.792961	 1.427226
C	 2.449846	 0.331478	 0.109625
O	 3.216408	 -0.342339	 -0.494121
H	 2.813529	 1.132709	 0.761978

	symmetry c1
}
set optking {
	frozen_dihedral = ("
		5 3 2 1
	")
}

ee = optimize('scf')
oeprop('DIPOLE', 'QUADRUPOLE', 'MULLIKEN_CHARGES')
f=open( 'psi4out.xyz', 'w' )
f.write( "15  " )
f.write( str(ee) + "\n" )
f.write( MOL.save_string_xyz() )
f.close()
--------------------------------------------------------------------------

    Molecular point group: c1
  Charge       = 0
  Multiplicity = 1
  Basis Set: CC-PVTZ
  Basis Set:
  @DF-RHF Final Energy:  -418.43994049019557
    Total Energy =                       -418.4399404901957951
    Molecular point group: c1
  Basis Set: CC-PVTZ
  Basis Set:
  Basis Set: CC-PVTZ
  Basis Set:
  @DF-RHF Final Energy:  -418.44006517960531
    Total Energy =                       -418.4400651796053126
  Basis Set: CC-PVTZ
  Basis Set:
  Basis Set: CC-PVTZ
  Basis Set:
  @DF-RHF Final Energy:  -418.44007845508821
    Total Energy =                       -418.4400784550880417
  Basis Set: CC-PVTZ
  Basis Set:
  Basis Set: CC-PVTZ
  Basis Set:
  @DF-RHF Final Energy:  -418.43987810521548
    Total Energy =                       -418.4398781052155982
  Basis Set: CC-PVTZ
  Basis Set:
  Charge       = 0
  Multiplicity = 1
  Basis Set: CC-PVTZ
  Basis Set:

    Orbital Energies (a.u.)
    -----------------------

    Doubly Occupied:

       1A    -20.597271     2A    -20.547840     3A    -11.324347
       4A    -11.318305     5A    -11.258154     6A    -11.253657
       7A    -11.242012     8A    -11.239677     9A    -11.238087
      10A     -1.428752    11A     -1.404047    12A     -1.175516
      13A     -1.044993    14A     -1.041886    15A     -0.890853
      16A     -0.867621    17A     -0.798142    18A     -0.759969
      19A     -0.716241    20A     -0.670590    21A     -0.651114
      22A     -0.632902    23A     -0.622067    24A     -0.610266
      25A     -0.570367    26A     -0.559316    27A     -0.553475
      28A     -0.507028    29A     -0.489943    30A     -0.423232
      31A     -0.361491    32A     -0.337295

  @DF-RHF Final Energy:  -418.44008557427173

   => Energetics <=

    Nuclear Repulsion Energy =            402.0541644859813459
    One-Electron Energy =               -1366.7156010262615382
    Two-Electron Energy =                 546.2213509660080035
    DFT Exchange-Correlation Energy =       0.0000000000000000
    Empirical Dispersion Energy =           0.0000000000000000
    PCM Polarization Energy =               0.0000000000000000
    EFP Energy =                            0.0000000000000000
    Total Energy =                       -418.4400855742721888
    Molecular point group: c1
  Basis Set: CC-PVTZ
  Basis Set:

  -Total Gradient:
     Atom            X                  Y                   Z
    ------   -----------------  -----------------  -----------------
       1        0.000022140700    -0.000002092903     0.003566825890
       2       -0.000076143603    -0.000725141160    -0.003488352494
       3        0.000087947981     0.002290125899    -0.002073206416
       4       -0.000165477572     0.000098244598     0.000009822717
       5        0.000177959490    -0.001613110703     0.001965197436
       6        0.000009034296    -0.000007704295     0.000000764260
       7        0.000205962796     0.000086246580     0.000074135854
       8       -0.000027526810     0.000010564123     0.000025785273
       9       -0.000172299997     0.000083483367     0.000066325033
      10       -0.000016663054    -0.000015790907     0.000003699686
      11       -0.000083841900    -0.000212733118    -0.000137415767
      12       -0.000015418047    -0.000011209851    -0.000011825231
      13        0.000038885234     0.000009083535    -0.000012235284
      14        0.000005255605     0.000013313221     0.000017152184
      15        0.000010184884    -0.000003278388    -0.000006673141

  **** Optimization is complete! (in 5 steps) ****
    Final optimized geometry and variables:
    Molecular point group: c1

    Geometry (in Angstrom), charge = 0, multiplicity = 1:

    H           -3.401613417697    -1.049751681026     0.011948453951
    O           -3.119682119212    -0.152173491955     0.015565813693
    C           -1.772100450791    -0.066245060172     0.031834400344
    C           -0.982808159113    -0.923715108748    -0.724550210661
    C           -1.191443852971     0.906764412569     0.822575195685
    H           -1.448163549858    -1.670371978238    -1.340039677544
    C            0.385309798792    -0.800062760252    -0.687940339132
    H           -1.819048421420     1.551505405653     1.404558040291
    C            0.182452909444     1.029081809035     0.839855205649
    H            1.007164400595    -1.454418294192    -1.266050509579
    C            0.982608943384     0.181089135010     0.093272509587
    H            0.636077274262     1.787493871743     1.450956630566
    C            2.451909521319     0.324400519308     0.134502943265
    O            3.216992106625    -0.355142059520    -0.463417008056
    H            2.815270028514     1.131936951357     0.779229474322

  Mulliken Charges: (a.u.)
   Center  Symbol    Alpha    Beta     Spin     Total
       1     H     0.38345  0.38345  0.00000  0.23310
       2     O     4.17609  4.17609  0.00000 -0.35218
       3     C     2.85615  2.85615  0.00000  0.28769
       4     C     3.12439  3.12439  0.00000 -0.24877
       5     C     3.10775  3.10775  0.00000 -0.21551
       6     H     0.42296  0.42296  0.00000  0.15409
       7     C     3.06842  3.06842  0.00000 -0.13684
       8     H     0.41464  0.41464  0.00000  0.17072
       9     C     3.06990  3.06990  0.00000 -0.13980
      10     H     0.40709  0.40709  0.00000  0.18583
      11     C     3.00028  3.00028  0.00000 -0.00056
      12     H     0.42109  0.42109  0.00000  0.15782
      13     C     2.91049  2.91049  0.00000  0.17902
      14     O     4.17737  4.17737  0.00000 -0.35474
      15     H     0.45993  0.45993  0.00000  0.08013

   Total alpha = 32.00000, Total beta = 32.00000, Total charge =  0.00000
