  ==> Input File <==

--------------------------------------------------------------------------
set {
	reference rhf
	basis 6-31G*
}

set_num_threads( 1 )
memory 2 gb

molecule MOL {
0 1

H	 -2.640706	 0.991912	 -0.578836
N	 -1.654361	 1.049067	 -0.415032
C	 -0.912149	 0.653333	 -1.598932
H	 -1.440009	 0.424517	 0.338028
C	 0.575104	 0.709617	 -1.319562
H	 -1.157192	 -0.347761	 -1.956376
H	 -1.139708	 1.349923	 -2.400031
O	 0.874168	 -0.245412	 -0.342030
H	 1.137383	 0.502364	 -2.229796
H	 0.844224	 1.704025	 -0.970330
C	 2.202317	 -0.244239	 0.074611
H	 2.711377	 -1.041390	 -0.449894
H	 2.692099	 0.699270	 -0.159667
H	 2.283185	 -0.418429	 1.145558

	symmetry c1
}
set optking {
	frozen_dihedral = ("
		8 5 3 6,
		6 3 2 4,
		11 8 5 3
	")
}

ee = energy('scf')
oeprop('DIPOLE', 'QUADRUPOLE', 'MULLIKEN_CHARGES')
f=open( 'psi4out.xyz', 'w' )
f.write( "14  " )
f.write( str(ee) + "\n" )
f.write( MOL.save_string_xyz() )
f.close()
--------------------------------------------------------------------------

    Molecular point group: c1

    Geometry (in Angstrom), charge = 0, multiplicity = 1:

       Center              X                  Y                   Z               Mass
    ------------   -----------------  -----------------  -----------------  -----------------
           H         -2.860715570123     0.617799644577     0.123552953741     1.007825032070
           N         -1.874370570123     0.674954644577     0.287356953741    14.003074004780
           C         -1.132158570123     0.279220644577    -0.896543046259    12.000000000000
           H         -1.660018570123     0.050404644577     1.040416953741     1.007825032070
           C          0.355094429877     0.335504644577    -0.617173046259    12.000000000000
           H         -1.377201570123    -0.721873355423    -1.253987046259     1.007825032070
           H         -1.359717570123     0.975810644577    -1.697642046259     1.007825032070
           O          0.654158429877    -0.619524355423     0.360358953741    15.994914619560
           H          0.917373429877     0.128251644577    -1.527407046259     1.007825032070
           H          0.624214429877     1.329912644577    -0.267941046259     1.007825032070
           C          1.982307429877    -0.618351355423     0.776999953741    12.000000000000
           H          2.491367429877    -1.415502355423     0.252494953741     1.007825032070
           H          2.472089429877     0.325157644577     0.542721953741     1.007825032070
           H          2.063175429877    -0.792541355423     1.847946953741     1.007825032070

  Charge       = 0
  Multiplicity = 1
  Basis Set: 6-31G*
  Basis Set:

    Orbital Energies (a.u.)
    -----------------------

    Doubly Occupied:

       1A    -20.554807     2A    -15.528259     3A    -11.266278
       4A    -11.265521     5A    -11.240549     6A     -1.380435
       7A     -1.173416     8A     -0.998404     9A     -0.907108
      10A     -0.816071    11A     -0.683322    12A     -0.672481
      13A     -0.643776    14A     -0.611419    15A     -0.605409
      16A     -0.538732    17A     -0.533569    18A     -0.495915
      19A     -0.473849    20A     -0.413178    21A     -0.379925

  @DF-RHF Final Energy:  -248.12161171780735

   => Energetics <=

    Nuclear Repulsion Energy =            194.7085273391126634
    One-Electron Energy =                -723.2953861715085395
    Two-Electron Energy =                 280.4652471145885784
    DFT Exchange-Correlation Energy =       0.0000000000000000
    Empirical Dispersion Energy =           0.0000000000000000
    PCM Polarization Energy =               0.0000000000000000
    EFP Energy =                            0.0000000000000000
    Total Energy =                       -248.1216117178072409

  Mulliken Charges: (a.u.)
   Center  Symbol    Alpha    Beta     Spin     Total
       1     H     0.33286  0.33286  0.00000  0.33428
       2     N     3.92532  3.92532  0.00000 -0.85064
       3     C     3.06900  3.06900  0.00000 -0.13800
       4     H     0.32363  0.32363  0.00000  0.35274
       5     C     2.99136  2.99136  0.00000  0.01728
       6     H     0.42660  0.42660  0.00000  0.14680
       7     H     0.42054  0.42054  0.00000  0.15892
       8     O     4.31163  4.31163  0.00000 -0.62327
       9     H     0.43129  0.43129  0.00000  0.13742
      10     H     0.42143  0.42143  0.00000  0.15713
      11     C     3.07701  3.07701  0.00000 -0.15403
      12     H     0.42386  0.42386  0.00000  0.15227
      13     H     0.42886  0.42886  0.00000  0.14229
      14     H     0.41661  0.41661  0.00000  0.16679

   Total alpha = 21.00000, Total beta = 21.00000, Total charge = -0.00000
