  ==> Input File <==

--------------------------------------------------------------------------
set {
	reference rhf
	basis 6-31G*
}

set_num_threads( 4 )
memory 2 gb

molecule MOL {
0 1

H	 -3.161837	 0.500524	 -0.000234
C	 -2.367097	 -0.232926	 -0.000000
O	 -1.158440	 0.455814	 -0.000122
H	 -2.468853	 -0.861886	 -0.882833
H	 -2.468942	 -0.861421	 0.883154
C	 -0.029776	 -0.365156	 0.000148
C	 -0.463273	 -1.794562	 -0.274698
H	 0.479809	 -0.302438	 0.962587
H	 0.677526	 -0.031170	 -0.760171
C	 0.713629	 -2.768962	 -0.292722
H	 -1.181677	 -2.088389	 0.484395
H	 -0.985299	 -1.819095	 -1.226321
H	 1.235685	 -2.777719	 0.660066
H	 0.375789	 -3.780540	 -0.491268
H	 1.433938	 -2.506095	 -1.062437

	symmetry c1
}
set optking {
	frozen_dihedral = ("
		8 6 3 2
	")
}

ee = optimize('scf')
oeprop('DIPOLE', 'QUADRUPOLE', 'MULLIKEN_CHARGES')
f=open( 'psi4out.xyz', 'w' )
f.write( "15  " )
f.write( str(ee) + "\n" )
f.write( MOL.save_string_xyz() )
f.close()
--------------------------------------------------------------------------

    Molecular point group: c1
  Charge       = 0
  Multiplicity = 1
  Basis Set: 6-31G*
  Basis Set:
  @DF-RHF Final Energy:  -232.11108497599804
    Total Energy =                       -232.1110849759979260
    Molecular point group: c1
  Basis Set: 6-31G*
  Basis Set:
  Basis Set: 6-31G*
  Basis Set:
  @DF-RHF Final Energy:  -232.11645689416869
    Total Energy =                       -232.1164568941685502
  Basis Set: 6-31G*
  Basis Set:
  Basis Set: 6-31G*
  Basis Set:
  @DF-RHF Final Energy:  -232.12417226478681
    Total Energy =                       -232.1241722647867505
  Basis Set: 6-31G*
  Basis Set:
  Basis Set: 6-31G*
  Basis Set:
  @DF-RHF Final Energy:  -232.12746504151735
    Total Energy =                       -232.1274650415173255
  Basis Set: 6-31G*
  Basis Set:
  @DF-RHF Final Energy:  -232.12811480922036
    Total Energy =                       -232.1281148092206195
  @DF-RHF Final Energy:  -232.12889611450956
    Total Energy =                       -232.1288961145096437
  Basis Set: 6-31G*
  Basis Set:
  @DF-RHF Final Energy:  -232.12904712826989
    Total Energy =                       -232.1290471282696899
  Basis Set: 6-31G*
  Basis Set:
  Basis Set: 6-31G*
  Basis Set:
  @DF-RHF Final Energy:  -232.12906194444290
    Total Energy =                       -232.1290619444428103
  Basis Set: 6-31G*
  Basis Set:
  Basis Set: 6-31G*
  Basis Set:
  @DF-RHF Final Energy:  -232.12906300772332
    Total Energy =                       -232.1290630077231754
  Basis Set: 6-31G*
  Basis Set:
  Charge       = 0
  Multiplicity = 1
  Basis Set: 6-31G*
  Basis Set:

    Orbital Energies (a.u.)
    -----------------------

    Doubly Occupied:

       1A    -20.546414     2A    -11.266014     3A    -11.262422
       4A    -11.223564     5A    -11.218437     6A     -1.366375
       7A     -1.060307     8A     -0.962325     9A     -0.886811
      10A     -0.798049    11A     -0.670837    12A     -0.659256
      13A     -0.625225    14A     -0.606740    15A     -0.556791
      16A     -0.544902    17A     -0.523958    18A     -0.500951
      19A     -0.493123    20A     -0.442854    21A     -0.400742

  @DF-RHF Final Energy:  -232.12906319550316

   => Energetics <=

    Nuclear Repulsion Energy =            191.9254174994392486
    One-Electron Energy =                -694.8767637076736037
    Two-Electron Energy =                 270.8222830127310772
    DFT Exchange-Correlation Energy =       0.0000000000000000
    Empirical Dispersion Energy =           0.0000000000000000
    PCM Polarization Energy =               0.0000000000000000
    EFP Energy =                            0.0000000000000000
    Total Energy =                       -232.1290631955032495
    Molecular point group: c1
  Basis Set: 6-31G*
  Basis Set:

  -Total Gradient:
     Atom            X                  Y                   Z
    ------   -----------------  -----------------  -----------------
       1        0.000033844607     0.000008115147    -0.000004407040
       2       -0.000047197541    -0.000153605357    -0.002984453668
       3        0.000622152054     0.000786518408     0.004178079769
       4       -0.000010843422     0.000013311405     0.000002108010
       5       -0.000020089251    -0.000000517721     0.000005271152
       6       -0.002640720694    -0.003119623056     0.000138455091
       7        0.000013484994     0.000003243852    -0.000020833531
       8        0.002054681044     0.002479527411    -0.001317059203
       9       -0.000017342119     0.000014888690    -0.000003934099
      10       -0.000006563513    -0.000020708052     0.000011803564
      11        0.000004809883    -0.000001749908    -0.000006094514
      12        0.000005501130    -0.000000013157     0.000002465478
      13        0.000004293995     0.000002858505    -0.000003585136
      14        0.000009942746    -0.000009397011     0.000004297171
      15       -0.000005953915    -0.000002849159    -0.000002113044

  **** Optimization is complete! (in 10 steps) ****
    Final optimized geometry and variables:
    Molecular point group: c1

    Geometry (in Angstrom), charge = 0, multiplicity = 1:

    H           -2.447340188488     1.786446702051     0.136627061090
    C           -1.812983963318     0.910352263611     0.149223179764
    O           -0.501449285013     1.376184589089     0.101074523666
    H           -2.068274348254     0.291450207455    -0.705290624820
    H           -2.022820738165     0.351197594032     1.058328249533
    C            0.577236067362     0.473032322774     0.105786867301
    C            0.274269205424    -0.992741540599    -0.191720447066
    H            1.087601481570     0.559931188293     1.062894973166
    H            1.274700731687     0.838605643776    -0.641616162974
    C            1.557696217655    -1.824693769460    -0.177994875807
    H           -0.419985771675    -1.395607609509     0.539000162307
    H           -0.201038268121    -1.080473848412    -1.164113180697
    H            2.047090992433    -1.778242672158     0.790419192354
    H            1.345135288927    -2.866867896063    -0.390857278758
    H            2.264234912350    -1.472491120339    -0.923742361602

  Mulliken Charges: (a.u.)
   Center  Symbol    Alpha    Beta     Spin     Total
       1     H     0.41204  0.41204  0.00000  0.17591
       2     C     3.07758  3.07758  0.00000 -0.15516
       3     O     4.31803  4.31803  0.00000 -0.63606
       4     H     0.42937  0.42937  0.00000  0.14126
       5     H     0.43122  0.43122  0.00000  0.13756
       6     C     2.96796  2.96796  0.00000  0.06408
       7     C     3.18225  3.18225  0.00000 -0.36449
       8     H     0.42833  0.42833  0.00000  0.14335
       9     H     0.42292  0.42292  0.00000  0.15416
      10     C     3.24504  3.24504  0.00000 -0.49008
      11     H     0.41734  0.41734  0.00000  0.16533
      12     H     0.41592  0.41592  0.00000  0.16815
      13     H     0.41857  0.41857  0.00000  0.16286
      14     H     0.41503  0.41503  0.00000  0.16995
      15     H     0.41840  0.41840  0.00000  0.16319

   Total alpha = 21.00000, Total beta = 21.00000, Total charge = -0.00000
