  ==> Input File <==

--------------------------------------------------------------------------
set {
	reference rhf
	basis 6-31G*
}

set_num_threads( 4 )
memory 2 gb

molecule MOL {
0 1

H	 -2.511323	 -3.160416	 -1.098940
O	 -2.484924	 -2.238217	 -0.887383
C	 -1.182993	 -1.879197	 -0.501806
C	 -1.177863	 -0.397191	 -0.171080
H	 -0.867781	 -2.456177	 0.366551
H	 -0.475459	 -2.084570	 -1.304026
C	 0.198102	 0.111031	 0.262842
H	 -1.907401	 -0.219682	 0.614410
H	 -1.521103	 0.149345	 -1.045129
C	 1.331804	 -0.827780	 -0.158768
H	 0.361943	 1.100838	 -0.156218
H	 0.217265	 0.229072	 1.345532
C	 2.723619	 -0.410569	 0.329459
H	 1.342964	 -0.912588	 -1.244120
H	 1.116806	 -1.824343	 0.220779
C	 3.243875	 0.895854	 -0.272975
H	 3.424222	 -1.207124	 0.091250
H	 2.714788	 -0.329854	 1.414619
H	 3.251977	 0.848779	 -1.358681
H	 2.637085	 1.747371	 0.016682
H	 4.259473	 1.094070	 0.055697

	symmetry c1
}
set optking {
	frozen_dihedral = ("
		8 4 7 10
	")
}

ee = optimize('scf')
oeprop('DIPOLE', 'QUADRUPOLE', 'MULLIKEN_CHARGES')
f=open( 'psi4out.xyz', 'w' )
f.write( "21  " )
f.write( str(ee) + "\n" )
f.write( MOL.save_string_xyz() )
f.close()
--------------------------------------------------------------------------

    Molecular point group: c1
  Charge       = 0
  Multiplicity = 1
  Basis Set: 6-31G*
  Basis Set:
  @DF-RHF Final Energy:  -310.20066534966730
    Total Energy =                       -310.2006653496671333
    Molecular point group: c1
  Basis Set: 6-31G*
  Basis Set:
  Basis Set: 6-31G*
  Basis Set:
  @DF-RHF Final Energy:  -310.20102132512136
    Total Energy =                       -310.2010213251214168
  Basis Set: 6-31G*
  Basis Set:
  Basis Set: 6-31G*
  Basis Set:
  @DF-RHF Final Energy:  -310.20420175770647
    Total Energy =                       -310.2042017577063575
  Basis Set: 6-31G*
  Basis Set:
  Basis Set: 6-31G*
  Basis Set:
  @DF-RHF Final Energy:  -310.20465807701424
    Total Energy =                       -310.2046580770144146
  Basis Set: 6-31G*
  Basis Set:
  @DF-RHF Final Energy:  -310.20468406545672
    Total Energy =                       -310.2046840654564903
  Basis Set: 6-31G*
  Basis Set:
  @DF-RHF Final Energy:  -310.20468606452573
    Total Energy =                       -310.2046860645253332
  Basis Set: 6-31G*
  Basis Set:
  Basis Set: 6-31G*
  Basis Set:
  @DF-RHF Final Energy:  -310.20471679817592
    Total Energy =                       -310.2047167981760367
  Basis Set: 6-31G*
  Basis Set:
  Basis Set: 6-31G*
  Basis Set:
  @DF-RHF Final Energy:  -310.20470436891020
    Total Energy =                       -310.2047043689100292
  Basis Set: 6-31G*
  Basis Set:
  Charge       = 0
  Multiplicity = 1
  Basis Set: 6-31G*
  Basis Set:

    Orbital Energies (a.u.)
    -----------------------

    Doubly Occupied:

       1A    -20.551110     2A    -11.266074     3A    -11.217010
       4A    -11.216372     5A    -11.215662     6A    -11.210871
       7A    -11.208981     8A     -1.357902     9A     -1.085041
      10A     -1.029838    11A     -0.950881    12A     -0.886456
      13A     -0.814737    14A     -0.764293    15A     -0.694882
      16A     -0.658069    17A     -0.623875    18A     -0.608482
      19A     -0.580466    20A     -0.570547    21A     -0.538586
      22A     -0.527482    23A     -0.512800    24A     -0.486145
      25A     -0.481589    26A     -0.459984    27A     -0.451561
      28A     -0.442318    29A     -0.429794

  @DF-RHF Final Energy:  -310.20471743656253

   => Energetics <=

    Nuclear Repulsion Energy =            316.6104794984490809
    One-Electron Energy =               -1047.9467772501398031
    Two-Electron Energy =                 421.1315803151285309
    DFT Exchange-Correlation Energy =       0.0000000000000000
    Empirical Dispersion Energy =           0.0000000000000000
    PCM Polarization Energy =               0.0000000000000000
    EFP Energy =                            0.0000000000000000
    Total Energy =                       -310.2047174365621913
    Molecular point group: c1
  Basis Set: 6-31G*
  Basis Set:

  -Total Gradient:
     Atom            X                  Y                   Z
    ------   -----------------  -----------------  -----------------
       1       -0.000005548150    -0.000001531274    -0.000000694256
       2       -0.000013250216    -0.000006008782    -0.000010586017
       3       -0.000001744033     0.000008585115     0.000019064889
       4       -0.001425005456     0.005179348989    -0.000947406064
       5        0.000005036569    -0.000001430541    -0.000000370418
       6        0.000001364792     0.000003746867    -0.000000428188
       7        0.000822635230     0.001903259028    -0.004580529019
       8        0.001023686819    -0.004984825171     0.002030767566
       9       -0.000004092951     0.000002972027    -0.000001551826
      10       -0.000411628691    -0.002114643085     0.003483670798
      11        0.000000324115    -0.000000117635     0.000001114130
      12        0.000002523418     0.000001244164    -0.000000652004
      13        0.000002084444     0.000010040788     0.000006682137
      14       -0.000002487537    -0.000002750748    -0.000000169182
      15       -0.000000753984     0.000000907830    -0.000001404514
      16        0.000004103588    -0.000002779700     0.000002172830
      17       -0.000001376048     0.000004041791    -0.000001854302
      18        0.000003301284    -0.000000782049     0.000002799727
      19       -0.000001349295     0.000000813033     0.000000325657
      20        0.000001189536    -0.000000556682     0.000000401846
      21        0.000000986573     0.000000466033    -0.000001353788

  **** Optimization is complete! (in 9 steps) ****
    Final optimized geometry and variables:
    Molecular point group: c1

    Geometry (in Angstrom), charge = 0, multiplicity = 1:

    H           -3.094676689526    -2.351822384146    -0.855414689772
    O           -2.969682368619    -1.440371915190    -0.632793659665
    C           -1.619306823335    -1.214223540448    -0.313944624163
    C           -1.481954666991     0.266580360906     0.016128478578
    H           -1.325254618596    -1.823520517073     0.538993670758
    H           -0.982618723918    -1.490518324917    -1.150483002349
    C           -0.076874976507     0.737672510897     0.464465640163
    H           -2.191389092604     0.447732090515     0.816642160969
    H           -1.818690900233     0.826326100398    -0.849770598480
    C            1.110648455777    -0.149102000578     0.066142976231
    H            0.079013472249     1.745136190935     0.094730956337
    H           -0.068234250982     0.817084819420     1.549512192192
    C            2.462258931173     0.362805324908     0.580039981085
    H            1.160707963762    -0.246446142345    -1.017221084510
    H            0.960175483757    -1.151115277163     0.457378050952
    C            2.931770551239     1.674324686541    -0.052375857048
    H            3.212025241308    -0.401352693750     0.389997605206
    H            2.415344003491     0.478507137320     1.661030960741
    H            2.975424364749     1.591275479379    -1.135047670513
    H            2.274980685165     2.502871427535     0.189834955297
    H            3.925647888107     1.935248344789     0.298084682877

  Mulliken Charges: (a.u.)
   Center  Symbol    Alpha    Beta     Spin     Total
       1     H     0.28132  0.28132  0.00000  0.43737
       2     O     4.37292  4.37292  0.00000 -0.74585
       3     C     2.99488  2.99488  0.00000  0.01025
       4     C     3.16130  3.16130  0.00000 -0.32260
       5     H     0.43266  0.43266  0.00000  0.13468
       6     H     0.43035  0.43035  0.00000  0.13930
       7     C     3.16195  3.16195  0.00000 -0.32391
       8     H     0.41177  0.41177  0.00000  0.17646
       9     H     0.41307  0.41307  0.00000  0.17385
      10     C     3.15907  3.15907  0.00000 -0.31815
      11     H     0.41625  0.41625  0.00000  0.16750
      12     H     0.42179  0.42179  0.00000  0.15641
      13     C     3.15206  3.15206  0.00000 -0.30413
      14     H     0.42330  0.42330  0.00000  0.15340
      15     H     0.42163  0.42163  0.00000  0.15673
      16     C     3.24132  3.24132  0.00000 -0.48264
      17     H     0.42090  0.42090  0.00000  0.15821
      18     H     0.42293  0.42293  0.00000  0.15413
      19     H     0.42205  0.42205  0.00000  0.15591
      20     H     0.41949  0.41949  0.00000  0.16102
      21     H     0.41898  0.41898  0.00000  0.16205

   Total alpha = 29.00000, Total beta = 29.00000, Total charge = -0.00000
