  ==> Input File <==

--------------------------------------------------------------------------
set {
	reference rhf
	basis 6-31G*
}

set_num_threads( 4 )
memory 2 gb

molecule MOL {
0 1

O	 1.214711	 1.306902	 -0.000018
C	 1.122059	 0.121804	 -0.000188
C	 -0.170150	 -0.657997	 -0.000612
O	 2.172624	 -0.688929	 0.000216
C	 -1.412532	 0.227344	 -0.000452
H	 -0.153702	 -1.313099	 -0.867402
H	 -0.153924	 -1.313811	 0.865644
C	 -1.099602	 1.668208	 0.406183
H	 -2.152103	 -0.193065	 0.673933
H	 -1.862753	 0.213222	 -0.988179
C	 -2.338639	 2.562518	 0.407769
H	 -0.647990	 1.676552	 1.396160
H	 -0.356220	 2.083729	 -0.271162
H	 -3.087718	 2.192334	 1.101670
H	 -2.089470	 3.577898	 0.699650
H	 -2.793493	 2.602912	 -0.577683
C	 3.452279	 -0.082609	 0.000533
H	 3.583069	 0.529321	 -0.880332
H	 4.163299	 -0.894027	 0.001117
H	 3.582335	 0.529955	 0.881077

	symmetry c1
}
set optking {
	frozen_dihedral = ("
		9 5 3 6
	")
}

ee = optimize('scf')
oeprop('DIPOLE', 'QUADRUPOLE', 'MULLIKEN_CHARGES')
f=open( 'psi4out.xyz', 'w' )
f.write( "20  " )
f.write( str(ee) + "\n" )
f.write( MOL.save_string_xyz() )
f.close()
--------------------------------------------------------------------------

    Molecular point group: c1
  Charge       = 0
  Multiplicity = 1
  Basis Set: 6-31G*
  Basis Set:
  @DF-RHF Final Energy:  -383.90491402646859
    Total Energy =                       -383.9049140264685320
    Molecular point group: c1
  Basis Set: 6-31G*
  Basis Set:
  Basis Set: 6-31G*
  Basis Set:
  @DF-RHF Final Energy:  -383.92479239058173
    Total Energy =                       -383.9247923905815014
  Basis Set: 6-31G*
  Basis Set:
  Basis Set: 6-31G*
  Basis Set:
  @DF-RHF Final Energy:  -383.92836549715992
    Total Energy =                       -383.9283654971601436
  Basis Set: 6-31G*
  Basis Set:
  Basis Set: 6-31G*
  Basis Set:
  @DF-RHF Final Energy:  -383.92945391196082
    Total Energy =                       -383.9294539119609908
  Basis Set: 6-31G*
  Basis Set:
  @DF-RHF Final Energy:  -383.93013333308511
    Total Energy =                       -383.9301333330856778
  @DF-RHF Final Energy:  -383.93063920781174
    Total Energy =                       -383.9306392078120780
  @DF-RHF Final Energy:  -383.93120271712758
    Total Energy =                       -383.9312027171275759
  @DF-RHF Final Energy:  -383.93141255984017
    Total Energy =                       -383.9314125598403962
  @DF-RHF Final Energy:  -383.93156401026141
    Total Energy =                       -383.9315640102612406
  @DF-RHF Final Energy:  -383.93171340582199
    Total Energy =                       -383.9317134058218244
  @DF-RHF Final Energy:  -383.93209423189944
    Total Energy =                       -383.9320942318995549
  @DF-RHF Final Energy:  -383.93239754235412
    Total Energy =                       -383.9323975423537831
  @DF-RHF Final Energy:  -383.93242087316258
    Total Energy =                       -383.9324208731626413
  @DF-RHF Final Energy:  -383.93280344739895
    Total Energy =                       -383.9328034473988964
  @DF-RHF Final Energy:  -383.93299530519215
    Total Energy =                       -383.9329953051924349
  @DF-RHF Final Energy:  -383.93315522506384
    Total Energy =                       -383.9331552250639561
  @DF-RHF Final Energy:  -383.93331166695344
    Total Energy =                       -383.9333116669537276
  @DF-RHF Final Energy:  -383.93345811629399
    Total Energy =                       -383.9334581162942186
  @DF-RHF Final Energy:  -383.93336057061765
    Total Energy =                       -383.9333605706176513
  @DF-RHF Final Energy:  -383.93330773470325
    Total Energy =                       -383.9333077347034759
  Basis Set: 6-31G*
  Basis Set:
  @DF-RHF Final Energy:  -383.93357765248447
    Total Energy =                       -383.9335776524841322
  Basis Set: 6-31G*
  Basis Set:
  Basis Set: 6-31G*
  Basis Set:
  @DF-RHF Final Energy:  -383.93358054472617
    Total Energy =                       -383.9335805447256007
  Basis Set: 6-31G*
  Basis Set:
  Basis Set: 6-31G*
  Basis Set:
  @DF-RHF Final Energy:  -383.93359239823741
    Total Energy =                       -383.9335923982373515
  Basis Set: 6-31G*
  Basis Set:
  Charge       = 0
  Multiplicity = 1
  Basis Set: 6-31G*
  Basis Set:

    Orbital Energies (a.u.)
    -----------------------

    Doubly Occupied:

       1A    -20.605327     2A    -20.541859     3A    -11.370848
       4A    -11.280622     5A    -11.234020     6A    -11.230362
       7A    -11.219949     8A    -11.212540     9A     -1.468980
      10A     -1.360795    11A     -1.088223    12A     -1.021759
      13A     -0.968317    14A     -0.889704    15A     -0.812822
      16A     -0.767486    17A     -0.689577    18A     -0.677423
      19A     -0.673215    20A     -0.644133    21A     -0.595033
      22A     -0.591873    23A     -0.584152    24A     -0.551491
      25A     -0.529545    26A     -0.519403    27A     -0.515300
      28A     -0.482488    29A     -0.473908    30A     -0.466779
      31A     -0.452314    32A     -0.431013

  @DF-RHF Final Energy:  -383.93359269538843

   => Energetics <=

    Nuclear Repulsion Energy =            394.9317544844295185
    One-Electron Energy =               -1305.8281745374642924
    Two-Electron Energy =                 526.9628273576464608
    DFT Exchange-Correlation Energy =       0.0000000000000000
    Empirical Dispersion Energy =           0.0000000000000000
    PCM Polarization Energy =               0.0000000000000000
    EFP Energy =                            0.0000000000000000
    Total Energy =                       -383.9335926953882563
    Molecular point group: c1
  Basis Set: 6-31G*
  Basis Set:

  -Total Gradient:
     Atom            X                  Y                   Z
    ------   -----------------  -----------------  -----------------
       1        0.000004462333    -0.000020396483     0.000025677533
       2       -0.000030034954     0.000036468278    -0.000038239170
       3       -0.002650281505    -0.003840307091     0.003535534115
       4        0.000043208519    -0.000020972540     0.000006685108
       5       -0.002482914873    -0.001214117426    -0.004963732742
       6        0.002577047464     0.003399025560    -0.002229450004
       7       -0.000004088607     0.000000261637    -0.000003945592
       8        0.000001374045     0.000000206770    -0.000014559053
       9        0.002537453361     0.001635146438     0.003664860551
      10        0.000000009443     0.000002374466     0.000003285544
      11        0.000007995431    -0.000000228436    -0.000002895798
      12        0.000003006044    -0.000003213313     0.000002973226
      13        0.000002891776     0.000005329287     0.000002598451
      14        0.000001776311    -0.000001439972    -0.000000800200
      15       -0.000000057987    -0.000000471140     0.000000782071
      16       -0.000000892905     0.000000701564     0.000000038637
      17       -0.000026760543     0.000036253241     0.000017231740
      18       -0.000005109583    -0.000008447583    -0.000005776357
      19        0.000006620953    -0.000004493989    -0.000001130614
      20        0.000014295275    -0.000001679271     0.000000862556

  **** Optimization is complete! (in 24 steps) ****
    Final optimized geometry and variables:
    Molecular point group: c1

    Geometry (in Angstrom), charge = 0, multiplicity = 1:

    O            1.096080391157    -0.124328470351    -1.535982589301
    C            0.703625734556    -0.651323073548    -0.543847351335
    C           -0.668696817841    -1.265206951982    -0.388461691256
    O            1.434384288521    -0.754666708234     0.557914047740
    C           -1.780090834229    -0.221902643579    -0.088170941331
    H           -0.868813493453    -1.738021577898    -1.341646019331
    H           -0.629023539775    -2.018545062554     0.386017370991
    C           -1.308412363652     1.090397966238     0.550744938251
    H           -2.482070433942    -0.679267780432     0.602213393905
    H           -2.318143097278     0.003257344345    -1.002010210530
    C           -2.477591858032     2.018511903102     0.878021908616
    H           -0.752979742860     0.874143414756     1.459623640737
    H           -0.624985957795     1.601518192998    -0.120705774470
    H           -3.165352725348     1.554196812613     1.579150818482
    H           -2.127581518973     2.944724390031     1.322537085189
    H           -3.038569496705     2.272706782108    -0.016727331185
    C            2.732531099696    -0.189696560135     0.521909337203
    H            3.327765420158    -0.656297568566    -0.249549027341
    H            3.163395653697    -0.377949183837     1.492914950239
    H            2.678916116356     0.873204270483     0.335151827382

  Mulliken Charges: (a.u.)
   Center  Symbol    Alpha    Beta     Spin     Total
       1     O     4.28615  4.28615  0.00000 -0.57231
       2     C     2.61799  2.61799  0.00000  0.76401
       3     C     3.19850  3.19850  0.00000 -0.39700
       4     O     4.30231  4.30231  0.00000 -0.60461
       5     C     3.15342  3.15342  0.00000 -0.30684
       6     H     0.39831  0.39831  0.00000  0.20338
       7     H     0.40156  0.40156  0.00000  0.19688
       8     C     3.17002  3.17002  0.00000 -0.34004
       9     H     0.41612  0.41612  0.00000  0.16775
      10     H     0.41171  0.41171  0.00000  0.17658
      11     C     3.23963  3.23963  0.00000 -0.47925
      12     H     0.41546  0.41546  0.00000  0.16908
      13     H     0.41093  0.41093  0.00000  0.17815
      14     H     0.42161  0.42161  0.00000  0.15677
      15     H     0.41724  0.41724  0.00000  0.16553
      16     H     0.41980  0.41980  0.00000  0.16041
      17     C     3.09311  3.09311  0.00000 -0.18621
      18     H     0.40820  0.40820  0.00000  0.18359
      19     H     0.40875  0.40875  0.00000  0.18250
      20     H     0.40918  0.40918  0.00000  0.18164

   Total alpha = 32.00000, Total beta = 32.00000, Total charge = -0.00000
