  ==> Input File <==

--------------------------------------------------------------------------
set {
	reference rhf
	basis 6-31G*
}

set_num_threads( 4 )
memory 2 gb

molecule MOL {
0 1

H	 -0.003147	 2.090172	 0.438658
C	 0.023350	 1.111887	 0.907272
N	 -0.528168	 0.128977	 -0.000000
H	 -0.582241	 1.159447	 1.805065
H	 1.057271	 0.911808	 1.200944
C	 0.248044	 -0.037491	 -1.209632
H	 -0.617748	 -0.750718	 0.468124
H	 0.998722	 0.743888	 -1.266824
H	 -0.398417	 0.061950	 -2.074060
H	 0.763621	 -0.999315	 -1.275517

	symmetry c1
}
set optking {
	frozen_dihedral = ("
		2 3 6 8
	")
}

ee = optimize('scf')
oeprop('DIPOLE', 'QUADRUPOLE', 'MULLIKEN_CHARGES')
f=open( 'psi4out.xyz', 'w' )
f.write( "10  " )
f.write( str(ee) + "\n" )
f.write( MOL.save_string_xyz() )
f.close()
--------------------------------------------------------------------------

    Molecular point group: c1
  Charge       = 0
  Multiplicity = 1
  Basis Set: 6-31G*
  Basis Set:
  @DF-RHF Final Energy:  -134.23298567086852
    Total Energy =                       -134.2329856708684588
    Molecular point group: c1
  Basis Set: 6-31G*
  Basis Set:
  Basis Set: 6-31G*
  Basis Set:
  @DF-RHF Final Energy:  -134.23348406971306
    Total Energy =                       -134.2334840697130289
  Basis Set: 6-31G*
  Basis Set:
  Basis Set: 6-31G*
  Basis Set:
  @DF-RHF Final Energy:  -134.23360780962648
    Total Energy =                       -134.2336078096264487
  Basis Set: 6-31G*
  Basis Set:
  Basis Set: 6-31G*
  Basis Set:
  @DF-RHF Final Energy:  -134.23361259679891
    Total Energy =                       -134.2336125967988778
  Basis Set: 6-31G*
  Basis Set:
  Charge       = 0
  Multiplicity = 1
  Basis Set: 6-31G*
  Basis Set:

    Orbital Energies (a.u.)
    -----------------------

    Doubly Occupied:

       1A    -15.533951     2A    -11.236084     3A    -11.235635
       4A     -1.193857     5A     -0.947598     6A     -0.854640
       7A     -0.659660     8A     -0.608276     9A     -0.587889
      10A     -0.545164    11A     -0.511292    12A     -0.506668
      13A     -0.353974

  @DF-RHF Final Energy:  -134.23361335236723

   => Energetics <=

    Nuclear Repulsion Energy =             84.3667043537258792
    One-Electron Energy =                -347.6512549094853739
    Two-Electron Energy =                 129.0509372033923796
    DFT Exchange-Correlation Energy =       0.0000000000000000
    Empirical Dispersion Energy =           0.0000000000000000
    PCM Polarization Energy =               0.0000000000000000
    EFP Energy =                            0.0000000000000000
    Total Energy =                       -134.2336133523671151
    Molecular point group: c1
  Basis Set: 6-31G*
  Basis Set:

  -Total Gradient:
     Atom            X                  Y                   Z
    ------   -----------------  -----------------  -----------------
       1        0.000007718297     0.000007424612     0.000007940792
       2       -0.000665891601     0.000885962796    -0.000550325378
       3        0.001186280424    -0.001501940792     0.000988812376
       4        0.000008885837     0.000002843466    -0.000002991285
       5       -0.000009471536    -0.000001739959    -0.000001760449
       6       -0.001560860917     0.001535481138    -0.001272287092
       7       -0.000009465506    -0.000019211610     0.000014627654
       8        0.001031059601    -0.000911251017     0.000768285887
       9        0.000005365034     0.000006699529     0.000037679875
      10        0.000006380367    -0.000004268164     0.000010017621

  **** Optimization is complete! (in 5 steps) ****
    Final optimized geometry and variables:
    Molecular point group: c1

    Geometry (in Angstrom), charge = 0, multiplicity = 1:

    H            0.056252357444     1.697048306956     0.566589174792
    C            0.086423641510     0.712801817424     1.021167563217
    N           -0.449441244338    -0.263811203005     0.098868644430
    H           -0.532879968346     0.744539431746     1.910500641755
    H            1.116739208246     0.520033988952     1.331869680467
    C            0.303973476136    -0.437157857844    -1.133675690541
    H           -0.583173722484    -1.139966128205     0.557986781166
    H            1.061091993461     0.333996652061    -1.230590294173
    H           -0.346376916094    -0.380203378357    -2.000697742847
    H            0.824649523209    -1.392009018310    -1.169758819855

  Mulliken Charges: (a.u.)
   Center  Symbol    Alpha    Beta     Spin     Total
       1     H     0.41778  0.41778  0.00000  0.16443
       2     C     3.14227  3.14227  0.00000 -0.28455
       3     N     3.84695  3.84695  0.00000 -0.69390
       4     H     0.41817  0.41817  0.00000  0.16365
       5     H     0.43520  0.43520  0.00000  0.12959
       6     C     3.14354  3.14354  0.00000 -0.28708
       7     H     0.33045  0.33045  0.00000  0.33911
       8     H     0.42167  0.42167  0.00000  0.15667
       9     H     0.41639  0.41639  0.00000  0.16721
      10     H     0.42757  0.42757  0.00000  0.14486

   Total alpha = 13.00000, Total beta = 13.00000, Total charge = -0.00000
