  ==> Input File <==

--------------------------------------------------------------------------
set {
	reference rhf
	basis 6-31G*
}

set_num_threads( 4 )
memory 2 gb

molecule MOL {
0 1

H	 -3.972448	 1.123331	 -0.561924
O	 -3.257594	 0.548829	 -0.796093
C	 -2.306886	 0.532354	 0.237577
C	 -1.177863	 -0.397191	 -0.171080
H	 -1.918750	 1.534070	 0.417087
H	 -2.757204	 0.185832	 1.166811
C	 0.198102	 0.111031	 0.262842
H	 -1.208843	 -0.518759	 -1.250427
H	 -1.368741	 -1.376554	 0.258909
C	 1.331804	 -0.827780	 -0.158768
H	 0.361943	 1.100838	 -0.156218
H	 0.217265	 0.229072	 1.345532
C	 2.723619	 -0.410569	 0.329459
H	 1.342964	 -0.912588	 -1.244120
H	 1.116806	 -1.824343	 0.220779
C	 3.243875	 0.895854	 -0.272975
H	 3.424222	 -1.207124	 0.091250
H	 2.714788	 -0.329854	 1.414619
H	 3.251977	 0.848779	 -1.358681
H	 2.637085	 1.747371	 0.016682
H	 4.259473	 1.094070	 0.055697

	symmetry c1
}
set optking {
	frozen_dihedral = ("
		2 3 4 8
	")
}

ee = optimize('scf')
oeprop('DIPOLE', 'QUADRUPOLE', 'MULLIKEN_CHARGES')
f=open( 'psi4out.xyz', 'w' )
f.write( "21  " )
f.write( str(ee) + "\n" )
f.write( MOL.save_string_xyz() )
f.close()
--------------------------------------------------------------------------

    Molecular point group: c1
  Charge       = 0
  Multiplicity = 1
  Basis Set: 6-31G*
  Basis Set:
  @DF-RHF Final Energy:  -310.20846773120007
    Total Energy =                       -310.2084677311999030
    Molecular point group: c1
  Basis Set: 6-31G*
  Basis Set:
  Basis Set: 6-31G*
  Basis Set:
  @DF-RHF Final Energy:  -310.20877187595778
    Total Energy =                       -310.2087718759576092
  Basis Set: 6-31G*
  Basis Set:
  Basis Set: 6-31G*
  Basis Set:
  @DF-RHF Final Energy:  -310.20886081932088
    Total Energy =                       -310.2088608193206483
  Basis Set: 6-31G*
  Basis Set:
  Basis Set: 6-31G*
  Basis Set:
  @DF-RHF Final Energy:  -310.20885759791548
    Total Energy =                       -310.2088575979157667
  Basis Set: 6-31G*
  Basis Set:
  Basis Set: 6-31G*
  Basis Set:
  @DF-RHF Final Energy:  -310.20886465761464
    Total Energy =                       -310.2088646576149813
  Basis Set: 6-31G*
  Basis Set:
  Charge       = 0
  Multiplicity = 1
  Basis Set: 6-31G*
  Basis Set:

    Orbital Energies (a.u.)
    -----------------------

    Doubly Occupied:

       1A    -20.551551     2A    -11.267247     3A    -11.215024
       4A    -11.214743     5A    -11.212904     6A    -11.210394
       7A    -11.207456     8A     -1.357856     9A     -1.085167
      10A     -1.031484    11A     -0.953320    12A     -0.875689
      13A     -0.807681    14A     -0.778726    15A     -0.697477
      16A     -0.651241    17A     -0.620547    18A     -0.607934
      19A     -0.588604    20A     -0.564511    21A     -0.539525
      22A     -0.519789    23A     -0.507787    24A     -0.490933
      25A     -0.477738    26A     -0.459472    27A     -0.455675
      28A     -0.443449    29A     -0.429454

  @DF-RHF Final Energy:  -310.20886441919242

   => Energetics <=

    Nuclear Repulsion Energy =            312.5444819163074044
    One-Electron Energy =               -1039.8599429147020601
    Two-Electron Energy =                 417.1065965792024599
    DFT Exchange-Correlation Energy =       0.0000000000000000
    Empirical Dispersion Energy =           0.0000000000000000
    PCM Polarization Energy =               0.0000000000000000
    EFP Energy =                            0.0000000000000000
    Total Energy =                       -310.2088644191921958
    Molecular point group: c1
  Basis Set: 6-31G*
  Basis Set:

  -Total Gradient:
     Atom            X                  Y                   Z
    ------   -----------------  -----------------  -----------------
       1       -0.000066308545     0.000006597988    -0.000044113056
       2        0.001533743255     0.002631082647    -0.001232277046
       3       -0.002322535538    -0.004198407841     0.001832884610
       4        0.003536323601     0.004971773383    -0.000830093851
       5       -0.000033782588     0.000008459034    -0.000010088018
       6       -0.000065068945     0.000001186501    -0.000045037993
       7       -0.000102079444    -0.000025757984    -0.000064012393
       8       -0.002482577140    -0.003410817752     0.000359849111
       9       -0.000051186265     0.000005584556     0.000045717856
      10        0.000022434078     0.000037821170    -0.000031347860
      11       -0.000019900474    -0.000038479438     0.000004000878
      12       -0.000020308922    -0.000002539641    -0.000002854655
      13       -0.000001811602     0.000011043118     0.000029103761
      14        0.000003094252     0.000016259819     0.000004275005
      15        0.000007017699     0.000002976540    -0.000011971025
      16        0.000022198575    -0.000005620253    -0.000007861420
      17        0.000009845463    -0.000001142228     0.000012338165
      18       -0.000009281293     0.000009834263     0.000002561486
      19       -0.000006867941     0.000005738162    -0.000009309393
      20        0.000045324103    -0.000015356547     0.000006081888
      21        0.000001727671    -0.000010235496    -0.000007846048

  **** Optimization is complete! (in 6 steps) ****
    Final optimized geometry and variables:
    Molecular point group: c1

    Geometry (in Angstrom), charge = 0, multiplicity = 1:

    H           -4.075825166368     0.968183706918    -0.400182072060
    O           -3.328697860841     0.460993691443    -0.684561518528
    C           -2.360326487145     0.436566610941     0.334468381616
    C           -1.209231797254    -0.467754954566    -0.107363223186
    H           -1.992103718970     1.445894549616     0.513596927922
    H           -2.790877831882     0.081174380431     1.268149946315
    C            0.164788742119     0.028700079520     0.342092554111
    H           -1.259199501090    -0.560457562266    -1.187478953662
    H           -1.375514112401    -1.471519117847     0.276969491469
    C            1.296773919142    -0.920724190416    -0.057585727340
    H            0.337394477353     1.014991769451    -0.080296038088
    H            0.169574406437     0.153664882023     1.424785448409
    C            2.686726625438    -0.505403343886     0.437994320964
    H            1.316612759521    -1.018296067525    -1.141798825536
    H            1.073697587794    -1.911934101133     0.331577149327
    C            3.223598772240     0.786108342610    -0.181773632624
    H            3.383673562618    -1.311233748866     0.221159558285
    H            2.667232875982    -0.405645373262     1.521487298928
    H            3.240786465692     0.720433751449    -1.266358115971
    H            2.621737107292     1.647583969922     0.087782721355
    H            4.237972491726     0.981080747179     0.152641434802

  Mulliken Charges: (a.u.)
   Center  Symbol    Alpha    Beta     Spin     Total
       1     H     0.28181  0.28181  0.00000  0.43638
       2     O     4.37163  4.37163  0.00000 -0.74326
       3     C     2.99252  2.99252  0.00000  0.01497
       4     C     3.16429  3.16429  0.00000 -0.32858
       5     H     0.43106  0.43106  0.00000  0.13788
       6     H     0.43081  0.43081  0.00000  0.13839
       7     C     3.16139  3.16139  0.00000 -0.32277
       8     H     0.40559  0.40559  0.00000  0.18881
       9     H     0.41990  0.41990  0.00000  0.16019
      10     C     3.15278  3.15278  0.00000 -0.30555
      11     H     0.41889  0.41889  0.00000  0.16222
      12     H     0.42535  0.42535  0.00000  0.14929
      13     C     3.15243  3.15243  0.00000 -0.30486
      14     H     0.42235  0.42235  0.00000  0.15529
      15     H     0.42192  0.42192  0.00000  0.15617
      16     C     3.24107  3.24107  0.00000 -0.48214
      17     H     0.42082  0.42082  0.00000  0.15837
      18     H     0.42386  0.42386  0.00000  0.15228
      19     H     0.42165  0.42165  0.00000  0.15670
      20     H     0.42042  0.42042  0.00000  0.15917
      21     H     0.41947  0.41947  0.00000  0.16106

   Total alpha = 29.00000, Total beta = 29.00000, Total charge = -0.00000
