  ==> Input File <==

--------------------------------------------------------------------------
set {
	reference rhf
	basis 6-31G*
}

set_num_threads( 1 )
memory 2 gb

molecule MOL {
0 1

H	 1.883900	 -0.587802	 -1.279913
C	 1.558808	 0.436954	 -1.063137
C	 0.692068	 0.589600	 0.160137
O	 1.891893	 1.331111	 -1.771421
C	 -0.558097	 -0.297372	 0.091132
H	 0.429229	 1.636036	 0.261956
H	 1.288074	 0.305952	 1.026827
C	 -1.850991	 0.512573	 -0.019058
H	 -0.476753	 -0.965681	 -0.762987
H	 -0.604799	 -0.930658	 0.975228
C	 -3.096943	 -0.368295	 -0.099594
H	 -1.800724	 1.150330	 -0.898172
H	 -1.931651	 1.177355	 0.838044
H	 -3.060452	 -1.020287	 -0.967456
H	 -3.996858	 0.233488	 -0.175704
H	 -3.191959	 -0.995686	 0.782074

	symmetry c1
}
set optking {
	frozen_dihedral = ("
		9 5 8 12,
		4 2 3 6
	")
}

ee = energy('scf')
oeprop('DIPOLE', 'QUADRUPOLE', 'MULLIKEN_CHARGES')
f=open( 'psi4out.xyz', 'w' )
f.write( "16  " )
f.write( str(ee) + "\n" )
f.write( MOL.save_string_xyz() )
f.close()
--------------------------------------------------------------------------

    Molecular point group: c1

    Geometry (in Angstrom), charge = 0, multiplicity = 1:

       Center              X                  Y                   Z               Mass
    ------------   -----------------  -----------------  -----------------  -----------------
           H          2.120360184456    -0.956971620509    -0.818658479032     1.007825032070
           C          1.795268184456     0.067784379491    -0.601882479032    12.000000000000
           C          0.928528184456     0.220430379491     0.621391520968    12.000000000000
           O          2.128353184456     0.961941379491    -1.310166479032    15.994914619560
           C         -0.321636815544    -0.666541620509     0.552386520968    12.000000000000
           H          0.665689184456     1.266866379491     0.723210520968     1.007825032070
           H          1.524534184456    -0.063217620509     1.488081520968     1.007825032070
           C         -1.614530815544     0.143403379491     0.442196520968    12.000000000000
           H         -0.240292815544    -1.334850620509    -0.301732479032     1.007825032070
           H         -0.368338815544    -1.299827620509     1.436482520968     1.007825032070
           C         -2.860482815544    -0.737464620509     0.361660520968    12.000000000000
           H         -1.564263815544     0.781160379491    -0.436917479032     1.007825032070
           H         -1.695190815544     0.808185379491     1.299298520968     1.007825032070
           H         -2.823991815544    -1.389456620509    -0.506201479032     1.007825032070
           H         -3.760397815544    -0.135681620509     0.285550520968     1.007825032070
           H         -2.955498815544    -1.364855620509     1.243328520968     1.007825032070

  Charge       = 0
  Multiplicity = 1
  Basis Set: 6-31G*
  Basis Set:

    Orbital Energies (a.u.)
    -----------------------

    Doubly Occupied:

       1A    -20.562386     2A    -11.326794     3A    -11.235286
       4A    -11.233785     5A    -11.227237     6A    -11.216658
       7A     -1.402373     8A     -1.095943     9A     -1.017381
      10A     -0.904641    11A     -0.812741    12A     -0.794599
      13A     -0.673050    14A     -0.651765    15A     -0.619929
      16A     -0.603888    17A     -0.591578    18A     -0.535303
      19A     -0.527702    20A     -0.523868    21A     -0.485275
      22A     -0.481694    23A     -0.466729    24A     -0.410461

  @DF-RHF Final Energy:  -270.01493825853362

   => Energetics <=

    Nuclear Repulsion Energy =            231.0384070142206951
    One-Electron Energy =                -823.3045572891326174
    Two-Electron Energy =                 322.2512120163782470
    DFT Exchange-Correlation Energy =       0.0000000000000000
    Empirical Dispersion Energy =           0.0000000000000000
    PCM Polarization Energy =               0.0000000000000000
    EFP Energy =                            0.0000000000000000
    Total Energy =                       -270.0149382585337321

  Mulliken Charges: (a.u.)
   Center  Symbol    Alpha    Beta     Spin     Total
       1     H     0.43126  0.43126  0.00000  0.13749
       2     C     2.83422  2.83422  0.00000  0.33157
       3     C     3.20920  3.20920  0.00000 -0.41841
       4     O     4.23681  4.23681  0.00000 -0.47361
       5     C     3.16593  3.16593  0.00000 -0.33187
       6     H     0.39709  0.39709  0.00000  0.20582
       7     H     0.40654  0.40654  0.00000  0.18692
       8     C     3.15375  3.15375  0.00000 -0.30750
       9     H     0.41719  0.41719  0.00000  0.16563
      10     H     0.41483  0.41483  0.00000  0.17034
      11     C     3.24099  3.24099  0.00000 -0.48199
      12     H     0.41583  0.41583  0.00000  0.16835
      13     H     0.41911  0.41911  0.00000  0.16177
      14     H     0.42010  0.42010  0.00000  0.15980
      15     H     0.41622  0.41622  0.00000  0.16756
      16     H     0.42093  0.42093  0.00000  0.15813

   Total alpha = 24.00000, Total beta = 24.00000, Total charge = -0.00000
