  ==> Input File <==

--------------------------------------------------------------------------
set {
	reference rhf
	basis cc-pvtz
}

set_num_threads( 4 )
memory 2 gb

molecule MOL {
0 1

H	 -3.144994	 -1.202467	 -0.018751
O	 -2.321472	 -0.864941	 -0.318626
C	 -2.021813	 0.336996	 0.342658
C	 -0.669613	 0.837286	 -0.127252
H	 -2.780861	 1.084746	 0.127159
H	 -2.006390	 0.184138	 1.420053
C	 0.490865	 -0.082543	 0.241244
H	 -0.708709	 0.967192	 -1.204587
H	 -0.507562	 1.822272	 0.303070
C	 1.744841	 0.176167	 -0.588949
H	 0.180828	 -1.113983	 0.118510
H	 0.727171	 0.045225	 1.295738
C	 2.907583	 -0.737475	 -0.216022
H	 1.509778	 0.046760	 -1.641898
H	 2.049893	 1.212826	 -0.470755
H	 2.645122	 -1.780566	 -0.357413
H	 3.781246	 -0.530714	 -0.823696
H	 3.189824	 -0.607386	 0.823623

	symmetry c1
}
set optking {
	frozen_dihedral = ("
		10 7 4 8
	")
}

ee = optimize('scf')
oeprop('DIPOLE', 'QUADRUPOLE', 'MULLIKEN_CHARGES')
f=open( 'psi4out.xyz', 'w' )
f.write( "18  " )
f.write( str(ee) + "\n" )
f.write( MOL.save_string_xyz() )
f.close()
--------------------------------------------------------------------------

    Molecular point group: c1
  Charge       = 0
  Multiplicity = 1
  Basis Set: CC-PVTZ
  Basis Set:
  @DF-RHF Final Energy:  -271.28592264991494
    Total Energy =                       -271.2859226499148235
    Molecular point group: c1
  Basis Set: CC-PVTZ
  Basis Set:
  Basis Set: CC-PVTZ
  Basis Set:
  @DF-RHF Final Energy:  -271.28601286153059
    Total Energy =                       -271.2860128615307076
  Basis Set: CC-PVTZ
  Basis Set:
  Basis Set: CC-PVTZ
  Basis Set:
  @DF-RHF Final Energy:  -271.28603571389294
    Total Energy =                       -271.2860357138930567
  Basis Set: CC-PVTZ
  Basis Set:
  Basis Set: CC-PVTZ
  Basis Set:
  @DF-RHF Final Energy:  -271.28603677556566
    Total Energy =                       -271.2860367755656057
  Basis Set: CC-PVTZ
  Basis Set:
  Charge       = 0
  Multiplicity = 1
  Basis Set: CC-PVTZ
  Basis Set:

    Orbital Energies (a.u.)
    -----------------------

    Doubly Occupied:

       1A    -20.546508     2A    -11.266277     3A    -11.210325
       4A    -11.208735     5A    -11.204860     6A    -11.202451
       7A     -1.364386     8A     -1.076036     9A     -1.010064
      10A     -0.914419    11A     -0.818495    12A     -0.784963
      13A     -0.708911    14A     -0.639240    15A     -0.629878
      16A     -0.583967    17A     -0.570962    18A     -0.559444
      19A     -0.524227    20A     -0.499074    21A     -0.490939
      22A     -0.468786    23A     -0.458646    24A     -0.449349
      25A     -0.431172

  @DF-RHF Final Energy:  -271.28603701161410

   => Energetics <=

    Nuclear Repulsion Energy =            249.5297704636035405
    One-Electron Energy =                -862.3873937627411124
    Two-Electron Energy =                 341.5715862875233597
    DFT Exchange-Correlation Energy =       0.0000000000000000
    Empirical Dispersion Energy =           0.0000000000000000
    PCM Polarization Energy =               0.0000000000000000
    EFP Energy =                            0.0000000000000000
    Total Energy =                       -271.2860370116142121
    Molecular point group: c1
  Basis Set: CC-PVTZ
  Basis Set:

  -Total Gradient:
     Atom            X                  Y                   Z
    ------   -----------------  -----------------  -----------------
       1       -0.000003299939     0.000006665815    -0.000002421525
       2       -0.000008447840     0.000022677696     0.000000395666
       3        0.000025847565    -0.000019564625     0.000016162164
       4       -0.002389165158    -0.003359374209    -0.000863840139
       5       -0.000004427763    -0.000016500640    -0.000008504898
       6       -0.000003129101     0.000005596183     0.000002624029
       7        0.001299119696     0.002438407392     0.002030743877
       8        0.001725189332     0.002256918541     0.000221066175
       9       -0.000000484542     0.000003034269     0.000015034723
      10       -0.000641304582    -0.001346065427    -0.001414312437
      11       -0.000002601246     0.000006390574     0.000011226646
      12        0.000000265633     0.000005619900    -0.000005036169
      13        0.000001553134    -0.000000228732     0.000000851662
      14       -0.000006012860     0.000002492720    -0.000001250958
      15        0.000005534735    -0.000003084257    -0.000000320579
      16        0.000000435127    -0.000001269982     0.000000912528
      17        0.000002182283    -0.000001153566    -0.000000523207
      18       -0.000001254479    -0.000000561656    -0.000002807558

  **** Optimization is complete! (in 5 steps) ****
    Final optimized geometry and variables:
    Molecular point group: c1

    Geometry (in Angstrom), charge = 0, multiplicity = 1:

    H           -3.135973757284    -1.099596328332     0.102081975087
    O           -2.319031047284    -0.762520008488    -0.215553905916
    C           -1.987887879301     0.421472795472     0.462813949074
    C           -0.636963073289     0.908776989694    -0.021640429803
    H           -2.738721373958     1.184763697375     0.275641752762
    H           -1.955406164691     0.247730975804     1.536777768284
    C            0.525585934715    -0.015473218431     0.340574103910
    H           -0.676739656879     1.052882803295    -1.096777258539
    H           -0.463473739563     1.893564733730     0.405328346504
    C            1.782814847656     0.251525744694    -0.482044296054
    H            0.220346088317    -1.044544245780     0.186651228790
    H            0.751217580375     0.086223026601     1.399421807860
    C            2.954546798641    -0.642423198238    -0.090670023746
    H            1.553367940669     0.105374077877    -1.533477461777
    H            2.074744166082     1.293645021914    -0.375849052522
    H            2.703064945987    -1.690656289585    -0.213252028012
    H            3.826765521266    -0.437844619645    -0.701124486970
    H            3.234149443783    -0.490267296623     0.946650586502

  Mulliken Charges: (a.u.)
   Center  Symbol    Alpha    Beta     Spin     Total
       1     H     0.39552  0.39552  0.00000  0.20896
       2     O     4.19861  4.19861  0.00000 -0.39723
       3     C     2.97354  2.97354  0.00000  0.05291
       4     C     3.09138  3.09138  0.00000 -0.18275
       5     H     0.46434  0.46434  0.00000  0.07133
       6     H     0.47347  0.47347  0.00000  0.05307
       7     C     3.08767  3.08767  0.00000 -0.17534
       8     H     0.45287  0.45287  0.00000  0.09425
       9     H     0.45385  0.45385  0.00000  0.09229
      10     C     3.08361  3.08361  0.00000 -0.16721
      11     H     0.44694  0.44694  0.00000  0.10613
      12     H     0.45825  0.45825  0.00000  0.08350
      13     C     3.15000  3.15000  0.00000 -0.29999
      14     H     0.45312  0.45312  0.00000  0.09377
      15     H     0.45688  0.45688  0.00000  0.08624
      16     H     0.45445  0.45445  0.00000  0.09110
      17     H     0.44933  0.44933  0.00000  0.10135
      18     H     0.45619  0.45619  0.00000  0.08763

   Total alpha = 25.00000, Total beta = 25.00000, Total charge = -0.00000
