  ==> Input File <==

--------------------------------------------------------------------------
set {
	reference rhf
	basis 6-31G*
}

set_num_threads( 1 )
memory 2 gb

molecule MOL {
0 1

H	 -3.778205	 0.086417	 -0.453884
O	 -2.938238	 0.428725	 -0.724172
C	 -2.026376	 0.340750	 0.341611
C	 -0.673256	 0.843270	 -0.132153
H	 -2.367123	 0.941808	 1.182775
H	 -1.940532	 -0.688763	 0.687135
C	 0.486613	 -0.083066	 0.235839
H	 -0.715586	 0.970948	 -1.210718
H	 -0.508072	 1.829858	 0.297090
C	 1.840406	 0.433480	 -0.254303
H	 0.300215	 -1.068318	 -0.178947
H	 0.519509	 -0.203625	 1.318070
C	 3.000220	 -0.489290	 0.118523
H	 1.809207	 0.553576	 -1.335192
H	 2.021860	 1.424500	 0.157276
H	 2.864959	 -1.479103	 -0.307933
H	 3.946603	 -0.099227	 -0.243630
H	 3.080049	 -0.602997	 1.196117

	symmetry c1
}
set optking {
	frozen_dihedral = ("
		14 10 7 11,
		10 7 4 8,
		1 2 3 4
	")
}

ee = energy('scf')
oeprop('DIPOLE', 'QUADRUPOLE', 'MULLIKEN_CHARGES')
f=open( 'psi4out.xyz', 'w' )
f.write( "18  " )
f.write( str(ee) + "\n" )
f.write( MOL.save_string_xyz() )
f.close()
--------------------------------------------------------------------------

    Molecular point group: c1

    Geometry (in Angstrom), charge = 0, multiplicity = 1:

       Center              X                  Y                   Z               Mass
    ------------   -----------------  -----------------  -----------------  -----------------
           H         -3.662506424008    -0.152855727493    -0.377233690539     1.007825032070
           O         -2.822539424008     0.189452272507    -0.647521690539    15.994914619560
           C         -1.910677424008     0.101477272507     0.418261309461    12.000000000000
           C         -0.557557424008     0.603997272507    -0.055502690539    12.000000000000
           H         -2.251424424008     0.702535272507     1.259425309461     1.007825032070
           H         -1.824833424008    -0.928035727493     0.763785309461     1.007825032070
           C          0.602311575992    -0.322338727493     0.312489309461    12.000000000000
           H         -0.599887424008     0.731675272507    -1.134067690539     1.007825032070
           H         -0.392373424008     1.590585272507     0.373740309461     1.007825032070
           C          1.956104575992     0.194207272507    -0.177652690539    12.000000000000
           H          0.415913575992    -1.307590727493    -0.102296690539     1.007825032070
           H          0.635207575992    -0.442897727493     1.394720309461     1.007825032070
           C          3.115918575992    -0.728562727493     0.195173309461    12.000000000000
           H          1.924905575992     0.314303272507    -1.258541690539     1.007825032070
           H          2.137558575992     1.185227272507     0.233926309461     1.007825032070
           H          2.980657575992    -1.718375727493    -0.231282690539     1.007825032070
           H          4.062301575992    -0.338499727493    -0.166979690539     1.007825032070
           H          3.195747575992    -0.842269727493     1.272767309461     1.007825032070

  Charge       = 0
  Multiplicity = 1
  Basis Set: 6-31G*
  Basis Set:

    Orbital Energies (a.u.)
    -----------------------

    Doubly Occupied:

       1A    -20.551611     2A    -11.266194     3A    -11.214882
       4A    -11.214287     5A    -11.209297     6A    -11.207980
       7A     -1.358221     8A     -1.079415     9A     -1.010401
      10A     -0.913326    11A     -0.819020    12A     -0.791660
      13A     -0.699202    14A     -0.650273    15A     -0.625082
      16A     -0.583017    17A     -0.571446    18A     -0.558516
      19A     -0.528015    20A     -0.494543    21A     -0.489846
      22A     -0.469320    23A     -0.463322    24A     -0.453566
      25A     -0.426789

  @DF-RHF Final Energy:  -271.17408738414281

   => Energetics <=

    Nuclear Repulsion Energy =            245.8391912295145403
    One-Electron Energy =                -854.7281935765761318
    Two-Electron Energy =                 337.7149149629193516
    DFT Exchange-Correlation Energy =       0.0000000000000000
    Empirical Dispersion Energy =           0.0000000000000000
    PCM Polarization Energy =               0.0000000000000000
    EFP Energy =                            0.0000000000000000
    Total Energy =                       -271.1740873841422399

  Mulliken Charges: (a.u.)
   Center  Symbol    Alpha    Beta     Spin     Total
       1     H     0.28197  0.28197  0.00000  0.43606
       2     O     4.37110  4.37110  0.00000 -0.74220
       3     C     2.99372  2.99372  0.00000  0.01256
       4     C     3.16472  3.16472  0.00000 -0.32943
       5     H     0.43076  0.43076  0.00000  0.13848
       6     H     0.43026  0.43026  0.00000  0.13948
       7     C     3.15870  3.15870  0.00000 -0.31741
       8     H     0.40429  0.40429  0.00000  0.19143
       9     H     0.42045  0.42045  0.00000  0.15910
      10     C     3.15203  3.15203  0.00000 -0.30406
      11     H     0.42033  0.42033  0.00000  0.15935
      12     H     0.42546  0.42546  0.00000  0.14908
      13     C     3.23929  3.23929  0.00000 -0.47857
      14     H     0.42110  0.42110  0.00000  0.15780
      15     H     0.42269  0.42269  0.00000  0.15463
      16     H     0.42161  0.42161  0.00000  0.15679
      17     H     0.41917  0.41917  0.00000  0.16166
      18     H     0.42236  0.42236  0.00000  0.15528

   Total alpha = 25.00000, Total beta = 25.00000, Total charge =  0.00000
