  ==> Input File <==

--------------------------------------------------------------------------
set {
	reference rhf
	basis 6-31G*
}

set_num_threads( 1 )
memory 2 gb

molecule MOL {
0 1

H	 2.591676	 2.013956	 0.335017
O	 3.341076	 1.666752	 -0.126416
C	 3.569581	 0.339145	 0.272707
C	 2.539767	 -0.640285	 -0.279495
H	 4.553106	 0.084646	 -0.100901
H	 3.608576	 0.269204	 1.359154
C	 2.889293	 -1.197377	 -1.661648
H	 2.429238	 -1.459056	 0.426738
H	 1.578831	 -0.130704	 -0.327396
C	 1.810524	 -2.134809	 -2.211462
H	 3.835762	 -1.727696	 -1.603988
H	 3.034182	 -0.371881	 -2.358718
C	 2.070793	 -2.654002	 -3.630278
H	 1.691815	 -2.979538	 -1.535305
H	 0.858853	 -1.607548	 -2.207042
C	 3.279045	 -3.584933	 -3.764336
H	 1.183856	 -3.186491	 -3.967346
H	 2.190062	 -1.808524	 -4.306132
C	 3.435219	 -4.159727	 -5.173825
H	 3.182395	 -4.403378	 -3.052355
H	 4.190750	 -3.055578	 -3.498106
C	 4.644259	 -5.084274	 -5.312026
H	 2.532496	 -4.704118	 -5.442557
H	 3.522179	 -3.343250	 -5.887750
H	 4.571142	 -5.929403	 -4.633327
H	 4.726515	 -5.476782	 -6.320890
H	 5.567932	 -4.559013	 -5.085549

	symmetry c1
}
set optking {
	frozen_dihedral = ("
		14 10 7 4,
		14 10 13 16,
		10 7 4 8,
		10 13 16 20,
		20 16 19 22,
		4 3 2 1
	")
}

ee = energy('scf')
oeprop('DIPOLE', 'QUADRUPOLE', 'MULLIKEN_CHARGES')
f=open( 'psi4out.xyz', 'w' )
f.write( "27  " )
f.write( str(ee) + "\n" )
f.write( MOL.save_string_xyz() )
f.close()
--------------------------------------------------------------------------

    Molecular point group: c1

    Geometry (in Angstrom), charge = 0, multiplicity = 1:

       Center              X                  Y                   Z               Mass
    ------------   -----------------  -----------------  -----------------  -----------------
           H         -0.486558379547     3.900004225373     2.730438725117     1.007825032070
           O          0.262841620453     3.552800225373     2.269005725117    15.994914619560
           C          0.491346620453     2.225193225373     2.668128725117    12.000000000000
           C         -0.538467379547     1.245763225373     2.115926725117    12.000000000000
           H          1.474871620453     1.970694225373     2.294520725117     1.007825032070
           H          0.530341620453     2.155252225373     3.754575725117     1.007825032070
           C         -0.188941379547     0.688671225373     0.733773725117    12.000000000000
           H         -0.648996379547     0.426992225373     2.822159725117     1.007825032070
           H         -1.499403379547     1.755344225373     2.068025725117     1.007825032070
           C         -1.267710379547    -0.248760774627     0.183959725117    12.000000000000
           H          0.757527620453     0.158352225373     0.791433725117     1.007825032070
           H         -0.044052379547     1.514167225373     0.036703725117     1.007825032070
           C         -1.007441379547    -0.767953774627    -1.234856274883    12.000000000000
           H         -1.386419379547    -1.093489774627     0.860116725117     1.007825032070
           H         -2.219381379547     0.278500225373     0.188379725117     1.007825032070
           C          0.200810620453    -1.698884774627    -1.368914274883    12.000000000000
           H         -1.894378379547    -1.300442774627    -1.571924274883     1.007825032070
           H         -0.888172379547     0.077524225373    -1.910710274883     1.007825032070
           C          0.356984620453    -2.273678774627    -2.778403274883    12.000000000000
           H          0.104160620453    -2.517329774627    -0.656933274883     1.007825032070
           H          1.112515620453    -1.169529774627    -1.102684274883     1.007825032070
           C          1.566024620453    -3.198225774627    -2.916604274883    12.000000000000
           H         -0.545738379547    -2.818069774627    -3.047135274883     1.007825032070
           H          0.443944620453    -1.457201774627    -3.492328274883     1.007825032070
           H          1.492907620453    -4.043354774627    -2.237905274883     1.007825032070
           H          1.648280620453    -3.590733774627    -3.925468274883     1.007825032070
           H          2.489697620453    -2.672964774627    -2.690127274883     1.007825032070

  Charge       = 0
  Multiplicity = 1
  Basis Set: 6-31G*
  Basis Set:

    Orbital Energies (a.u.)
    -----------------------

    Doubly Occupied:

       1A    -20.551694     2A    -11.266607     3A    -11.215186
       4A    -11.213371     5A    -11.213249     6A    -11.212698
       7A    -11.212032     8A    -11.211074     9A    -11.207167
      10A     -1.358592    11A     -1.091741    12A     -1.059232
      13A     -1.009615    14A     -0.944560    15A     -0.882487
      16A     -0.821066    17A     -0.802125    18A     -0.775225
      19A     -0.685767    20A     -0.649734    21A     -0.635313
      22A     -0.608936    23A     -0.606887    24A     -0.582314
      25A     -0.573906    26A     -0.554884    27A     -0.535822
      28A     -0.521755    29A     -0.510175    30A     -0.490253
      31A     -0.480964    32A     -0.472289    33A     -0.464191
      34A     -0.457800    35A     -0.452142    36A     -0.440328
      37A     -0.418229

  @DF-RHF Final Energy:  -388.27898173046520

   => Energetics <=

    Nuclear Repulsion Energy =            456.1370759944466613
    One-Electron Energy =               -1430.4531770918501934
    Two-Electron Energy =                 586.0371193669377590
    DFT Exchange-Correlation Energy =       0.0000000000000000
    Empirical Dispersion Energy =           0.0000000000000000
    PCM Polarization Energy =               0.0000000000000000
    EFP Energy =                            0.0000000000000000
    Total Energy =                       -388.2789817304658300

  Mulliken Charges: (a.u.)
   Center  Symbol    Alpha    Beta     Spin     Total
       1     H     0.28289  0.28289  0.00000  0.43421
       2     O     4.36996  4.36996  0.00000 -0.73992
       3     C     2.99880  2.99880  0.00000  0.00239
       4     C     3.16221  3.16221  0.00000 -0.32442
       5     H     0.41556  0.41556  0.00000  0.16889
       6     H     0.42930  0.42930  0.00000  0.14140
       7     C     3.15830  3.15830  0.00000 -0.31660
       8     H     0.42355  0.42355  0.00000  0.15291
       9     H     0.42402  0.42402  0.00000  0.15196
      10     C     3.15331  3.15331  0.00000 -0.30662
      11     H     0.42152  0.42152  0.00000  0.15696
      12     H     0.41481  0.41481  0.00000  0.17039
      13     C     3.15317  3.15317  0.00000 -0.30634
      14     H     0.42504  0.42504  0.00000  0.14993
      15     H     0.42225  0.42225  0.00000  0.15549
      16     C     3.15276  3.15276  0.00000 -0.30552
      17     H     0.42235  0.42235  0.00000  0.15530
      18     H     0.42297  0.42297  0.00000  0.15407
      19     C     3.15113  3.15113  0.00000 -0.30226
      20     H     0.42520  0.42520  0.00000  0.14960
      21     H     0.42190  0.42190  0.00000  0.15619
      22     C     3.23915  3.23915  0.00000 -0.47829
      23     H     0.42344  0.42344  0.00000  0.15312
      24     H     0.42275  0.42275  0.00000  0.15449
      25     H     0.42222  0.42222  0.00000  0.15556
      26     H     0.41957  0.41957  0.00000  0.16087
      27     H     0.42187  0.42187  0.00000  0.15626

   Total alpha = 37.00000, Total beta = 37.00000, Total charge =  0.00000
