  ==> Input File <==

--------------------------------------------------------------------------
set {
	reference rhf
	basis 6-31G*
}

set_num_threads( 4 )
memory 2 gb

molecule MOL {
0 1

O	 -3.540897	 -0.150344	 0.758069
C	 -2.668563	 0.129746	 -0.000350
C	 -2.790651	 1.187322	 -1.067072
O	 -1.481751	 -0.454642	 0.000584
H	 -3.027748	 2.132809	 -0.594102
H	 -1.883450	 1.283149	 -1.645208
H	 -3.617306	 0.930456	 -1.718640
C	 -0.334255	 0.388708	 0.000906
C	 0.891947	 -0.504646	 0.000751
H	 -0.365390	 1.025305	 -0.873475
H	 -0.365484	 1.024911	 0.875569
C	 2.191998	 0.301789	 0.000897
H	 0.855148	 -1.151283	 -0.871571
H	 0.855132	 -1.151660	 0.872805
C	 3.441114	 -0.581407	 0.000108
H	 2.215074	 0.954890	 -0.869742
H	 2.215465	 0.953923	 0.872248
C	 4.739576	 0.224112	 -0.001102
H	 3.419457	 -1.233487	 -0.870178
H	 3.420834	 -1.233096	 0.870717
H	 4.804918	 0.861552	 -0.878265
H	 5.606527	 -0.429058	 -0.001824
H	 4.806469	 0.861674	 0.875853

	symmetry c1
}
set optking {
	frozen_dihedral = ("
		1 2 4 8
	")
}

ee = optimize('scf')
oeprop('DIPOLE', 'QUADRUPOLE', 'MULLIKEN_CHARGES')
f=open( 'psi4out.xyz', 'w' )
f.write( "23  " )
f.write( str(ee) + "\n" )
f.write( MOL.save_string_xyz() )
f.close()
--------------------------------------------------------------------------

    Molecular point group: c1
  Charge       = 0
  Multiplicity = 1
  Basis Set: 6-31G*
  Basis Set:
  @DF-RHF Final Energy:  -422.95379532299717
    Total Energy =                       -422.9537953229973937
    Molecular point group: c1
  Basis Set: 6-31G*
  Basis Set:
  Basis Set: 6-31G*
  Basis Set:
  @DF-RHF Final Energy:  -422.95363382589267
    Total Energy =                       -422.9536338258926662
  Basis Set: 6-31G*
  Basis Set:
  Basis Set: 6-31G*
  Basis Set:
  @DF-RHF Final Energy:  -422.95911686598419
    Total Energy =                       -422.9591168659842424
  Basis Set: 6-31G*
  Basis Set:
  Basis Set: 6-31G*
  Basis Set:
  @DF-RHF Final Energy:  -422.96009727178449
    Total Energy =                       -422.9600972717842069
  Basis Set: 6-31G*
  Basis Set:
  @DF-RHF Final Energy:  -422.96061122373470
    Total Energy =                       -422.9606112237352136
  @DF-RHF Final Energy:  -422.96107482480960
    Total Energy =                       -422.9610748248086338
  @DF-RHF Final Energy:  -422.96166171616420
    Total Energy =                       -422.9616617161643717
  Basis Set: 6-31G*
  Basis Set:
  @DF-RHF Final Energy:  -422.96192508196447
    Total Energy =                       -422.9619250819642957
  Basis Set: 6-31G*
  Basis Set:
  Basis Set: 6-31G*
  Basis Set:
  @DF-RHF Final Energy:  -422.96199212337973
    Total Energy =                       -422.9619921233796731
  Basis Set: 6-31G*
  Basis Set:
  Basis Set: 6-31G*
  Basis Set:
  @DF-RHF Final Energy:  -422.96200824567080
    Total Energy =                       -422.9620082456710861
  Basis Set: 6-31G*
  Basis Set:
  Charge       = 0
  Multiplicity = 1
  Basis Set: 6-31G*
  Basis Set:

    Orbital Energies (a.u.)
    -----------------------

    Doubly Occupied:

       1A    -20.589842     2A    -20.547924     3A    -11.375860
       4A    -11.295986     5A    -11.239609     6A    -11.228793
       7A    -11.228070     8A    -11.224599     9A    -11.215703
      10A     -1.458596    11A     -1.366154    12A     -1.096751
      13A     -1.036002    14A     -1.012696    15A     -0.940234
      16A     -0.846158    17A     -0.806880    18A     -0.777249
      19A     -0.698617    20A     -0.690625    21A     -0.658347
      22A     -0.649530    23A     -0.617276    24A     -0.593686
      25A     -0.580370    26A     -0.576808    27A     -0.568193
      28A     -0.544239    29A     -0.522849    30A     -0.502478
      31A     -0.490873    32A     -0.481683    33A     -0.475016
      34A     -0.474004    35A     -0.450549    36A     -0.432050

  @DF-RHF Final Energy:  -422.96200884042344

   => Energetics <=

    Nuclear Repulsion Energy =            449.3558116191728686
    One-Electron Energy =               -1466.0470402943569752
    Two-Electron Energy =                 593.7292198347607837
    DFT Exchange-Correlation Energy =       0.0000000000000000
    Empirical Dispersion Energy =           0.0000000000000000
    PCM Polarization Energy =               0.0000000000000000
    EFP Energy =                            0.0000000000000000
    Total Energy =                       -422.9620088404233229
    Molecular point group: c1
  Basis Set: 6-31G*
  Basis Set:

  -Total Gradient:
     Atom            X                  Y                   Z
    ------   -----------------  -----------------  -----------------
       1        0.001252155075     0.002386200657     0.002594300766
       2       -0.001826518880    -0.003524449601    -0.002115995562
       3        0.000022462782    -0.000009819935     0.000030763592
       4        0.000476310276     0.001519978996    -0.003633762102
       5       -0.000017141985    -0.000022550157    -0.000004860121
       6       -0.000020755520    -0.000005860888    -0.000003292668
       7       -0.000021951165     0.000005858443    -0.000027423169
       8        0.000097399680    -0.000365281887     0.003170456419
       9        0.000020675444    -0.000003184422     0.000010283897
      10       -0.000021952709     0.000001969663    -0.000014849340
      11        0.000035927492     0.000013093394     0.000001392233
      12        0.000007662142    -0.000004808798    -0.000010245490
      13        0.000000636862    -0.000001663600     0.000002006446
      14       -0.000005707715     0.000005683898    -0.000002601478
      15       -0.000001367886     0.000002756629     0.000000834603
      16        0.000003168373     0.000003893725     0.000001657346
      17       -0.000000375031    -0.000002758267     0.000004552833
      18        0.000000334522    -0.000000206658    -0.000005070059
      19       -0.000001424165    -0.000001322463     0.000001497363
      20       -0.000000047863     0.000002233701     0.000000862112
      21        0.000000444093     0.000001486912     0.000000170655
      22        0.000000407931     0.000000003657    -0.000001243597
      23       -0.000000341735    -0.000001252996     0.000000565320

  **** Optimization is complete! (in 11 steps) ****
    Final optimized geometry and variables:
    Molecular point group: c1

    Geometry (in Angstrom), charge = 0, multiplicity = 1:

    O           -3.497577601611    -0.422908195494     0.746666793604
    C           -2.715623355933     0.027153744004    -0.016961138057
    C           -3.028449827973     1.184810384988    -0.935866294452
    O           -1.483864469628    -0.497868274879    -0.120781673913
    H           -2.537246590196     2.088163423207    -0.589007388883
    H           -2.681251174925     0.980657424066    -1.941960516312
    H           -4.095426700369     1.350602169876    -0.937069885655
    C           -0.346446586953     0.346685606007    -0.067847666580
    C            0.882580047619    -0.540532857018     0.003627988188
    H           -0.307752096731     0.981087175249    -0.947564568664
    H           -0.410117942637     0.983671229572     0.808854791289
    C            2.180832580926     0.266055145225     0.064090746637
    H            0.886066483680    -1.192862790497    -0.864764519813
    H            0.794291051555    -1.179341886624     0.876674107306
    C            3.426831679470    -0.618752889020     0.136418366816
    H            2.251675898076     0.911452420978    -0.810115140978
    H            2.160767221946     0.925412836678     0.930328925429
    C            4.724733126687     0.185299504139     0.196913882468
    H            3.449509970101    -1.277977756027    -0.728284694631
    H            3.359030239223    -1.262784082832     1.010013353366
    H            4.837702577862     0.815222849950    -0.680928741657
    H            5.589098277917    -0.469152457978     0.247300730753
    H            4.746713898285     0.829879135651     1.071030690675

  Mulliken Charges: (a.u.)
   Center  Symbol    Alpha    Beta     Spin     Total
       1     O     4.25323  4.25323  0.00000 -0.50646
       2     C     2.62207  2.62207  0.00000  0.75587
       3     C     3.30196  3.30196  0.00000 -0.60393
       4     O     4.31306  4.31306  0.00000 -0.62612
       5     H     0.40323  0.40323  0.00000  0.19353
       6     H     0.40212  0.40212  0.00000  0.19576
       7     H     0.39088  0.39088  0.00000  0.21824
       8     C     2.99574  2.99574  0.00000  0.00852
       9     C     3.16233  3.16233  0.00000 -0.32465
      10     H     0.42179  0.42179  0.00000  0.15642
      11     H     0.41797  0.41797  0.00000  0.16407
      12     C     3.16122  3.16122  0.00000 -0.32244
      13     H     0.41143  0.41143  0.00000  0.17713
      14     H     0.40766  0.40766  0.00000  0.18467
      15     C     3.15178  3.15178  0.00000 -0.30357
      16     H     0.42266  0.42266  0.00000  0.15467
      17     H     0.42141  0.42141  0.00000  0.15718
      18     C     3.24004  3.24004  0.00000 -0.48009
      19     H     0.42053  0.42053  0.00000  0.15895
      20     H     0.41958  0.41958  0.00000  0.16083
      21     H     0.42140  0.42140  0.00000  0.15721
      22     H     0.41703  0.41703  0.00000  0.16595
      23     H     0.42087  0.42087  0.00000  0.15826

   Total alpha = 36.00000, Total beta = 36.00000, Total charge = -0.00000
