  ==> Input File <==

--------------------------------------------------------------------------
set {
	reference rhf
	basis 6-31G*
}

set_num_threads( 1 )
memory 2 gb

molecule MOL {
0 1

O	 -1.381589	 -0.194151	 -0.991025
C	 -1.083277	 0.139568	 0.115197
C	 0.323299	 -0.082943	 0.642902
C	 -2.087705	 0.773335	 1.051835
C	 1.355627	 -0.005344	 -0.493127
H	 0.396251	 -1.044647	 1.143147
H	 0.528637	 0.693580	 1.371677
C	 2.786168	 -0.195604	 0.007473
H	 1.132807	 -0.760304	 -1.243899
H	 1.259610	 0.958506	 -0.981915
H	 3.495561	 -0.130713	 -0.811210
H	 2.912696	 -1.165395	 0.480041
H	 3.049284	 0.565503	 0.735850
H	 -2.102119	 0.257492	 2.007537
H	 -3.072997	 0.751262	 0.607484
H	 -1.803716	 1.803848	 1.248297

	symmetry c1
}
set optking {
	frozen_dihedral = ("
		9 5 3 2
	")
}

ee = energy('scf')
oeprop('DIPOLE', 'QUADRUPOLE', 'MULLIKEN_CHARGES')
f=open( 'psi4out.xyz', 'w' )
f.write( "16  " )
f.write( str(ee) + "\n" )
f.write( MOL.save_string_xyz() )
f.close()
--------------------------------------------------------------------------

    Molecular point group: c1

    Geometry (in Angstrom), charge = 0, multiplicity = 1:

       Center              X                  Y                   Z               Mass
    ------------   -----------------  -----------------  -----------------  -----------------
           O         -1.373134726250    -0.268354648209    -1.044847436806    15.994914619560
           C         -1.074822726250     0.065364351791     0.061374563194    12.000000000000
           C          0.331753273750    -0.157146648209     0.589079563194    12.000000000000
           C         -2.079250726250     0.699131351791     0.998012563194    12.000000000000
           C          1.364081273750    -0.079547648209    -0.546949436806    12.000000000000
           H          0.404705273750    -1.118850648209     1.089324563194     1.007825032070
           H          0.537091273750     0.619376351791     1.317854563194     1.007825032070
           C          2.794622273750    -0.269807648209    -0.046349436806    12.000000000000
           H          1.141261273750    -0.834507648209    -1.297721436806     1.007825032070
           H          1.268064273750     0.884302351791    -1.035737436806     1.007825032070
           H          3.504015273750    -0.204916648209    -0.865032436806     1.007825032070
           H          2.921150273750    -1.239598648209     0.426218563194     1.007825032070
           H          3.057738273750     0.491299351791     0.682027563194     1.007825032070
           H         -2.093664726250     0.183288351791     1.953714563194     1.007825032070
           H         -3.064542726250     0.677058351791     0.553661563194     1.007825032070
           H         -1.795261726250     1.729644351791     1.194474563194     1.007825032070

  Charge       = 0
  Multiplicity = 1
  Basis Set: 6-31G*
  Basis Set:

    Orbital Energies (a.u.)
    -----------------------

    Doubly Occupied:

       1A    -20.549616     2A    -11.326151     3A    -11.231256
       4A    -11.229528     5A    -11.221045     6A    -11.213104
       7A     -1.395593     8A     -1.075913     9A     -1.015283
      10A     -0.947173    11A     -0.821954    12A     -0.732861
      13A     -0.655262    14A     -0.651545    15A     -0.621604
      16A     -0.599230    17A     -0.568836    18A     -0.559168
      19A     -0.547484    20A     -0.502596    21A     -0.490710
      22A     -0.479057    23A     -0.475065    24A     -0.400684

  @DF-RHF Final Energy:  -270.03052972492685

   => Energetics <=

    Nuclear Repulsion Energy =            237.2027587189802773
    One-Electron Energy =                -835.8451895273120726
    Two-Electron Energy =                 328.6119010834046890
    DFT Exchange-Correlation Energy =       0.0000000000000000
    Empirical Dispersion Energy =           0.0000000000000000
    PCM Polarization Energy =               0.0000000000000000
    EFP Energy =                            0.0000000000000000
    Total Energy =                       -270.0305297249271348

  Mulliken Charges: (a.u.)
   Center  Symbol    Alpha    Beta     Spin     Total
       1     O     4.26134  4.26134  0.00000 -0.52267
       2     C     2.73612  2.73612  0.00000  0.52776
       3     C     3.20665  3.20665  0.00000 -0.41331
       4     C     3.28785  3.28785  0.00000 -0.57570
       5     C     3.15204  3.15204  0.00000 -0.30408
       6     H     0.40272  0.40272  0.00000  0.19457
       7     H     0.41589  0.41589  0.00000  0.16822
       8     C     3.24094  3.24094  0.00000 -0.48188
       9     H     0.40456  0.40456  0.00000  0.19088
      10     H     0.41799  0.41799  0.00000  0.16402
      11     H     0.41601  0.41601  0.00000  0.16797
      12     H     0.42172  0.42172  0.00000  0.15655
      13     H     0.42320  0.42320  0.00000  0.15361
      14     H     0.40902  0.40902  0.00000  0.18196
      15     H     0.39672  0.39672  0.00000  0.20656
      16     H     0.40723  0.40723  0.00000  0.18554

   Total alpha = 24.00000, Total beta = 24.00000, Total charge = -0.00000
