  ==> Input File <==

--------------------------------------------------------------------------
set {
	reference rhf
	basis 6-31G*
}

set_num_threads( 4 )
memory 2 gb

molecule MOL {
0 1

H	 2.892250	 -1.201461	 -0.294203
N	 3.092854	 -0.246221	 -0.068770
C	 1.865559	 0.531981	 0.018834
H	 3.680691	 0.106416	 -0.800156
C	 0.645745	 -0.382037	 -0.029944
H	 1.841966	 1.207024	 -0.831236
H	 1.815756	 1.155410	 0.915079
C	 -0.679275	 0.379305	 0.025956
H	 0.698998	 -0.976915	 -0.937203
H	 0.693479	 -1.083846	 0.802235
C	 -1.903357	 -0.536963	 -0.023547
H	 -0.726309	 1.082987	 -0.803784
H	 -0.717680	 0.977832	 0.934877
C	 -3.225172	 0.228290	 0.028445
H	 -1.867824	 -1.134999	 -0.931459
H	 -1.860449	 -1.239604	 0.805977
H	 -3.313397	 0.915643	 -0.808262
H	 -4.073500	 -0.448134	 -0.008893
H	 -3.306061	 0.809945	 0.942516

	symmetry c1
}
set optking {
	frozen_dihedral = ("
		1 2 3 6
	")
}

ee = optimize('scf')
oeprop('DIPOLE', 'QUADRUPOLE', 'MULLIKEN_CHARGES')
f=open( 'psi4out.xyz', 'w' )
f.write( "19  " )
f.write( str(ee) + "\n" )
f.write( MOL.save_string_xyz() )
f.close()
--------------------------------------------------------------------------

    Molecular point group: c1
  Charge       = 0
  Multiplicity = 1
  Basis Set: 6-31G*
  Basis Set:
  @DF-RHF Final Energy:  -251.34604313282949
    Total Energy =                       -251.3460431328290952
    Molecular point group: c1
  Basis Set: 6-31G*
  Basis Set:
  Basis Set: 6-31G*
  Basis Set:
  @DF-RHF Final Energy:  -251.34744651937214
    Total Energy =                       -251.3474465193723972
  Basis Set: 6-31G*
  Basis Set:
  Basis Set: 6-31G*
  Basis Set:
  @DF-RHF Final Energy:  -251.34766359098677
    Total Energy =                       -251.3476635909865422
  Basis Set: 6-31G*
  Basis Set:
  Basis Set: 6-31G*
  Basis Set:
  @DF-RHF Final Energy:  -251.34766891810833
    Total Energy =                       -251.3476689181082975
  Basis Set: 6-31G*
  Basis Set:
  Basis Set: 6-31G*
  Basis Set:
  @DF-RHF Final Energy:  -251.34767044002328
    Total Energy =                       -251.3476704400233075
  Basis Set: 6-31G*
  Basis Set:
  Charge       = 0
  Multiplicity = 1
  Basis Set: 6-31G*
  Basis Set:

    Orbital Energies (a.u.)
    -----------------------

    Doubly Occupied:

       1A    -15.528008     2A    -11.239049     3A    -11.216804
       4A    -11.216465     5A    -11.215800     6A    -11.209428
       7A     -1.172715     8A     -1.075764     9A     -1.000552
      10A     -0.901518    11A     -0.817886    12A     -0.793805
      13A     -0.661423    14A     -0.645624    15A     -0.608188
      16A     -0.597953    17A     -0.565231    18A     -0.547617
      19A     -0.537028    20A     -0.497782    21A     -0.488302
      22A     -0.468422    23A     -0.465014    24A     -0.452909
      25A     -0.372791

  @DF-RHF Final Energy:  -251.34767072758223

   => Energetics <=

    Nuclear Repulsion Energy =            245.6663291321374913
    One-Electron Energy =                -825.4358446387693675
    Two-Electron Energy =                 328.4218447790497066
    DFT Exchange-Correlation Energy =       0.0000000000000000
    Empirical Dispersion Energy =           0.0000000000000000
    PCM Polarization Energy =               0.0000000000000000
    EFP Energy =                            0.0000000000000000
    Total Energy =                       -251.3476707275822264
    Molecular point group: c1
  Basis Set: 6-31G*
  Basis Set:

  -Total Gradient:
     Atom            X                  Y                   Z
    ------   -----------------  -----------------  -----------------
       1       -0.000275653399    -0.000365549808     0.001856886568
       2        0.000524071688     0.000817796848    -0.002070649355
       3       -0.001022603121    -0.001693577710    -0.000774244695
       4       -0.000009860086     0.000002247082     0.000003237405
       5        0.000041866236     0.000002016536    -0.000003567347
       6        0.000763655020     0.001239848761     0.000970573349
       7        0.000006070676     0.000006306137     0.000012741452
       8       -0.000028834517    -0.000005318099     0.000009217152
       9       -0.000005743415     0.000006661583     0.000006890671
      10       -0.000010121024    -0.000005401063    -0.000005732555
      11       -0.000007058492    -0.000001278378    -0.000006264382
      12        0.000002895897    -0.000010064373    -0.000002482609
      13        0.000006847023     0.000001364866     0.000002957382
      14        0.000007184040     0.000004549113     0.000001583733
      15        0.000001755981    -0.000004395652    -0.000001831340
      16        0.000001583627     0.000004011405     0.000001270355
      17       -0.000000911244     0.000001318230    -0.000001893071
      18        0.000006238266    -0.000002166824    -0.000000535545
      19       -0.000001383152     0.000001631345     0.000001842832

  **** Optimization is complete! (in 6 steps) ****
    Final optimized geometry and variables:
    Molecular point group: c1

    Geometry (in Angstrom), charge = 0, multiplicity = 1:

    H            2.968066910849    -1.192492263995    -0.214752476484
    N            3.117015123985    -0.228938994341     0.007228163814
    C            1.868052843102     0.528396774608    -0.013346556940
    H            3.789107803307     0.133991688692    -0.636675886192
    C            0.643459128543    -0.381199689553    -0.049230609160
    H            1.836692591526     1.213946187389    -0.859005648385
    H            1.819441738080     1.149053937180     0.877886177557
    C           -0.678032610617     0.383631646004     0.032207919230
    H            0.666022749809    -0.973371958259    -0.963097638236
    H            0.708094352720    -1.084372670706     0.779213602097
    C           -1.905766879631    -0.528395547499    -0.003024058529
    H           -0.735989194602     1.093915058061    -0.791001138868
    H           -0.696349180662     0.973905484813     0.946411591007
    C           -3.223319428933     0.241406124581     0.079909921729
    H           -1.889868840196    -1.118739003784    -0.916736739512
    H           -1.850043124870    -1.237943398689     0.819647597900
    H           -3.324560608853     0.936074603376    -0.749220049224
    H           -4.074588468675    -0.431755313052     0.052855618464
    H           -3.284699319661     0.815393358053     1.000178968453

  Mulliken Charges: (a.u.)
   Center  Symbol    Alpha    Beta     Spin     Total
       1     H     0.33155  0.33155  0.00000  0.33691
       2     N     3.93358  3.93358  0.00000 -0.86715
       3     C     3.04364  3.04364  0.00000 -0.08728
       4     H     0.33144  0.33144  0.00000  0.33712
       5     C     3.16846  3.16846  0.00000 -0.33691
       6     H     0.43062  0.43062  0.00000  0.13876
       7     H     0.42112  0.42112  0.00000  0.15777
       8     C     3.15375  3.15375  0.00000 -0.30751
       9     H     0.42520  0.42520  0.00000  0.14961
      10     H     0.41767  0.41767  0.00000  0.16466
      11     C     3.15133  3.15133  0.00000 -0.30265
      12     H     0.42356  0.42356  0.00000  0.15289
      13     H     0.42124  0.42124  0.00000  0.15751
      14     C     3.23948  3.23948  0.00000 -0.47895
      15     H     0.42319  0.42319  0.00000  0.15361
      16     H     0.42213  0.42213  0.00000  0.15574
      17     H     0.42180  0.42180  0.00000  0.15640
      18     H     0.41904  0.41904  0.00000  0.16193
      19     H     0.42122  0.42122  0.00000  0.15756

   Total alpha = 25.00000, Total beta = 25.00000, Total charge =  0.00000
