  ==> Input File <==

--------------------------------------------------------------------------
set {
	reference rhf
	basis 6-31G*
}

set_num_threads( 1 )
memory 2 gb

molecule MOL {
0 1

H	 -2.386958	 1.544269	 -1.829763
O	 -2.462814	 2.015903	 -1.011436
C	 -1.233099	 1.978096	 -0.347859
C	 -0.793441	 0.596080	 0.058728
H	 -1.346146	 2.598413	 0.533974
H	 -0.452413	 2.437559	 -0.953210
C	 -1.530462	 -0.493172	 -0.025500
H	 0.210870	 0.534304	 0.448631
H	 -1.092586	 -1.461565	 -0.186463
H	 -2.602122	 -0.450675	 0.050101

	symmetry c1
}
set optking {
	frozen_dihedral = ("
		5 3 2 1,
		5 3 4 7
	")
}

ee = energy('scf')
oeprop('DIPOLE', 'QUADRUPOLE', 'MULLIKEN_CHARGES')
f=open( 'psi4out.xyz', 'w' )
f.write( "10  " )
f.write( str(ee) + "\n" )
f.write( MOL.save_string_xyz() )
f.close()
--------------------------------------------------------------------------

    Molecular point group: c1

    Geometry (in Angstrom), charge = 0, multiplicity = 1:

       Center              X                  Y                   Z               Mass
    ------------   -----------------  -----------------  -----------------  -----------------
           H         -0.839697382279     0.468161990480    -1.452358009508     1.007825032070
           O         -0.915553382279     0.939795990480    -0.634031009508    15.994914619560
           C          0.314161617721     0.901988990480     0.029545990492    12.000000000000
           C          0.753819617721    -0.480027009520     0.436132990492    12.000000000000
           H          0.201114617721     1.522305990480     0.911378990492     1.007825032070
           H          1.094847617721     1.361451990480    -0.575805009508     1.007825032070
           C          0.016798617721    -1.569279009520     0.351904990492    12.000000000000
           H          1.758130617721    -0.541803009520     0.826035990492     1.007825032070
           H          0.454674617721    -2.537672009520     0.190941990492     1.007825032070
           H         -1.054861382279    -1.526782009520     0.427505990492     1.007825032070

  Charge       = 0
  Multiplicity = 1
  Basis Set: 6-31G*
  Basis Set:

    Orbital Energies (a.u.)
    -----------------------

    Doubly Occupied:

       1A    -20.558731     2A    -11.278123     3A    -11.232557
       4A    -11.218918     5A     -1.367484     6A     -1.058258
       7A     -0.927909     8A     -0.769074     9A     -0.686261
      10A     -0.656618    11A     -0.616322    12A     -0.572084
      13A     -0.539910    14A     -0.500800    15A     -0.446699
      16A     -0.345536

  @DF-RHF Final Energy:  -191.89704390516795

   => Energetics <=

    Nuclear Repulsion Energy =            119.3114089095821129
    One-Electron Energy =                -496.8663267225683171
    Two-Electron Energy =                 185.6578739078182139
    DFT Exchange-Correlation Energy =       0.0000000000000000
    Empirical Dispersion Energy =           0.0000000000000000
    PCM Polarization Energy =               0.0000000000000000
    EFP Energy =                            0.0000000000000000
    Total Energy =                       -191.8970439051680046

  Mulliken Charges: (a.u.)
   Center  Symbol    Alpha    Beta     Spin     Total
       1     H     0.28155  0.28155  0.00000  0.43690
       2     O     4.36614  4.36614  0.00000 -0.73227
       3     C     3.00048  3.00048  0.00000 -0.00097
       4     C     3.09426  3.09426  0.00000 -0.18851
       5     H     0.41085  0.41085  0.00000  0.17831
       6     H     0.42264  0.42264  0.00000  0.15472
       7     C     3.20165  3.20165  0.00000 -0.40330
       8     H     0.40957  0.40957  0.00000  0.18086
       9     H     0.41046  0.41046  0.00000  0.17909
      10     H     0.40241  0.40241  0.00000  0.19518

   Total alpha = 16.00000, Total beta = 16.00000, Total charge =  0.00000
