  ==> Input File <==

--------------------------------------------------------------------------
set {
	reference rhf
	basis 6-31G*
}

set_num_threads( 1 )
memory 2 gb

molecule MOL {
0 1

H	 -2.153054	 -2.250733	 0.000000
O	 -2.462445	 -1.355403	 0.000000
C	 -1.434260	 -0.483044	 0.000000
C	 -1.747402	 0.872187	 0.000000
C	 -0.112826	 -0.887672	 0.000000
H	 -2.781042	 1.162947	 0.000000
C	 -0.737782	 1.812486	 0.000000
H	 0.142965	 -1.932242	 0.000000
C	 0.894804	 0.073633	 0.000000
H	 -0.988012	 2.857452	 0.000000
C	 0.595063	 1.425424	 0.000000
C	 2.274807	 -0.357748	 0.000000
H	 1.382498	 2.154482	 0.000000
N	 3.359964	 -0.694405	 0.000888

	symmetry c1
}
set optking {
	frozen_dihedral = ("
		5 3 2 1
	")
}

ee = energy('scf')
oeprop('DIPOLE', 'QUADRUPOLE', 'MULLIKEN_CHARGES')
f=open( 'psi4out.xyz', 'w' )
f.write( "14  " )
f.write( str(ee) + "\n" )
f.write( MOL.save_string_xyz() )
f.close()
--------------------------------------------------------------------------

    Molecular point group: c1

    Geometry (in Angstrom), charge = 0, multiplicity = 1:

       Center              X                  Y                   Z               Mass
    ------------   -----------------  -----------------  -----------------  -----------------
           H         -2.153230635053    -2.251298578766    -0.000104460948     1.007825032070
           O         -2.462621635053    -1.355968578766    -0.000104460948    15.994914619560
           C         -1.434436635053    -0.483609578766    -0.000104460948    12.000000000000
           C         -1.747578635053     0.871621421234    -0.000104460948    12.000000000000
           C         -0.113002635053    -0.888237578766    -0.000104460948    12.000000000000
           H         -2.781218635053     1.162381421234    -0.000104460948     1.007825032070
           C         -0.737958635053     1.811920421234    -0.000104460948    12.000000000000
           H          0.142788364947    -1.932807578766    -0.000104460948     1.007825032070
           C          0.894627364947     0.073067421234    -0.000104460948    12.000000000000
           H         -0.988188635053     2.856886421234    -0.000104460948     1.007825032070
           C          0.594886364947     1.424858421234    -0.000104460948    12.000000000000
           C          2.274630364947    -0.358313578766    -0.000104460948    12.000000000000
           H          1.382321364947     2.153916421234    -0.000104460948     1.007825032070
           N          3.359787364947    -0.694970578766     0.000783539052    14.003074004780

  Charge       = 0
  Multiplicity = 1
  Basis Set: 6-31G*
  Basis Set:

    Orbital Energies (a.u.)
    -----------------------

    Doubly Occupied:

       1A    -20.613357     2A    -15.576094     3A    -11.326474
       4A    -11.295200     5A    -11.277353     6A    -11.263921
       7A    -11.262494     8A    -11.259241     9A    -11.253928
      10A     -1.433723    11A     -1.233857    12A     -1.182278
      13A     -1.063262    14A     -1.039158    15A     -0.896233
      16A     -0.867784    17A     -0.778133    18A     -0.726542
      19A     -0.700216    20A     -0.664104    21A     -0.627034
      22A     -0.613998    23A     -0.592983    24A     -0.562275
      25A     -0.550727    26A     -0.538997    27A     -0.527033
      28A     -0.473334    29A     -0.473314    30A     -0.363601
      31A     -0.336669

  @DF-RHF Final Energy:  -397.29196222434052

   => Energetics <=

    Nuclear Repulsion Energy =            379.4034198305276959
    One-Electron Energy =               -1290.6441306126121162
    Two-Electron Energy =                 513.9487485577427606
    DFT Exchange-Correlation Energy =       0.0000000000000000
    Empirical Dispersion Energy =           0.0000000000000000
    PCM Polarization Energy =               0.0000000000000000
    EFP Energy =                            0.0000000000000000
    Total Energy =                       -397.2919622243416597

  Mulliken Charges: (a.u.)
   Center  Symbol    Alpha    Beta     Spin     Total
       1     H     0.26830  0.26830  0.00000  0.46339
       2     O     4.37596  4.37596  0.00000 -0.75191
       3     C     2.79152  2.79152  0.00000  0.41696
       4     C     3.11408  3.11408  0.00000 -0.22817
       5     C     3.13451  3.13451  0.00000 -0.26902
       6     H     0.38292  0.38292  0.00000  0.23416
       7     C     3.09575  3.09575  0.00000 -0.19151
       8     H     0.38536  0.38536  0.00000  0.22928
       9     C     2.99112  2.99112  0.00000  0.01776
      10     H     0.38856  0.38856  0.00000  0.22287
      11     C     3.09887  3.09887  0.00000 -0.19773
      12     C     2.86663  2.86663  0.00000  0.26674
      13     H     0.38124  0.38124  0.00000  0.23752
      14     N     3.72517  3.72517  0.00000 -0.45034

   Total alpha = 31.00000, Total beta = 31.00000, Total charge = -0.00000
