                              Psi4 1.0.54 Driver

  ==> Input File <==

--------------------------------------------------------------------------
set {
	reference rhf
	basis cc-pvtz
}

set_num_threads( 4 )
memory 2 gb

molecule MOL {
0 1

H	 1.400030	 -1.796087	 0.822743
O	 0.727235	 -1.225759	 0.500058
C	 1.135873	 0.113391	 0.608264
C	 0.027642	 1.012027	 0.090274
H	 2.034296	 0.283338	 0.020282
H	 1.373310	 0.355140	 1.640563
C	 -1.138737	 0.285728	 -0.581921
H	 0.464661	 1.708096	 -0.618252
H	 -0.340737	 1.603071	 0.925246
C	 -1.933983	 -0.631436	 0.343653
H	 -0.763151	 -0.285569	 -1.422081
H	 -1.808359	 1.035291	 -0.992333
H	 -2.789188	 -1.049673	 -0.174718
H	 -1.335629	 -1.461368	 0.700418
H	 -2.305435	 -0.092167	 1.209725

	symmetry c1
}
set optking {
	frozen_dihedral = ("
		2 3 4 8
	")
}

ee,wfn = optimize('scf', return_wfn=True)
oeprop( wfn, 'DIPOLE', 'QUADRUPOLE', 'MULLIKEN_CHARGES')
f=open( 'psi4out.xyz', 'w' )
f.write( "15  " )
f.write( str(ee) + "\n" )
f.write( MOL.save_string_xyz() )
f.close()
--------------------------------------------------------------------------

    Molecular point group: c1
  Charge       = 0
  Multiplicity = 1
  Basis Set: CC-PVTZ
  Basis Set:
  @DF-RHF Final Energy:  -232.22296318233450
    Total Energy =                       -232.2229631823345244
    Molecular point group: c1
  Basis Set: CC-PVTZ
  Basis Set:
  Basis Set: CC-PVTZ
  Basis Set:
  @DF-RHF Final Energy:  -232.22723040865117
    Total Energy =                       -232.2272304086511667
  Basis Set: CC-PVTZ
  Basis Set:
  Basis Set: CC-PVTZ
  Basis Set:
  @DF-RHF Final Energy:  -232.22857363339890
    Total Energy =                       -232.2285736333989234
  Basis Set: CC-PVTZ
  Basis Set:
  Basis Set: CC-PVTZ
  Basis Set:
  @DF-RHF Final Energy:  -232.22882457450595
    Total Energy =                       -232.2288245745059498
  Basis Set: CC-PVTZ
  Basis Set:
  Basis Set: CC-PVTZ
  Basis Set:
  @DF-RHF Final Energy:  -232.22886832919875
    Total Energy =                       -232.2288683291988036
  Basis Set: CC-PVTZ
  Basis Set:
  Basis Set: CC-PVTZ
  Basis Set:
  @DF-RHF Final Energy:  -232.22887373209377
    Total Energy =                       -232.2288737320938594
  Basis Set: CC-PVTZ
  Basis Set:
  Charge       = 0
  Multiplicity = 1
  Basis Set: CC-PVTZ
  Basis Set:

    Orbital Energies (a.u.)
    -----------------------

    Doubly Occupied:

       1A    -20.547537     2A    -11.267685     3A    -11.211943
       4A    -11.205674     5A    -11.192592     6A     -1.365552
       7A     -1.058470     8A     -0.968358     9A     -0.863328
      10A     -0.775618    11A     -0.705981    12A     -0.649148
      13A     -0.608095    14A     -0.576326    15A     -0.551405
      16A     -0.533799    17A     -0.508158    18A     -0.476798
      19A     -0.461766    20A     -0.447924    21A     -0.427061

  @DF-RHF Final Energy:  -232.22887431327175

   => Energetics <=

    Nuclear Repulsion Energy =            193.0097078993594266
    One-Electron Energy =                -697.6707297598597961
    Two-Electron Energy =                 272.4321475472287375
    DFT Exchange-Correlation Energy =       0.0000000000000000
    Empirical Dispersion Energy =           0.0000000000000000
    PCM Polarization Energy =               0.0000000000000000
    EFP Energy =                            0.0000000000000000
    Total Energy =                       -232.2288743132716036
    Molecular point group: c1
  Basis Set: CC-PVTZ
  Basis Set:

  -Total Gradient:
     Atom            X                  Y                   Z
    ------   -----------------  -----------------  -----------------
       1        0.000010656802     0.000012118670     0.000001827600
       2        0.000399595012     0.000034660404    -0.000902994407
       3       -0.000566574157    -0.000235607748     0.000994671682
       4        0.000233155038     0.001004381696     0.000863177035
       5        0.000002716722     0.000006506021    -0.000004288135
       6       -0.000007079184    -0.000000890919     0.000008684614
       7       -0.000039449722    -0.000007225966    -0.000029781315
       8       -0.000062632357    -0.000817219602    -0.000954647441
       9       -0.000011106422    -0.000016276818    -0.000012247813
      10        0.000022366511     0.000035532364     0.000016716611
      11        0.000017116756     0.000004984440     0.000012919929
      12        0.000002929387     0.000020436125    -0.000000147083
      13       -0.000016120804    -0.000023334320    -0.000002327532
      14        0.000018578150    -0.000025568928     0.000014262230
      15       -0.000004151734     0.000007504579    -0.000005825974

  **** Optimization is complete! (in 7 steps) ****
    Final optimized geometry and variables:
    Molecular point group: c1

    Geometry (in Angstrom), charge = 0, multiplicity = 1:

    H            1.912281672600    -1.500198843156     0.680137908188
    O            1.156777509962    -1.054240864678     0.345061407616
    C            1.339664350113     0.333981365185     0.461644585324
    C            0.132259654084     1.111930756654    -0.101984673056
    H            2.235134311083     0.623827019445    -0.080433559369
    H            1.494666525666     0.601542159197     1.502479597529
    C           -0.921800054755     0.290567072399    -0.854201577029
    H            0.516029400961     1.865418955532    -0.780538829890
    H           -0.358109740483     1.648768943262     0.703123282693
    C           -1.880201437191    -0.482606129792     0.047724384702
    H           -0.434656210250    -0.391136125023    -1.540205248865
    H           -1.500024798160     0.980572557331    -1.461518362989
    H           -2.614486577836    -1.019126969102    -0.543526244473
    H           -1.352766295688    -1.200573936890     0.659423854066
    H           -2.419962041062     0.192822036144     0.704859465920

  Mulliken Charges: (a.u.)
   Center  Symbol    Alpha    Beta     Spin     Total
       1     H     0.39845  0.39845  0.00000  0.20311
       2     O     4.19108  4.19108  0.00000 -0.38217
       3     C     2.96798  2.96798  0.00000  0.06403
       4     C     3.10877  3.10877  0.00000 -0.21753
       5     H     0.46932  0.46932  0.00000  0.06137
       6     H     0.47016  0.47016  0.00000  0.05969
       7     C     3.08305  3.08305  0.00000 -0.16609
       8     H     0.44818  0.44818  0.00000  0.10364
       9     H     0.45401  0.45401  0.00000  0.09198
      10     C     3.14806  3.14806  0.00000 -0.29612
      11     H     0.45058  0.45058  0.00000  0.09884
      12     H     0.45061  0.45061  0.00000  0.09878
      13     H     0.45218  0.45218  0.00000  0.09564
      14     H     0.44702  0.44702  0.00000  0.10597
      15     H     0.46056  0.46056  0.00000  0.07887

   Total alpha = 21.00000, Total beta = 21.00000, Total charge =  0.00000

*** Psi4 exiting successfully. Buy a developer a beer!
