                              Psi4 1.0.54 Driver

  ==> Input File <==

--------------------------------------------------------------------------
set {
	reference rhf
	basis cc-pvtz
}

set_num_threads( 4 )
memory 2 gb

molecule MOL {
0 1

H	 2.816902	 1.712131	 1.374908
N	 1.990118	 1.155949	 1.322886
C	 1.860978	 0.530248	 0.016256
H	 1.216591	 1.760326	 1.506553
C	 0.644130	 -0.381765	 -0.031064
H	 2.755627	 -0.057666	 -0.159436
H	 1.798108	 1.254836	 -0.796747
C	 -0.678115	 0.376691	 0.025731
H	 0.693998	 -0.977147	 -0.936845
H	 0.693309	 -1.082142	 0.800523
C	 -1.900706	 -0.535531	 -0.022488
H	 -0.725296	 1.079516	 -0.802982
H	 -0.715474	 0.974884	 0.933278
C	 -3.220513	 0.226854	 0.028039
H	 -1.865036	 -1.134397	 -0.928236
H	 -1.857948	 -1.236381	 0.806820
H	 -3.309098	 0.911849	 -0.808725
H	 -4.066838	 -0.449485	 -0.008086
H	 -3.301685	 0.809374	 0.939860

	symmetry c1
}
set optking {
	frozen_dihedral = ("
		6 3 5 9
	")
}

ee,wfn = optimize('scf', return_wfn=True)
oeprop( wfn, 'DIPOLE', 'QUADRUPOLE', 'MULLIKEN_CHARGES')
f=open( 'psi4out.xyz', 'w' )
f.write( "19  " )
f.write( str(ee) + "\n" )
f.write( MOL.save_string_xyz() )
f.close()
--------------------------------------------------------------------------

    Molecular point group: c1
  Charge       = 0
  Multiplicity = 1
  Basis Set: CC-PVTZ
  Basis Set:
  @DF-RHF Final Energy:  -251.44670387407632
    Total Energy =                       -251.4467038740763769
    Molecular point group: c1
  Basis Set: CC-PVTZ
  Basis Set:
  Basis Set: CC-PVTZ
  Basis Set:
  @DF-RHF Final Energy:  -251.44699671672490
    Total Energy =                       -251.4469967167249251
  Basis Set: CC-PVTZ
  Basis Set:
  Basis Set: CC-PVTZ
  Basis Set:
  @DF-RHF Final Energy:  -251.44708116678439
    Total Energy =                       -251.4470811667845851
  Basis Set: CC-PVTZ
  Basis Set:
  Basis Set: CC-PVTZ
  Basis Set:
  @DF-RHF Final Energy:  -251.44708799463410
    Total Energy =                       -251.4470879946339892
  Basis Set: CC-PVTZ
  Basis Set:
  Basis Set: CC-PVTZ
  Basis Set:
  @DF-RHF Final Energy:  -251.44708919605009
    Total Energy =                       -251.4470891960502286
  Basis Set: CC-PVTZ
  Basis Set:
  Charge       = 0
  Multiplicity = 1
  Basis Set: CC-PVTZ
  Basis Set:

    Orbital Energies (a.u.)
    -----------------------

    Doubly Occupied:

       1A    -15.526542     2A    -11.238335     3A    -11.211696
       4A    -11.210265     5A    -11.206996     6A    -11.205476
       7A     -1.178343     8A     -1.072664     9A     -0.998566
      10A     -0.906936    11A     -0.814328    12A     -0.781744
      13A     -0.665815    14A     -0.651833    15A     -0.613952
      16A     -0.587933    17A     -0.560299    18A     -0.550368
      19A     -0.532097    20A     -0.501342    21A     -0.487540
      22A     -0.463370    23A     -0.461900    24A     -0.445355
      25A     -0.383693

  @DF-RHF Final Energy:  -251.44708948541776

   => Energetics <=

    Nuclear Repulsion Energy =            249.2584284280415261
    One-Electron Energy =                -832.8962582101171392
    Two-Electron Energy =                 332.1907402966579070
    DFT Exchange-Correlation Energy =       0.0000000000000000
    Empirical Dispersion Energy =           0.0000000000000000
    PCM Polarization Energy =               0.0000000000000000
    EFP Energy =                            0.0000000000000000
    Total Energy =                       -251.4470894854177345
    Molecular point group: c1
  Basis Set: CC-PVTZ
  Basis Set:

  -Total Gradient:
     Atom            X                  Y                   Z
    ------   -----------------  -----------------  -----------------
       1       -0.000014358115     0.000001494270     0.000005145785
       2       -0.000021928230     0.000017662549     0.000008305170
       3        0.000319396514    -0.000467753998     0.001490557776
       4        0.000001518061     0.000019218998     0.000023485466
       5       -0.000759688626     0.001056609043    -0.000937950517
       6       -0.000120147263     0.000190702530    -0.001150413904
       7       -0.000004834764    -0.000006286128    -0.000000320303
       8        0.000013758217     0.000004569332     0.000004186447
       9        0.000594971929    -0.000816438700     0.000544162222
      10        0.000007878113    -0.000003335229     0.000006970559
      11       -0.000020216845    -0.000000667499    -0.000000559382
      12       -0.000006186518    -0.000001630274     0.000010728472
      13        0.000002356346     0.000004557449    -0.000001579170
      14        0.000003883321    -0.000007235199    -0.000004100168
      15       -0.000000463834     0.000005088767     0.000004263275
      16        0.000001925223     0.000006024830    -0.000000549946
      17        0.000001184978     0.000000633183     0.000000109089
      18       -0.000000850811    -0.000000847960    -0.000001560252
      19        0.000001802302    -0.000002365962    -0.000000880617

  **** Optimization is complete! (in 6 steps) ****
    Final optimized geometry and variables:
    Molecular point group: c1

    Geometry (in Angstrom), charge = 0, multiplicity = 1:

    H            3.128083541753     1.387059162785     1.094014529853
    N            2.246665305673     0.921643132326     1.050769830399
    C            2.058438410675     0.291206825840    -0.247601833500
    H            1.546378614149     1.610486296095     1.225146806611
    C            0.833949148208    -0.615406209174    -0.271550331903
    H            2.937459887784    -0.307852576325    -0.455161330262
    H            1.981702133736     1.015099070951    -1.060958714724
    C           -0.499761508454     0.121710237201    -0.181031609311
    H            0.859663183891    -1.199719125875    -1.187769575812
    H            0.915267017241    -1.320175480718     0.550129469324
    C           -1.706230879455    -0.809736781265    -0.262355848102
    H           -0.561112136527     0.856564980088    -0.981299520664
    H           -0.550656274664     0.676190682001     0.752102490924
    C           -3.039467326598    -0.075668096136    -0.166875142895
    H           -1.667231126391    -1.365474994675    -1.195268680017
    H           -1.642769000859    -1.546409067136     0.533536408695
    H           -3.147411235986     0.646438007400    -0.969579637537
    H           -3.873338168085    -0.765480170126    -0.229193245605
    H           -3.124364091385     0.461008476816     0.772285052429

  Mulliken Charges: (a.u.)
   Center  Symbol    Alpha    Beta     Spin     Total
       1     H     0.42917  0.42917  0.00000  0.14166
       2     N     3.68928  3.68928  0.00000 -0.37856
       3     C     3.03957  3.03957  0.00000 -0.07913
       4     H     0.42997  0.42997  0.00000  0.14007
       5     C     3.08399  3.08399  0.00000 -0.16799
       6     H     0.45158  0.45158  0.00000  0.09683
       7     H     0.46529  0.46529  0.00000  0.06941
       8     C     3.09163  3.09163  0.00000 -0.18326
       9     H     0.45439  0.45439  0.00000  0.09123
      10     H     0.45185  0.45185  0.00000  0.09630
      11     C     3.08348  3.08348  0.00000 -0.16696
      12     H     0.45620  0.45620  0.00000  0.08759
      13     H     0.45609  0.45609  0.00000  0.08781
      14     C     3.14992  3.14992  0.00000 -0.29985
      15     H     0.45480  0.45480  0.00000  0.09040
      16     H     0.45314  0.45314  0.00000  0.09372
      17     H     0.45579  0.45579  0.00000  0.08842
      18     H     0.44847  0.44847  0.00000  0.10307
      19     H     0.45538  0.45538  0.00000  0.08924

   Total alpha = 25.00000, Total beta = 25.00000, Total charge = -0.00000

*** Psi4 exiting successfully. Buy a developer a beer!
