  ==> Input File <==

--------------------------------------------------------------------------
set {
	reference rhf
	basis 6-31G*
}

set_num_threads( 1 )
memory 2 gb

molecule MOL {
0 1

H	 -4.031818	 -0.453427	 -0.000094
C	 -2.967712	 -0.297022	 -0.000064
C	 -2.458620	 0.992929	 0.000032
C	 -2.109895	 -1.385637	 -0.000122
H	 -3.124998	 1.836319	 0.000077
C	 -1.090278	 1.193236	 0.000070
H	 -2.506361	 -2.384847	 -0.000198
C	 -0.739812	 -1.187531	 -0.000085
H	 -0.678594	 2.184290	 0.000146
C	 -0.226438	 0.104061	 0.000012
H	 -0.072310	 -2.027032	 -0.000131
C	 1.239129	 0.373821	 0.000060
O	 1.825106	 0.057799	 1.145208
O	 1.832541	 0.826662	 -0.928195
C	 3.221043	 0.282157	 1.232921
H	 3.745180	 -0.299469	 0.488753
H	 3.507265	 -0.031845	 2.224553
H	 3.445639	 1.329194	 1.090830

	symmetry c1
}
set optking {
	frozen_dihedral = ("
		12 13 15 16,
		10 12 13 15
	")
}

ee = energy('scf')
oeprop('DIPOLE', 'QUADRUPOLE', 'MULLIKEN_CHARGES')
f=open( 'psi4out.xyz', 'w' )
f.write( "18  " )
f.write( str(ee) + "\n" )
f.write( MOL.save_string_xyz() )
f.close()
--------------------------------------------------------------------------

    Molecular point group: c1

    Geometry (in Angstrom), charge = 0, multiplicity = 1:

       Center              X                  Y                   Z               Mass
    ------------   -----------------  -----------------  -----------------  -----------------
           H         -4.011230207453    -0.565247332041    -0.162521781771     1.007825032070
           C         -2.947124207453    -0.408842332041    -0.162491781771    12.000000000000
           C         -2.438032207453     0.881108667959    -0.162395781771    12.000000000000
           C         -2.089307207453    -1.497457332041    -0.162549781771    12.000000000000
           H         -3.104410207453     1.724498667959    -0.162350781771     1.007825032070
           C         -1.069690207453     1.081415667959    -0.162357781771    12.000000000000
           H         -2.485773207453    -2.496667332041    -0.162625781771     1.007825032070
           C         -0.719224207453    -1.299351332041    -0.162512781771    12.000000000000
           H         -0.658006207453     2.072469667959    -0.162281781771     1.007825032070
           C         -0.205850207453    -0.007759332041    -0.162415781771    12.000000000000
           H         -0.051722207453    -2.138852332041    -0.162558781771     1.007825032070
           C          1.259716792547     0.262000667959    -0.162367781771    12.000000000000
           O          1.845693792547    -0.054021332041     0.982780218229    15.994914619560
           O          1.853128792547     0.714841667959    -1.090622781771    15.994914619560
           C          3.241630792547     0.170336667959     1.070493218229    12.000000000000
           H          3.765767792547    -0.411289332041     0.326325218229     1.007825032070
           H          3.527852792547    -0.143665332041     2.062125218229     1.007825032070
           H          3.466226792547     1.217373667959     0.928402218229     1.007825032070

  Charge       = 0
  Multiplicity = 1
  Basis Set: 6-31G*
  Basis Set:

    Orbital Energies (a.u.)
    -----------------------

    Doubly Occupied:

       1A    -20.609592     2A    -20.549609     3A    -11.380350
       4A    -11.283195     5A    -11.251576     6A    -11.245262
       7A    -11.243666     8A    -11.241421     9A    -11.240052
      10A    -11.239376    11A     -1.474569    12A     -1.365767
      13A     -1.166574    14A     -1.049230    15A     -1.026503
      16A     -0.979479    17A     -0.861270    18A     -0.838637
      19A     -0.780000    20A     -0.738091    21A     -0.685714
      22A     -0.679845    23A     -0.675772    24A     -0.631041
      25A     -0.629865    26A     -0.598285    27A     -0.590924
      28A     -0.548080    29A     -0.535666    30A     -0.516802
      31A     -0.508058    32A     -0.501756    33A     -0.458584
      34A     -0.445581    35A     -0.343350    36A     -0.341861

  @DF-RHF Final Energy:  -457.33952546022999

   => Energetics <=

    Nuclear Repulsion Energy =            491.6500332294299369
    One-Electron Energy =               -1597.4683383803439938
    Two-Electron Energy =                 648.4787796906832682
    DFT Exchange-Correlation Energy =       0.0000000000000000
    Empirical Dispersion Energy =           0.0000000000000000
    PCM Polarization Energy =               0.0000000000000000
    EFP Energy =                            0.0000000000000000
    Total Energy =                       -457.3395254602307887

  Mulliken Charges: (a.u.)
   Center  Symbol    Alpha    Beta     Spin     Total
       1     H     0.39648  0.39648  0.00000  0.20704
       2     C     3.09683  3.09683  0.00000 -0.19365
       3     C     3.10022  3.10022  0.00000 -0.20044
       4     C     3.10082  3.10082  0.00000 -0.20165
       5     H     0.39534  0.39534  0.00000  0.20932
       6     C     3.09799  3.09799  0.00000 -0.19597
       7     H     0.39553  0.39553  0.00000  0.20895
       8     C     3.09494  3.09494  0.00000 -0.18988
       9     H     0.38873  0.38873  0.00000  0.22255
      10     C     3.01225  3.01225  0.00000 -0.02450
      11     H     0.39104  0.39104  0.00000  0.21792
      12     C     2.63893  2.63893  0.00000  0.72214
      13     O     4.29660  4.29660  0.00000 -0.59321
      14     O     4.27756  4.27756  0.00000 -0.55511
      15     C     3.09380  3.09380  0.00000 -0.18759
      16     H     0.40825  0.40825  0.00000  0.18350
      17     H     0.40673  0.40673  0.00000  0.18653
      18     H     0.40798  0.40798  0.00000  0.18404

   Total alpha = 36.00000, Total beta = 36.00000, Total charge =  0.00000
