  ==> Input File <==

--------------------------------------------------------------------------
set {
	reference rhf
	basis 6-31G*
}

set_num_threads( 4 )
memory 2 gb

molecule MOL {
0 1

H	 -2.098997	 -0.674324	 -0.616650
O	 -2.035884	 -0.060112	 0.102722
C	 -0.955155	 0.788182	 -0.092531
C	 0.353668	 0.040312	 -0.004810
H	 -0.985057	 1.290372	 -1.054184
H	 -0.974469	 1.533190	 0.688632
F	 0.222684	 -1.044068	 0.751189
F	 0.743554	 -0.352747	 -1.206764
F	 1.318505	 0.771074	 0.515409

	symmetry c1
}
set optking {
	frozen_dihedral = ("
		7 4 3 5
	")
}

ee = optimize('scf')
oeprop('DIPOLE', 'QUADRUPOLE', 'MULLIKEN_CHARGES')
f=open( 'psi4out.xyz', 'w' )
f.write( "9  " )
f.write( str(ee) + "\n" )
f.write( MOL.save_string_xyz() )
f.close()
--------------------------------------------------------------------------

    Molecular point group: c1
  Charge       = 0
  Multiplicity = 1
  Basis Set: 6-31G*
  Basis Set:
  @DF-RHF Final Energy:  -450.65700284523570
    Total Energy =                       -450.6570028452358656
    Molecular point group: c1
  Basis Set: 6-31G*
  Basis Set:
  Basis Set: 6-31G*
  Basis Set:
  @DF-RHF Final Energy:  -450.65768565404676
    Total Energy =                       -450.6576856540464746
  Basis Set: 6-31G*
  Basis Set:
  Basis Set: 6-31G*
  Basis Set:
  @DF-RHF Final Energy:  -450.65797722043391
    Total Energy =                       -450.6579772204339633
  Basis Set: 6-31G*
  Basis Set:
  Basis Set: 6-31G*
  Basis Set:
  @DF-RHF Final Energy:  -450.65799694001987
    Total Energy =                       -450.6579969400197569
  Basis Set: 6-31G*
  Basis Set:
  Basis Set: 6-31G*
  Basis Set:
  @DF-RHF Final Energy:  -450.65799914305313
    Total Energy =                       -450.6579991430533028
  Basis Set: 6-31G*
  Basis Set:
  Charge       = 0
  Multiplicity = 1
  Basis Set: 6-31G*
  Basis Set:

    Orbital Energies (a.u.)
    -----------------------

    Doubly Occupied:

       1A    -26.342673     2A    -26.339031     3A    -26.338065
       4A    -20.589474     5A    -11.499743     6A    -11.310062
       7A     -1.738814     8A     -1.638588     9A     -1.632953
      10A     -1.400878    11A     -1.044388    12A     -0.922846
      13A     -0.828080    14A     -0.826968    15A     -0.803247
      16A     -0.728211    17A     -0.711870    18A     -0.695126
      19A     -0.663384    20A     -0.656117    21A     -0.640180
      22A     -0.627740    23A     -0.610069    24A     -0.529080
      25A     -0.479973

  @DF-RHF Final Energy:  -450.65799932645677

   => Energetics <=

    Nuclear Repulsion Energy =            276.3057451664342352
    One-Electron Energy =               -1174.7323743750712310
    Two-Electron Energy =                 447.7686298821799369
    DFT Exchange-Correlation Energy =       0.0000000000000000
    Empirical Dispersion Energy =           0.0000000000000000
    PCM Polarization Energy =               0.0000000000000000
    EFP Energy =                            0.0000000000000000
    Total Energy =                       -450.6579993264570589
    Molecular point group: c1
  Basis Set: 6-31G*
  Basis Set:

  -Total Gradient:
     Atom            X                  Y                   Z
    ------   -----------------  -----------------  -----------------
       1        0.000006179383    -0.000006395941    -0.000000772853
       2       -0.000013106311     0.000006226071     0.000003304204
       3        0.002597123660     0.004635862572     0.001416608955
       4        0.001118464648     0.002493044003     0.004686099732
       5       -0.002472230650    -0.004565968248    -0.002214900099
       6       -0.000009275865     0.000012137388     0.000004453965
       7       -0.001247539991    -0.002558331882    -0.003897405153
       8       -0.000006722584    -0.000044596864    -0.000041350334
       9        0.000027107716     0.000028022906     0.000043961589

  **** Optimization is complete! (in 6 steps) ****
    Final optimized geometry and variables:
    Molecular point group: c1

    Geometry (in Angstrom), charge = 0, multiplicity = 1:

    H           -2.145598945880    -0.626397490369    -0.662150909167
    O           -2.059619909766    -0.043701309915     0.080483372435
    C           -0.961875098709     0.792498401748    -0.084569253051
    C            0.357286140192     0.036408211883     0.004949030307
    H           -0.988529081087     1.280411608299    -1.052414752308
    H           -0.994934612883     1.528727137446     0.702973976510
    F            0.274092317743    -1.038906829995     0.758744907731
    F            0.743514575200    -0.375637137353    -1.200578745936
    F            1.317320114979     0.811982700307     0.478027691803

  Mulliken Charges: (a.u.)
   Center  Symbol    Alpha    Beta     Spin     Total
       1     H     0.27423  0.27423  0.00000  0.45154
       2     O     4.35949  4.35949  0.00000 -0.71898
       3     C     3.06112  3.06112  0.00000 -0.12224
       4     C     2.46330  2.46330  0.00000  1.07341
       5     H     0.40657  0.40657  0.00000  0.18686
       6     H     0.39377  0.39377  0.00000  0.21245
       7     F     4.67348  4.67348  0.00000 -0.34697
       8     F     4.68686  4.68686  0.00000 -0.37373
       9     F     4.68117  4.68117  0.00000 -0.36234

   Total alpha = 25.00000, Total beta = 25.00000, Total charge = -0.00000
