  ==> Input File <==

--------------------------------------------------------------------------
set {
	reference rhf
	basis 6-31G*
}

set_num_threads( 1 )
memory 2 gb

molecule MOL {
0 1

H	 -2.853488	 2.199789	 -1.013108
C	 -3.020267	 1.131254	 -1.197606
C	 -1.985169	 0.465745	 -2.068400
O	 -3.962551	 0.583465	 -0.724555
C	 -0.553397	 0.708759	 -1.571181
H	 -2.213711	 -0.592282	 -2.123694
H	 -2.092533	 0.883255	 -3.068806
C	 -0.252658	 0.041456	 -0.226725
H	 0.138734	 0.337387	 -2.321063
H	 -0.373481	 1.780197	 -1.497648
C	 1.180775	 0.282413	 0.250794
H	 -0.431994	 -1.028289	 -0.312355
H	 -0.947705	 0.403341	 0.528582
C	 2.148627	 -0.814315	 -0.201312
H	 1.516199	 1.249228	 -0.115937
H	 1.192670	 0.346017	 1.338083
C	 3.580890	 -0.659131	 0.322722
H	 2.166869	 -0.852443	 -1.289387
H	 1.762857	 -1.776509	 0.128956
C	 4.324889	 0.564933	 -0.213704
H	 4.142010	 -1.551473	 0.056605
H	 3.564836	 -0.624694	 1.410140
H	 4.342616	 0.565491	 -1.300421
H	 3.866655	 1.493402	 0.110242
H	 5.353900	 0.572371	 0.132816

	symmetry c1
}
set optking {
	frozen_dihedral = ("
		6 3 5 8,
		6 3 2 4,
		3 5 8 12,
		8 11 14 18,
		20 17 14 18
	")
}

ee = energy('scf')
oeprop('DIPOLE', 'QUADRUPOLE', 'MULLIKEN_CHARGES')
f=open( 'psi4out.xyz', 'w' )
f.write( "25  " )
f.write( str(ee) + "\n" )
f.write( MOL.save_string_xyz() )
f.close()
--------------------------------------------------------------------------

    Molecular point group: c1

    Geometry (in Angstrom), charge = 0, multiplicity = 1:

       Center              X                  Y                   Z               Mass
    ------------   -----------------  -----------------  -----------------  -----------------
           H         -3.017301282694     1.938961327474    -0.389753918833     1.007825032070
           C         -3.184080282694     0.870426327474    -0.574251918833    12.000000000000
           C         -2.148982282694     0.204917327474    -1.445045918833    12.000000000000
           O         -4.126364282694     0.322637327474    -0.101200918833    15.994914619560
           C         -0.717210282694     0.447931327474    -0.947826918833    12.000000000000
           H         -2.377524282694    -0.853109672526    -1.500339918833     1.007825032070
           H         -2.256346282694     0.622427327474    -2.445451918833     1.007825032070
           C         -0.416471282694    -0.219371672526     0.396629081167    12.000000000000
           H         -0.025079282694     0.076559327474    -1.697708918833     1.007825032070
           H         -0.537294282694     1.519369327474    -0.874293918833     1.007825032070
           C          1.016961717306     0.021585327474     0.874148081167    12.000000000000
           H         -0.595807282694    -1.289116672526     0.310999081167     1.007825032070
           H         -1.111518282694     0.142513327474     1.151936081167     1.007825032070
           C          1.984813717306    -1.075142672526     0.422042081167    12.000000000000
           H          1.352385717306     0.988400327474     0.507417081167     1.007825032070
           H          1.028856717306     0.085189327474     1.961437081167     1.007825032070
           C          3.417076717306    -0.919958672526     0.946076081167    12.000000000000
           H          2.003055717306    -1.113270672526    -0.666032918833     1.007825032070
           H          1.599043717306    -2.037336672526     0.752310081167     1.007825032070
           C          4.161075717306     0.304105327474     0.409650081167    12.000000000000
           H          3.978196717306    -1.812300672526     0.679959081167     1.007825032070
           H          3.401022717306    -0.885521672526     2.033494081167     1.007825032070
           H          4.178802717306     0.304663327474    -0.677066918833     1.007825032070
           H          3.702841717306     1.232574327474     0.733596081167     1.007825032070
           H          5.190086717306     0.311543327474     0.756170081167     1.007825032070

  Charge       = 0
  Multiplicity = 1
  Basis Set: 6-31G*
  Basis Set:

    Orbital Energies (a.u.)
    -----------------------

    Doubly Occupied:

       1A    -20.561909     2A    -11.326058     3A    -11.235281
       4A    -11.234413     5A    -11.223000     6A    -11.219139
       7A    -11.218718     8A    -11.218107     9A    -11.211590
      10A     -1.401880    11A     -1.105043    12A     -1.069285
      13A     -1.013577    14A     -0.941304    15A     -0.878644
      16A     -0.822184    17A     -0.788654    18A     -0.780254
      19A     -0.665892    20A     -0.651423    21A     -0.635606
      22A     -0.622646    23A     -0.609413    24A     -0.597961
      25A     -0.574163    26A     -0.554207    27A     -0.528880
      28A     -0.523160    29A     -0.520595    30A     -0.500692
      31A     -0.485692    32A     -0.478762    33A     -0.461042
      34A     -0.454622    35A     -0.444768    36A     -0.409270

  @DF-RHF Final Energy:  -387.11843017999985

   => Energetics <=

    Nuclear Repulsion Energy =            442.2937898278287889
    One-Electron Energy =               -1400.8887919604017043
    Two-Electron Energy =                 571.4765719525707937
    DFT Exchange-Correlation Energy =       0.0000000000000000
    Empirical Dispersion Energy =           0.0000000000000000
    PCM Polarization Energy =               0.0000000000000000
    EFP Energy =                            0.0000000000000000
    Total Energy =                       -387.1184301800021785

  Mulliken Charges: (a.u.)
   Center  Symbol    Alpha    Beta     Spin     Total
       1     H     0.43265  0.43265  0.00000  0.13470
       2     C     2.83070  2.83070  0.00000  0.33860
       3     C     3.20828  3.20828  0.00000 -0.41657
       4     O     4.23781  4.23781  0.00000 -0.47562
       5     C     3.16801  3.16801  0.00000 -0.33601
       6     H     0.39964  0.39964  0.00000  0.20071
       7     H     0.40687  0.40687  0.00000  0.18626
       8     C     3.15759  3.15759  0.00000 -0.31517
       9     H     0.41215  0.41215  0.00000  0.17570
      10     H     0.41930  0.41930  0.00000  0.16139
      11     C     3.15773  3.15773  0.00000 -0.31546
      12     H     0.41691  0.41691  0.00000  0.16619
      13     H     0.41584  0.41584  0.00000  0.16833
      14     C     3.15417  3.15417  0.00000 -0.30834
      15     H     0.42041  0.42041  0.00000  0.15918
      16     H     0.41880  0.41880  0.00000  0.16240
      17     C     3.15264  3.15264  0.00000 -0.30527
      18     H     0.42470  0.42470  0.00000  0.15059
      19     H     0.42031  0.42031  0.00000  0.15938
      20     C     3.24137  3.24137  0.00000 -0.48275
      21     H     0.42038  0.42038  0.00000  0.15925
      22     H     0.42238  0.42238  0.00000  0.15524
      23     H     0.42267  0.42267  0.00000  0.15466
      24     H     0.42028  0.42028  0.00000  0.15944
      25     H     0.41842  0.41842  0.00000  0.16317

   Total alpha = 36.00000, Total beta = 36.00000, Total charge = -0.00000
