                              Psi4 1.0.54 Driver

  ==> Input File <==

--------------------------------------------------------------------------
set {
	reference rhf
	basis cc-pvtz
}

set_num_threads( 4 )
memory 2 gb

molecule MOL {
0 1

H	 -0.366580	 2.045936	 -0.305741
C	 0.351829	 1.335402	 0.083179
N	 -0.000018	 0.000080	 -0.334836
H	 1.327156	 1.599860	 -0.305475
H	 0.380566	 1.445403	 1.171445
C	 -1.308103	 -0.048264	 -0.942254
C	 1.010801	 -0.584261	 -1.182794
H	 -1.567963	 -1.072155	 -1.179342
H	 -2.050334	 0.333600	 -0.252719
H	 -1.369644	 0.538157	 -1.863879
H	 1.963821	 -0.594427	 -0.669148
H	 0.748360	 -1.607519	 -1.419843
H	 1.140283	 -0.041745	 -2.124081

	symmetry c1
}
set optking {
	frozen_dihedral = ("
		6 3 2 1
	")
}

ee,wfn = optimize('scf', return_wfn=True)
oeprop( wfn, 'DIPOLE', 'QUADRUPOLE', 'MULLIKEN_CHARGES')
f=open( 'psi4out.xyz', 'w' )
f.write( "13  " )
f.write( str(ee) + "\n" )
f.write( MOL.save_string_xyz() )
f.close()
--------------------------------------------------------------------------

    Molecular point group: c1
  Charge       = 0
  Multiplicity = 1
  Basis Set: CC-PVTZ
  Basis Set:
  @DF-RHF Final Energy:  -173.32692557248984
    Total Energy =                       -173.3269255724895856
    Molecular point group: c1
  Basis Set: CC-PVTZ
  Basis Set:
  Basis Set: CC-PVTZ
  Basis Set:
  @DF-RHF Final Energy:  -173.32061011875953
    Total Energy =                       -173.3206101187596175
  Basis Set: CC-PVTZ
  Basis Set:
  Basis Set: CC-PVTZ
  Basis Set:
  @DF-RHF Final Energy:  -173.32760913882706
    Total Energy =                       -173.3276091388269151
  Basis Set: CC-PVTZ
  Basis Set:
  Basis Set: CC-PVTZ
  Basis Set:
  @DF-RHF Final Energy:  -173.32768173081266
    Total Energy =                       -173.3276817308126567
  Basis Set: CC-PVTZ
  Basis Set:
  Basis Set: CC-PVTZ
  Basis Set:
  @DF-RHF Final Energy:  -173.32768414709474
    Total Energy =                       -173.3276841470947716
  Basis Set: CC-PVTZ
  Basis Set:
  Charge       = 0
  Multiplicity = 1
  Basis Set: CC-PVTZ
  Basis Set:

    Orbital Energies (a.u.)
    -----------------------

    Doubly Occupied:

       1A    -15.535805     2A    -11.233893     3A    -11.233870
       4A    -11.233696     5A     -1.221290     6A     -0.951827
       7A     -0.951281     8A     -0.807065     9A     -0.638610
      10A     -0.629123    11A     -0.627964    12A     -0.549833
      13A     -0.547565    14A     -0.514215    15A     -0.501116
      16A     -0.500048    17A     -0.342702

  @DF-RHF Final Energy:  -173.32768458158955

   => Energetics <=

    Nuclear Repulsion Energy =            138.9726562312822011
    One-Electron Energy =                -508.5608758633262028
    Two-Electron Energy =                 196.2605350504543367
    DFT Exchange-Correlation Energy =       0.0000000000000000
    Empirical Dispersion Energy =           0.0000000000000000
    PCM Polarization Energy =               0.0000000000000000
    EFP Energy =                            0.0000000000000000
    Total Energy =                       -173.3276845815896650
    Molecular point group: c1
  Basis Set: CC-PVTZ
  Basis Set:

  -Total Gradient:
     Atom            X                  Y                   Z
    ------   -----------------  -----------------  -----------------
       1       -0.000529932421    -0.000509573381     0.001258044423
       2        0.000781861395     0.000839707229    -0.002019020495
       3       -0.000427309655    -0.000740118741     0.001777788418
       4       -0.000005661459    -0.000019296046     0.000003680227
       5       -0.000006651115    -0.000000150279     0.000012385422
       6        0.000175726379     0.000429588306    -0.001027182133
       7        0.000010094604     0.000015251032    -0.000045286589
       8       -0.000007133516    -0.000007016258    -0.000000840338
       9        0.000006363464    -0.000001116831    -0.000000910265
      10        0.000020744927    -0.000004357608     0.000014177621
      11       -0.000005017054     0.000001321435     0.000004431294
      12       -0.000004341376    -0.000002040828     0.000003404096
      13       -0.000008744175    -0.000002198030     0.000019328319

  **** Optimization is complete! (in 6 steps) ****
    Final optimized geometry and variables:
    Molecular point group: c1

    Geometry (in Angstrom), charge = 0, multiplicity = 1:

    H           -0.508400374916     1.750093121189     0.757461768027
    C            0.333861837101     1.070352820053     0.844648635770
    N            0.054968097730    -0.215998926459     0.223889165294
    H            1.188942876771     1.553413149927     0.386883039254
    H            0.547484595488     0.954571617247     1.902224618386
    C           -1.328440091264    -0.373716095988    -0.152600357627
    C            0.954063061465    -0.535830579985    -0.858355179069
    H           -1.502399171613    -1.381876005914    -0.507761677827
    H           -1.968100680745    -0.212527246153     0.706115259452
    H           -1.639260780757     0.320138041826    -0.939657911194
    H            1.979253124292    -0.503043937434    -0.512288788829
    H            0.758773225773    -1.539994392736    -1.213838744551
    H            0.862368640813     0.145699184994    -1.709744268355

  Mulliken Charges: (a.u.)
   Center  Symbol    Alpha    Beta     Spin     Total
       1     H     0.46374  0.46374  0.00000  0.07251
       2     C     3.08508  3.08508  0.00000 -0.17016
       3     N     3.59949  3.59949  0.00000 -0.19898
       4     H     0.46075  0.46075  0.00000  0.07851
       5     H     0.45120  0.45120  0.00000  0.09760
       6     C     3.09078  3.09078  0.00000 -0.18156
       7     C     3.09048  3.09048  0.00000 -0.18096
       8     H     0.45364  0.45364  0.00000  0.09273
       9     H     0.45210  0.45210  0.00000  0.09581
      10     H     0.47344  0.47344  0.00000  0.05312
      11     H     0.45217  0.45217  0.00000  0.09565
      12     H     0.45359  0.45359  0.00000  0.09282
      13     H     0.47354  0.47354  0.00000  0.05291

   Total alpha = 17.00000, Total beta = 17.00000, Total charge =  0.00000

*** Psi4 exiting successfully. Buy a developer a beer!
