  ==> Input File <==

--------------------------------------------------------------------------
set {
	reference rhf
	basis 6-31G*
}

set_num_threads( 1 )
memory 2 gb

molecule MOL {
0 1

H	 3.810316	 0.506074	 -0.841049
N	 3.020588	 -0.109554	 -0.811445
C	 1.831396	 0.598036	 -0.359047
H	 3.253109	 -0.848113	 -0.174817
C	 0.611664	 -0.316078	 -0.408052
H	 1.675258	 1.440270	 -1.026222
H	 1.934659	 1.011017	 0.647523
C	 -0.679275	 0.379305	 0.025956
H	 0.510265	 -0.698719	 -1.419555
H	 0.788442	 -1.179912	 0.232165
C	 -1.903357	 -0.536963	 -0.023547
H	 -0.854946	 1.244457	 -0.611618
H	 -0.562924	 0.765544	 1.037454
C	 -3.225172	 0.228290	 0.028445
H	 -1.867824	 -1.134999	 -0.931459
H	 -1.860449	 -1.239604	 0.805977
H	 -3.313397	 0.915643	 -0.808262
H	 -4.073500	 -0.448134	 -0.008893
H	 -3.306061	 0.809945	 0.942516

	symmetry c1
}
set optking {
	frozen_dihedral = ("
		6 3 5 9,
		12 8 5 9,
		1 2 3 6
	")
}

ee = energy('scf')
oeprop('DIPOLE', 'QUADRUPOLE', 'MULLIKEN_CHARGES')
f=open( 'psi4out.xyz', 'w' )
f.write( "19  " )
f.write( str(ee) + "\n" )
f.write( MOL.save_string_xyz() )
f.close()
--------------------------------------------------------------------------

    Molecular point group: c1

    Geometry (in Angstrom), charge = 0, multiplicity = 1:

       Center              X                  Y                   Z               Mass
    ------------   -----------------  -----------------  -----------------  -----------------
           H          3.833009611800     0.461881212259    -0.584223002105     1.007825032070
           N          3.043281611800    -0.153746787741    -0.554619002105    14.003074004780
           C          1.854089611800     0.553843212259    -0.102221002105    12.000000000000
           H          3.275802611800    -0.892305787741     0.082008997895     1.007825032070
           C          0.634357611800    -0.360270787741    -0.151226002105    12.000000000000
           H          1.697951611800     1.396077212259    -0.769396002105     1.007825032070
           H          1.957352611800     0.966824212259     0.904348997895     1.007825032070
           C         -0.656581388200     0.335112212259     0.282781997895    12.000000000000
           H          0.532958611800    -0.742911787741    -1.162729002105     1.007825032070
           H          0.811135611800    -1.224104787741     0.488990997895     1.007825032070
           C         -1.880663388200    -0.581155787741     0.233278997895    12.000000000000
           H         -0.832252388200     1.200264212259    -0.354792002105     1.007825032070
           H         -0.540230388200     0.721351212259     1.294279997895     1.007825032070
           C         -3.202478388200     0.184097212259     0.285270997895    12.000000000000
           H         -1.845130388200    -1.179191787741    -0.674633002105     1.007825032070
           H         -1.837755388200    -1.283796787741     1.062802997895     1.007825032070
           H         -3.290703388200     0.871450212259    -0.551436002105     1.007825032070
           H         -4.050806388200    -0.492326787741     0.247932997895     1.007825032070
           H         -3.283367388200     0.765752212259     1.199341997895     1.007825032070

  Charge       = 0
  Multiplicity = 1
  Basis Set: 6-31G*
  Basis Set:

    Orbital Energies (a.u.)
    -----------------------

    Doubly Occupied:

       1A    -15.532473     2A    -11.239660     3A    -11.213650
       4A    -11.212459     5A    -11.209526     6A    -11.207439
       7A     -1.176583     8A     -1.072919     9A     -0.998256
      10A     -0.900148    11A     -0.813072    12A     -0.789206
      13A     -0.665322    14A     -0.640019    15A     -0.617253
      16A     -0.589027    17A     -0.567300    18A     -0.544453
      19A     -0.531759    20A     -0.497565    21A     -0.482652
      22A     -0.464274    23A     -0.459960    24A     -0.449595
      25A     -0.380916

  @DF-RHF Final Energy:  -251.35079950873882

   => Energetics <=

    Nuclear Repulsion Energy =            245.7287284401404577
    One-Electron Energy =                -825.6479660046450135
    Two-Electron Energy =                 328.5684380557655686
    DFT Exchange-Correlation Energy =       0.0000000000000000
    Empirical Dispersion Energy =           0.0000000000000000
    PCM Polarization Energy =               0.0000000000000000
    EFP Energy =                            0.0000000000000000
    Total Energy =                       -251.3507995087389872

  Mulliken Charges: (a.u.)
   Center  Symbol    Alpha    Beta     Spin     Total
       1     H     0.33249  0.33249  0.00000  0.33502
       2     N     3.92190  3.92190  0.00000 -0.84380
       3     C     3.06029  3.06029  0.00000 -0.12059
       4     H     0.33537  0.33537  0.00000  0.32926
       5     C     3.15202  3.15202  0.00000 -0.30404
       6     H     0.42082  0.42082  0.00000  0.15835
       7     H     0.43481  0.43481  0.00000  0.13038
       8     C     3.15538  3.15538  0.00000 -0.31076
       9     H     0.41293  0.41293  0.00000  0.17414
      10     H     0.42767  0.42767  0.00000  0.14465
      11     C     3.15124  3.15124  0.00000 -0.30248
      12     H     0.42365  0.42365  0.00000  0.15270
      13     H     0.42399  0.42399  0.00000  0.15201
      14     C     3.23951  3.23951  0.00000 -0.47902
      15     H     0.42176  0.42176  0.00000  0.15648
      16     H     0.42274  0.42274  0.00000  0.15452
      17     H     0.42154  0.42154  0.00000  0.15692
      18     H     0.41961  0.41961  0.00000  0.16079
      19     H     0.42228  0.42228  0.00000  0.15544

   Total alpha = 25.00000, Total beta = 25.00000, Total charge = -0.00000
