  ==> Input File <==

--------------------------------------------------------------------------
set {
	reference rhf
	basis 6-31G*
}

set_num_threads( 4 )
memory 2 gb

molecule MOL {
0 1

H	 -3.161837	 0.500524	 -0.000234
C	 -2.367097	 -0.232926	 -0.000000
O	 -1.158440	 0.455814	 -0.000122
H	 -2.468853	 -0.861886	 -0.882833
H	 -2.468942	 -0.861421	 0.883154
C	 -0.980911	 1.303780	 -1.094340
C	 0.369192	 1.988218	 -0.970132
H	 -1.779887	 2.045680	 -1.127840
H	 -1.032530	 0.733976	 -2.023084
C	 0.650314	 2.941167	 -2.131054
H	 0.396682	 2.526827	 -0.027897
H	 1.138854	 1.224354	 -0.916930
H	 -0.096073	 3.728683	 -2.187159
H	 1.619529	 3.414959	 -2.017083
H	 0.650680	 2.417043	 -3.082736

	symmetry c1
}
set optking {
	frozen_dihedral = ("
		6 3 2 4
	")
}

ee = optimize('scf')
oeprop('DIPOLE', 'QUADRUPOLE', 'MULLIKEN_CHARGES')
f=open( 'psi4out.xyz', 'w' )
f.write( "15  " )
f.write( str(ee) + "\n" )
f.write( MOL.save_string_xyz() )
f.close()
--------------------------------------------------------------------------

    Molecular point group: c1
  Charge       = 0
  Multiplicity = 1
  Basis Set: 6-31G*
  Basis Set:
  @DF-RHF Final Energy:  -232.13826331521301
    Total Energy =                       -232.1382633152132371
    Molecular point group: c1
  Basis Set: 6-31G*
  Basis Set:
  Basis Set: 6-31G*
  Basis Set:
  @DF-RHF Final Energy:  -232.13918743331564
    Total Energy =                       -232.1391874333154988
  Basis Set: 6-31G*
  Basis Set:
  Basis Set: 6-31G*
  Basis Set:
  @DF-RHF Final Energy:  -232.13945211041826
    Total Energy =                       -232.1394521104183468
  Basis Set: 6-31G*
  Basis Set:
  Charge       = 0
  Multiplicity = 1
  Basis Set: 6-31G*
  Basis Set:

    Orbital Energies (a.u.)
    -----------------------

    Doubly Occupied:

       1A    -20.553436     2A    -11.266263     3A    -11.263985
       4A    -11.214274     5A    -11.212931     6A     -1.378441
       7A     -1.057312     8A     -0.955305     9A     -0.877244
      10A     -0.809132    11A     -0.674965    12A     -0.654011
      13A     -0.630292    14A     -0.607623    15A     -0.565543
      16A     -0.541202    17A     -0.502820    18A     -0.489049
      19A     -0.478050    20A     -0.461505    21A     -0.413874

  @DF-RHF Final Energy:  -232.13945341606754

   => Energetics <=

    Nuclear Repulsion Energy =            189.7478940593476580
    One-Electron Energy =                -690.5601809708921337
    Two-Electron Energy =                 268.6728334954768798
    DFT Exchange-Correlation Energy =       0.0000000000000000
    Empirical Dispersion Energy =           0.0000000000000000
    PCM Polarization Energy =               0.0000000000000000
    EFP Energy =                            0.0000000000000000
    Total Energy =                       -232.1394534160675676
    Molecular point group: c1
  Basis Set: 6-31G*
  Basis Set:

  -Total Gradient:
     Atom            X                  Y                   Z
    ------   -----------------  -----------------  -----------------
       1        0.000024210109     0.000037460754    -0.000003567791
       2        0.000038663509    -0.000073870987     0.000016213898
       3       -0.000082732176     0.000129923551     0.000074742294
       4        0.000035206067     0.000117835587    -0.000068453279
       5        0.000070552963     0.000025983131     0.000010469354
       6       -0.000032941715    -0.000157881268    -0.000200353805
       7        0.000010310817    -0.000041895800     0.000093658661
       8       -0.000003475711    -0.000016899692     0.000056898421
       9       -0.000005684072     0.000007220040    -0.000028484990
      10       -0.000075907696    -0.000023790413     0.000006812248
      11        0.000031940336     0.000021713792     0.000014187100
      12        0.000003137439    -0.000006612413     0.000004370068
      13       -0.000002491283     0.000009099026    -0.000008486358
      14       -0.000012258114    -0.000023374411     0.000030606274
      15        0.000001469527    -0.000004910893     0.000001387902

  **** Optimization is complete! (in 4 steps) ****
    Final optimized geometry and variables:
    Molecular point group: c1

    Geometry (in Angstrom), charge = 0, multiplicity = 1:

    H           -2.495174035919    -0.812769996809     0.861679876892
    C           -1.649628396366    -1.497956013874     0.830608845503
    O           -0.438539809297    -0.813846822129     0.833511995724
    H           -1.750170174298    -2.127556488862    -0.051866624759
    H           -1.674341843648    -2.124104207480     1.712028996290
    C           -0.254920890741     0.031725049586    -0.261695178526
    C            1.096679971059     0.712246077977    -0.133008499640
    H           -1.051631189232     0.775860297006    -0.298549721165
    H           -0.304935387066    -0.539512587425    -1.189614334826
    C            1.384646188653     1.662889119781    -1.294104907505
    H            1.122420582549     1.251852223996     0.808743580945
    H            1.863868722205    -0.053854300115    -0.076237219298
    H            0.640241835952     2.451985119587    -1.354380464739
    H            2.354391298385     2.134770406115    -1.176708916929
    H            1.387691794292     1.137502197455    -2.245098126726

  Mulliken Charges: (a.u.)
   Center  Symbol    Alpha    Beta     Spin     Total
       1     H     0.43039  0.43039  0.00000  0.13922
       2     C     3.07931  3.07931  0.00000 -0.15862
       3     O     4.30578  4.30578  0.00000 -0.61156
       4     H     0.43049  0.43049  0.00000  0.13901
       5     H     0.41215  0.41215  0.00000  0.17569
       6     C     2.98156  2.98156  0.00000  0.03688
       7     C     3.15982  3.15982  0.00000 -0.31964
       8     H     0.43344  0.43344  0.00000  0.13313
       9     H     0.43337  0.43337  0.00000  0.13325
      10     C     3.24792  3.24792  0.00000 -0.49583
      11     H     0.41431  0.41431  0.00000  0.17138
      12     H     0.41433  0.41433  0.00000  0.17135
      13     H     0.42085  0.42085  0.00000  0.15830
      14     H     0.41542  0.41542  0.00000  0.16916
      15     H     0.42086  0.42086  0.00000  0.15829

   Total alpha = 21.00000, Total beta = 21.00000, Total charge =  0.00000
