                              Psi4 1.0.54 Driver

  ==> Input File <==

--------------------------------------------------------------------------
set {
	reference rhf
	basis cc-pvtz
}

set_num_threads( 4 )
memory 2 gb

molecule MOL {
0 1

O	 -2.817697	 1.304178	 0.001046
C	 -2.664672	 0.129869	 0.003507
C	 -3.797908	 -0.860100	 -0.001145
O	 -1.481217	 -0.452708	 0.001092
H	 -4.408836	 -0.679689	 -0.875387
H	 -3.443486	 -1.878443	 -0.002770
H	 -4.412123	 -0.683688	 0.871605
C	 -0.332055	 0.384012	 -0.000250
C	 0.892252	 -0.506059	 -0.000295
H	 -0.360822	 1.020205	 -0.874146
H	 -0.359817	 1.021310	 0.872861
C	 2.064955	 0.129912	 0.740428
H	 1.173229	 -0.717857	 -1.026873
H	 0.636454	 -1.456392	 0.456978
C	 3.311575	 -0.750362	 0.753905
H	 2.307684	 1.085614	 0.282505
H	 1.771387	 0.348784	 1.764091
C	 4.483313	 -0.115714	 1.495026
H	 3.606945	 -0.968322	 -0.268497
H	 3.070282	 -1.705631	 1.211427
H	 4.770730	 0.825978	 1.039557
H	 5.350807	 -0.765240	 1.486211
H	 4.229789	 0.083256	 2.530878

	symmetry c1
}
set optking {
	frozen_dihedral = ("
		13 9 8 10
	")
}

ee,wfn = optimize('scf', return_wfn=True)
oeprop( wfn, 'DIPOLE', 'QUADRUPOLE', 'MULLIKEN_CHARGES')
f=open( 'psi4out.xyz', 'w' )
f.write( "23  " )
f.write( str(ee) + "\n" )
f.write( MOL.save_string_xyz() )
f.close()
--------------------------------------------------------------------------

    Molecular point group: c1
  Charge       = 0
  Multiplicity = 1
  Basis Set: CC-PVTZ
  Basis Set:
  @DF-RHF Final Energy:  -423.13144903713516
    Total Energy =                       -423.1314490371356669
    Molecular point group: c1
  Basis Set: CC-PVTZ
  Basis Set:
  Basis Set: CC-PVTZ
  Basis Set:
  @DF-RHF Final Energy:  -423.13148379294489
    Total Energy =                       -423.1314837929450050
  Basis Set: CC-PVTZ
  Basis Set:
  Basis Set: CC-PVTZ
  Basis Set:
  @DF-RHF Final Energy:  -423.13172646605665
    Total Energy =                       -423.1317264660566480
  Basis Set: CC-PVTZ
  Basis Set:
  Basis Set: CC-PVTZ
  Basis Set:
  @DF-RHF Final Energy:  -423.13183237073696
    Total Energy =                       -423.1318323707365607
  Basis Set: CC-PVTZ
  Basis Set:
  Basis Set: CC-PVTZ
  Basis Set:
  @DF-RHF Final Energy:  -423.13183643189495
    Total Energy =                       -423.1318364318951808
  Basis Set: CC-PVTZ
  Basis Set:
  Basis Set: CC-PVTZ
  Basis Set:
  @DF-RHF Final Energy:  -423.13183811807494
    Total Energy =                       -423.1318381180749384
  Basis Set: CC-PVTZ
  Basis Set:
  Charge       = 0
  Multiplicity = 1
  Basis Set: CC-PVTZ
  Basis Set:

    Orbital Energies (a.u.)
    -----------------------

    Doubly Occupied:

       1A    -20.595122     2A    -20.529035     3A    -11.365791
       4A    -11.280001     5A    -11.230390     6A    -11.222401
       7A    -11.221005     8A    -11.219163     9A    -11.210839
      10A     -1.470206    11A     -1.363104    12A     -1.094411
      13A     -1.042472    14A     -1.003668    15A     -0.931420
      16A     -0.842667    17A     -0.802184    18A     -0.776850
      19A     -0.693434    20A     -0.686880    21A     -0.670109
      22A     -0.648029    23A     -0.608106    24A     -0.587089
      25A     -0.583759    26A     -0.569290    27A     -0.559287
      28A     -0.537000    29A     -0.525271    30A     -0.504627
      31A     -0.495280    32A     -0.476204    33A     -0.471670
      34A     -0.466317    35A     -0.452882    36A     -0.438314

  @DF-RHF Final Energy:  -423.13183826868300

   => Energetics <=

    Nuclear Repulsion Energy =            450.5803856292591831
    One-Electron Energy =               -1469.0758989142630071
    Two-Electron Energy =                 595.3636750163209399
    DFT Exchange-Correlation Energy =       0.0000000000000000
    Empirical Dispersion Energy =           0.0000000000000000
    PCM Polarization Energy =               0.0000000000000000
    EFP Energy =                            0.0000000000000000
    Total Energy =                       -423.1318382686829409
    Molecular point group: c1
  Basis Set: CC-PVTZ
  Basis Set:

  -Total Gradient:
     Atom            X                  Y                   Z
    ------   -----------------  -----------------  -----------------
       1        0.000003547069    -0.000057377555     0.000010827768
       2        0.000009758992     0.000054593287    -0.000019055494
       3       -0.000002701392    -0.000002830096     0.000019478890
       4        0.000005729896     0.000011021294    -0.000002714749
       5        0.000008102100    -0.000007217630     0.000008697947
       6       -0.000007070122     0.000016099222    -0.000001329602
       7        0.000008686842    -0.000002551427    -0.000020619367
       8        0.003652137754     0.005004042374     0.002847880986
       9       -0.003996573810    -0.005398665996    -0.000492583960
      10       -0.002406513109    -0.003277522384    -0.002254094123
      11       -0.000001457880    -0.000001057182    -0.000005415668
      12        0.000009129174     0.000005200406    -0.000010247552
      13        0.002732235585     0.003652676486    -0.000067491488
      14       -0.000003566383    -0.000001465236    -0.000003867539
      15        0.000000446477     0.000002160509    -0.000010789881
      16        0.000003943550     0.000003284867    -0.000002100827
      17       -0.000001644272    -0.000003397786    -0.000003392080
      18       -0.000007398290     0.000001745917     0.000008668992
      19       -0.000001915205     0.000001344203    -0.000001589277
      20       -0.000003100917    -0.000001002177    -0.000002089699
      21        0.000000896560     0.000000275312    -0.000001564538
      22       -0.000004957614    -0.000002722116     0.000000213784
      23        0.000002284995     0.000003365712     0.000003177477

  **** Optimization is complete! (in 7 steps) ****
    Final optimized geometry and variables:
    Molecular point group: c1

    Geometry (in Angstrom), charge = 0, multiplicity = 1:

    O           -2.757391183073     1.390243442058    -0.386315719214
    C           -2.619548747742     0.214015049735    -0.361818466410
    C           -3.765563695645    -0.761061519382    -0.394287703112
    O           -1.445555155373    -0.383009374921    -0.301779736538
    H           -4.339984443465    -0.586794096075    -1.294193477274
    H           -3.425567471131    -1.783955463386    -0.366282895377
    H           -4.410307340260    -0.562389952105     0.451295028154
    C           -0.283779173300     0.442881704445    -0.270470230380
    C            0.935699861670    -0.466835191584    -0.249731351040
    H           -0.303196765465     1.064512660215    -1.153580734514
    H           -0.332064039206     1.076782799299     0.603097180103
    C            2.127854655144     0.190538696674     0.444820829963
    H            1.225289969269    -0.705022364903    -1.267635415806
    H            0.679673929221    -1.392331285345     0.250846473422
    C            3.391073260819    -0.663888874792     0.403278586969
    H            2.332799029987     1.153215420604    -0.018591052710
    H            1.869621472679     0.400481731872     1.479595596549
    C            4.575602764642    -0.015009596353     1.111131623499
    H            3.655167985865    -0.863984518224    -0.631382189617
    H            3.184600148920    -1.629505273343     0.856684689296
    H            4.827760130595     0.938195330022     0.658554053277
    H            5.455012097048    -0.646591623343     1.062777083918
    H            4.355288271611     0.165465892006     2.157939269887

  Mulliken Charges: (a.u.)
   Center  Symbol    Alpha    Beta     Spin     Total
       1     O     4.20297  4.20297  0.00000 -0.40594
       2     C     2.81185  2.81185  0.00000  0.37629
       3     C     3.13942  3.13942  0.00000 -0.27885
       4     O     4.14643  4.14643  0.00000 -0.29287
       5     H     0.44220  0.44220  0.00000  0.11561
       6     H     0.44206  0.44206  0.00000  0.11587
       7     H     0.44230  0.44230  0.00000  0.11541
       8     C     2.98148  2.98148  0.00000  0.03703
       9     C     3.08571  3.08571  0.00000 -0.17142
      10     H     0.45159  0.45159  0.00000  0.09682
      11     H     0.45396  0.45396  0.00000  0.09207
      12     C     3.09656  3.09656  0.00000 -0.19312
      13     H     0.45193  0.45193  0.00000  0.09614
      14     H     0.44691  0.44691  0.00000  0.10618
      15     C     3.08567  3.08567  0.00000 -0.17134
      16     H     0.45275  0.45275  0.00000  0.09450
      17     H     0.45275  0.45275  0.00000  0.09450
      18     C     3.14938  3.14938  0.00000 -0.29876
      19     H     0.45356  0.45356  0.00000  0.09288
      20     H     0.45356  0.45356  0.00000  0.09289
      21     H     0.45462  0.45462  0.00000  0.09076
      22     H     0.44779  0.44779  0.00000  0.10442
      23     H     0.45454  0.45454  0.00000  0.09091

   Total alpha = 36.00000, Total beta = 36.00000, Total charge = -0.00000

*** Psi4 exiting successfully. Buy a developer a beer!
