  ==> Input File <==

--------------------------------------------------------------------------
set {
	reference rhf
	basis cc-pvtz
}

set_num_threads( 4 )
memory 2 gb

molecule MOL {
0 1

H	 -3.642953	 0.223825	 0.000000
C	 -2.571844	 0.155001	 0.000000
C	 -1.957580	 -1.086132	 0.000000
C	 -1.807160	 1.303787	 0.000000
H	 -2.551493	 -1.979629	 0.000000
C	 -0.582719	 -1.174294	 0.000000
H	 -2.279934	 2.266806	 0.000000
C	 -0.427220	 1.213406	 0.000000
H	 -0.094904	 -2.127556	 0.000000
C	 0.196908	 -0.024061	 0.000000
H	 0.151409	 2.115254	 0.000000
C	 1.690041	 -0.173233	 0.000000
C	 2.465739	 0.203360	 -1.241422
O	 2.256256	 -0.582093	 0.963118
H	 2.145707	 -0.391076	 -2.088892
H	 3.513937	 0.030920	 -1.056286
H	 2.309290	 1.246303	 -1.489969

	symmetry c1
}
set optking {
	frozen_dihedral = ("
		13 12 10 8
	")
}

ee = optimize('scf')
oeprop('DIPOLE', 'QUADRUPOLE', 'MULLIKEN_CHARGES')
f=open( 'psi4out.xyz', 'w' )
f.write( "17  " )
f.write( str(ee) + "\n" )
f.write( MOL.save_string_xyz() )
f.close()
--------------------------------------------------------------------------

    Molecular point group: c1
  Charge       = 0
  Multiplicity = 1
  Basis Set: CC-PVTZ
  Basis Set:
  @DF-RHF Final Energy:  -382.59774904700777
    Total Energy =                       -382.5977490470074827
    Molecular point group: c1
  Basis Set: CC-PVTZ
  Basis Set:
  Basis Set: CC-PVTZ
  Basis Set:
  @DF-RHF Final Energy:  -382.59679927463537
    Total Energy =                       -382.5967992746353730
  Basis Set: CC-PVTZ
  Basis Set:
  Basis Set: CC-PVTZ
  Basis Set:
  @DF-RHF Final Energy:  -382.59848411175125
    Total Energy =                       -382.5984841117515316
  Basis Set: CC-PVTZ
  Basis Set:
  Basis Set: CC-PVTZ
  Basis Set:
  @DF-RHF Final Energy:  -382.59866255445650
    Total Energy =                       -382.5986625544564959
  Basis Set: CC-PVTZ
  Basis Set:
  Basis Set: CC-PVTZ
  Basis Set:
  @DF-RHF Final Energy:  -382.59867315581670
    Total Energy =                       -382.5986731558168685
  Basis Set: CC-PVTZ
  Basis Set:
  Basis Set: CC-PVTZ
  Basis Set:
  @DF-RHF Final Energy:  -382.59867923540025
    Total Energy =                       -382.5986792354005956
  Basis Set: CC-PVTZ
  Basis Set:
  Charge       = 0
  Multiplicity = 1
  Basis Set: CC-PVTZ
  Basis Set:

    Orbital Energies (a.u.)
    -----------------------

    Doubly Occupied:

       1A    -20.547122     2A    -11.330326     3A    -11.246240
       4A    -11.242999     5A    -11.240544     6A    -11.239729
       7A    -11.238709     8A    -11.237637     9A    -11.231168
      10A     -1.407138    11A     -1.171097    12A     -1.053837
      13A     -1.029872    14A     -1.001384    15A     -0.862671
      16A     -0.841229    17A     -0.765201    18A     -0.707236
      19A     -0.665675    20A     -0.649121    21A     -0.629972
      22A     -0.623649    23A     -0.602600    24A     -0.592571
      25A     -0.564174    26A     -0.527344    27A     -0.517035
      28A     -0.509290    29A     -0.496967    30A     -0.413828
      31A     -0.348788    32A     -0.346717

  @DF-RHF Final Energy:  -382.59867958749470

   => Energetics <=

    Nuclear Repulsion Energy =            403.7306612576676912
    One-Electron Energy =               -1318.8949425746225188
    Two-Electron Energy =                 532.5656017294602407
    DFT Exchange-Correlation Energy =       0.0000000000000000
    Empirical Dispersion Energy =           0.0000000000000000
    PCM Polarization Energy =               0.0000000000000000
    EFP Energy =                            0.0000000000000000
    Total Energy =                       -382.5986795874946438
    Molecular point group: c1
  Basis Set: CC-PVTZ
  Basis Set:

  -Total Gradient:
     Atom            X                  Y                   Z
    ------   -----------------  -----------------  -----------------
       1       -0.000001636360     0.000000207433    -0.000002207210
       2       -0.000006254200    -0.000042583900    -0.000025726674
       3       -0.000036012078     0.000020671336    -0.000001672995
       4        0.000047044183     0.000026601820     0.000053376863
       5        0.000001574629     0.000000512108     0.000005126900
       6        0.000022084681     0.000036901421     0.000002760324
       7       -0.000001558997    -0.000000499561    -0.000005459100
       8       -0.000149174385    -0.000027499198     0.003382091862
       9        0.000007003589    -0.000005520627    -0.000005804018
      10        0.000043850551    -0.001276654498    -0.005546224440
      11       -0.000004860831     0.000003702345     0.000006723235
      12        0.000313216964     0.004067742567     0.003286289080
      13       -0.000252927531    -0.002827764469    -0.001103757347
      14       -0.000017513885     0.000021347087    -0.000042439851
      15        0.000010185115     0.000005066945     0.000004439699
      16        0.000020797465     0.000000654962    -0.000014119113
      17        0.000004181089    -0.000002885772     0.000006602786

  **** Optimization is complete! (in 7 steps) ****
    Final optimized geometry and variables:
    Molecular point group: c1

    Geometry (in Angstrom), charge = 0, multiplicity = 1:

    H           -3.633770423969     0.278137758156     0.050185351450
    C           -2.563788565392     0.197474775944     0.039351252816
    C           -1.962772649036    -1.047578073533     0.040716323731
    C           -1.783811564352     1.337668784481     0.031820523587
    H           -2.565178083873    -1.935492225626     0.054968381593
    C           -0.585714167962    -1.152457804284     0.039108305258
    H           -2.245554307350     2.306213450525     0.044945851401
    C           -0.405853786897     1.233505569764     0.008866600882
    H           -0.118620237283    -2.118048319461     0.069318777377
    C            0.198632144638    -0.011674389233     0.006121886022
    H            0.193412269050     2.124773024166     0.002985511356
    C            1.698025804226    -0.145324848038     0.050882819414
    C            2.461388304106     0.273607829305    -1.181625514996
    O            2.237866549413    -0.625066664299     0.991999732989
    H            2.169197270976    -0.368030840167    -2.005940100684
    H            3.522690807453     0.184800485324    -1.005977628340
    H            2.213703830269     1.289089117536    -1.467035898183

  Mulliken Charges: (a.u.)
   Center  Symbol    Alpha    Beta     Spin     Total
       1     H     0.42144  0.42144  0.00000  0.15712
       2     C     3.08340  3.08340  0.00000 -0.16680
       3     C     3.06385  3.06385  0.00000 -0.12770
       4     C     3.06575  3.06575  0.00000 -0.13149
       5     H     0.42134  0.42134  0.00000  0.15732
       6     C     3.08997  3.08997  0.00000 -0.17995
       7     H     0.42165  0.42165  0.00000  0.15669
       8     C     3.09726  3.09726  0.00000 -0.19452
       9     H     0.41936  0.41936  0.00000  0.16128
      10     C     2.96434  2.96434  0.00000  0.07133
      11     H     0.42410  0.42410  0.00000  0.15180
      12     C     2.87878  2.87878  0.00000  0.24244
      13     C     3.15004  3.15004  0.00000 -0.30007
      14     O     4.16677  4.16677  0.00000 -0.33354
      15     H     0.44590  0.44590  0.00000  0.10820
      16     H     0.43649  0.43649  0.00000  0.12702
      17     H     0.44957  0.44957  0.00000  0.10087

   Total alpha = 32.00000, Total beta = 32.00000, Total charge = -0.00000
