  ==> Input File <==

--------------------------------------------------------------------------
set {
	reference rhf
	basis 6-31G*
}

set_num_threads( 1 )
memory 2 gb

molecule MOL {
0 1

H	 -4.236494	 0.538104	 0.039757
O	 -3.517110	 -0.026191	 -0.205115
C	 -2.306886	 0.532354	 0.237577
C	 -1.177863	 -0.397191	 -0.171080
H	 -2.156308	 1.517575	 -0.201710
H	 -2.315015	 0.655684	 1.319734
C	 0.198102	 0.111031	 0.262842
H	 -1.208843	 -0.518759	 -1.250427
H	 -1.368741	 -1.376554	 0.258909
C	 1.331804	 -0.827780	 -0.158768
H	 0.361943	 1.100838	 -0.156218
H	 0.217265	 0.229072	 1.345532
C	 2.723619	 -0.410569	 0.329459
H	 1.342964	 -0.912588	 -1.244120
H	 1.116806	 -1.824343	 0.220779
C	 3.872506	 -1.251763	 -0.229814
H	 2.740699	 -0.475523	 1.414621
H	 2.890943	 0.636843	 0.086362
H	 3.725555	 -2.306384	 -0.012513
H	 3.968107	 -1.145832	 -1.305368
H	 4.818652	 -0.953323	 0.211201

	symmetry c1
}
set optking {
	frozen_dihedral = ("
		2 3 4 8,
		8 4 7 10,
		4 7 10 14,
		1 2 3 5
	")
}

ee = energy('scf')
oeprop('DIPOLE', 'QUADRUPOLE', 'MULLIKEN_CHARGES')
f=open( 'psi4out.xyz', 'w' )
f.write( "21  " )
f.write( str(ee) + "\n" )
f.write( MOL.save_string_xyz() )
f.close()
--------------------------------------------------------------------------

    Molecular point group: c1

    Geometry (in Angstrom), charge = 0, multiplicity = 1:

       Center              X                  Y                   Z               Mass
    ------------   -----------------  -----------------  -----------------  -----------------
           H         -4.328698502019     0.853653024266     0.032959850842     1.007825032070
           O         -3.609314502019     0.289358024266    -0.211912149158    15.994914619560
           C         -2.399090502019     0.847903024266     0.230779850842    12.000000000000
           C         -1.270067502019    -0.081641975734    -0.177877149158    12.000000000000
           H         -2.248512502019     1.833124024266    -0.208507149158     1.007825032070
           H         -2.407219502019     0.971233024266     1.312936850842     1.007825032070
           C          0.105897497981     0.426580024266     0.256044850842    12.000000000000
           H         -1.301047502019    -0.203209975734    -1.257224149158     1.007825032070
           H         -1.460945502019    -1.061004975734     0.252111850842     1.007825032070
           C          1.239599497981    -0.512230975734    -0.165565149158    12.000000000000
           H          0.269738497981     1.416387024266    -0.163015149158     1.007825032070
           H          0.125060497981     0.544621024266     1.338734850842     1.007825032070
           C          2.631414497981    -0.095019975734     0.322661850842    12.000000000000
           H          1.250759497981    -0.597038975734    -1.250917149158     1.007825032070
           H          1.024601497981    -1.508793975734     0.213981850842     1.007825032070
           C          3.780301497981    -0.936213975734    -0.236611149158    12.000000000000
           H          2.648494497981    -0.159973975734     1.407823850842     1.007825032070
           H          2.798738497981     0.952392024266     0.079564850842     1.007825032070
           H          3.633350497981    -1.990834975734    -0.019310149158     1.007825032070
           H          3.875902497981    -0.830282975734    -1.312165149158     1.007825032070
           H          4.726447497981    -0.637773975734     0.204403850842     1.007825032070

  Charge       = 0
  Multiplicity = 1
  Basis Set: 6-31G*
  Basis Set:

    Orbital Energies (a.u.)
    -----------------------

    Doubly Occupied:

       1A    -20.551988     2A    -11.267254     3A    -11.216628
       4A    -11.215086     5A    -11.213576     6A    -11.210925
       7A    -11.208591     8A     -1.358812     9A     -1.085417
      10A     -1.034350    11A     -0.957133    12A     -0.868336
      13A     -0.802387    14A     -0.789769    15A     -0.691920
      16A     -0.663858    17A     -0.631726    18A     -0.596184
      19A     -0.581366    20A     -0.561831    21A     -0.547455
      22A     -0.521940    23A     -0.507830    24A     -0.483660
      25A     -0.478248    26A     -0.460678    27A     -0.459877
      28A     -0.444668    29A     -0.434122

  @DF-RHF Final Energy:  -310.21385728440004

   => Energetics <=

    Nuclear Repulsion Energy =            308.4365192903505317
    One-Electron Energy =               -1031.6095424900124726
    Two-Electron Energy =                 412.9591659152630996
    DFT Exchange-Correlation Energy =       0.0000000000000000
    Empirical Dispersion Energy =           0.0000000000000000
    PCM Polarization Energy =               0.0000000000000000
    EFP Energy =                            0.0000000000000000
    Total Energy =                       -310.2138572843987845

  Mulliken Charges: (a.u.)
   Center  Symbol    Alpha    Beta     Spin     Total
       1     H     0.28114  0.28114  0.00000  0.43772
       2     O     4.37179  4.37179  0.00000 -0.74357
       3     C     2.98973  2.98973  0.00000  0.02055
       4     C     3.15953  3.15953  0.00000 -0.31906
       5     H     0.43285  0.43285  0.00000  0.13429
       6     H     0.43278  0.43278  0.00000  0.13444
       7     C     3.16025  3.16025  0.00000 -0.32050
       8     H     0.41463  0.41463  0.00000  0.17075
       9     H     0.41462  0.41462  0.00000  0.17076
      10     C     3.15006  3.15006  0.00000 -0.30012
      11     H     0.42312  0.42312  0.00000  0.15375
      12     H     0.42370  0.42370  0.00000  0.15259
      13     C     3.15125  3.15125  0.00000 -0.30249
      14     H     0.42306  0.42306  0.00000  0.15389
      15     H     0.42285  0.42285  0.00000  0.15430
      16     C     3.23943  3.23943  0.00000 -0.47886
      17     H     0.42348  0.42348  0.00000  0.15304
      18     H     0.42376  0.42376  0.00000  0.15248
      19     H     0.42158  0.42158  0.00000  0.15683
      20     H     0.42102  0.42102  0.00000  0.15796
      21     H     0.41938  0.41938  0.00000  0.16125

   Total alpha = 29.00000, Total beta = 29.00000, Total charge =  0.00000
