  ==> Input File <==

--------------------------------------------------------------------------
set {
	reference rhf
	basis cc-pvtz
}

set_num_threads( 4 )
memory 2 gb

molecule MOL {
0 1

H	 1.074655	 2.266928	 0.934139
O	 1.317683	 1.360617	 0.997303
C	 0.706474	 0.636793	 -0.025501
C	 -0.793473	 0.591216	 0.050087
H	 1.097466	 -0.371949	 0.036682
H	 0.997629	 1.022242	 -1.000876
C	 -1.534243	 -0.493009	 -0.013340
H	 -1.266611	 1.552628	 0.164437
H	 -1.101195	 -1.466332	 -0.144046
H	 -2.604242	 -0.437780	 0.050785

	symmetry c1
}
set optking {
	frozen_dihedral = ("
		5 3 4 7
	")
}

ee = optimize('scf')
oeprop('DIPOLE', 'QUADRUPOLE', 'MULLIKEN_CHARGES')
f=open( 'psi4out.xyz', 'w' )
f.write( "10  " )
f.write( str(ee) + "\n" )
f.write( MOL.save_string_xyz() )
f.close()
--------------------------------------------------------------------------

    Molecular point group: c1
  Charge       = 0
  Multiplicity = 1
  Basis Set: CC-PVTZ
  Basis Set:
  @DF-RHF Final Energy:  -191.99627052352594
    Total Energy =                       -191.9962705235259932
    Molecular point group: c1
  Basis Set: CC-PVTZ
  Basis Set:
  Basis Set: CC-PVTZ
  Basis Set:
  @DF-RHF Final Energy:  -191.99667362628082
    Total Energy =                       -191.9966736262807387
  Basis Set: CC-PVTZ
  Basis Set:
  Basis Set: CC-PVTZ
  Basis Set:
  @DF-RHF Final Energy:  -191.99674043744585
    Total Energy =                       -191.9967404374458511
  Basis Set: CC-PVTZ
  Basis Set:
  Basis Set: CC-PVTZ
  Basis Set:
  @DF-RHF Final Energy:  -191.99674609040864
    Total Energy =                       -191.9967460904085499
  Basis Set: CC-PVTZ
  Basis Set:
  Basis Set: CC-PVTZ
  Basis Set:
  @DF-RHF Final Energy:  -191.99674728834782
    Total Energy =                       -191.9967472883476489
  Basis Set: CC-PVTZ
  Basis Set:
  Charge       = 0
  Multiplicity = 1
  Basis Set: CC-PVTZ
  Basis Set:

    Orbital Energies (a.u.)
    -----------------------

    Doubly Occupied:

       1A    -20.552029     2A    -11.276466     3A    -11.230688
       4A    -11.221622     5A     -1.370223     6A     -1.066893
       7A     -0.923579     8A     -0.781948     9A     -0.693195
      10A     -0.657588    11A     -0.623294    12A     -0.572113
      13A     -0.541087    14A     -0.498181    15A     -0.446644
      16A     -0.374764

  @DF-RHF Final Energy:  -191.99674769137226

   => Energetics <=

    Nuclear Repulsion Energy =            117.4414500279138593
    One-Electron Energy =                -493.2157644119528186
    Two-Electron Energy =                 183.7775666926667100
    DFT Exchange-Correlation Energy =       0.0000000000000000
    Empirical Dispersion Energy =           0.0000000000000000
    PCM Polarization Energy =               0.0000000000000000
    EFP Energy =                            0.0000000000000000
    Total Energy =                       -191.9967476913722635
    Molecular point group: c1
  Basis Set: CC-PVTZ
  Basis Set:

  -Total Gradient:
     Atom            X                  Y                   Z
    ------   -----------------  -----------------  -----------------
       1       -0.000024378046     0.000014265694    -0.000015056438
       2        0.000084059549    -0.000000118525     0.000104081442
       3       -0.000146964055    -0.000017483114    -0.001106864005
       4        0.000044979338    -0.000064417071     0.000946541011
       5        0.000038068375     0.000043189301     0.000591239647
       6        0.000011573436    -0.000015897082     0.000010206088
       7       -0.000012126014     0.000047838354    -0.000542767359
       8        0.000012884572    -0.000011901019     0.000004025312
       9       -0.000007499915     0.000007446408     0.000009848711
      10       -0.000000597239    -0.000002922946    -0.000001254407

  **** Optimization is complete! (in 6 steps) ****
    Final optimized geometry and variables:
    Molecular point group: c1

    Geometry (in Angstrom), charge = 0, multiplicity = 1:

    H            1.108936893220     1.690154953613     0.655165684207
    O            1.306824598834     0.774506319944     0.731095841278
    C            0.711173858094     0.060588582440    -0.319490692317
    C           -0.787795975502     0.032774282040    -0.228196470334
    H            1.103298977502    -0.944660268894    -0.264971513805
    H            1.011069907277     0.480505999075    -1.276902855072
    C           -1.521024698797    -1.056116725145    -0.288769368140
    H           -1.271219225189     0.991745737694    -0.128603766296
    H           -1.076446422637    -2.030642410402    -0.382245088664
    H           -2.592987915307    -1.015736070474    -0.245919391156

  Mulliken Charges: (a.u.)
   Center  Symbol    Alpha    Beta     Spin     Total
       1     H     0.39346  0.39346  0.00000  0.21307
       2     O     4.19977  4.19977  0.00000 -0.39953
       3     C     2.95600  2.95600  0.00000  0.08799
       4     C     3.06494  3.06494  0.00000 -0.12989
       5     H     0.45450  0.45450  0.00000  0.09099
       6     H     0.47022  0.47022  0.00000  0.05957
       7     C     3.16920  3.16920  0.00000 -0.33841
       8     H     0.43236  0.43236  0.00000  0.13527
       9     H     0.43072  0.43072  0.00000  0.13855
      10     H     0.42881  0.42881  0.00000  0.14237

   Total alpha = 16.00000, Total beta = 16.00000, Total charge =  0.00000
