  ==> Input File <==

--------------------------------------------------------------------------
set {
	reference rhf
	basis 6-31G*
}

set_num_threads( 4 )
memory 2 gb

molecule MOL {
0 1

H	 -2.365627	 -1.312883	 -0.379134
C	 -1.358347	 -1.274295	 0.019669
C	 -0.681945	 0.000119	 -0.470601
H	 -0.826096	 -2.155117	 -0.321105
H	 -1.409554	 -1.292283	 1.100109
C	 -1.357790	 1.274691	 0.020220
N	 0.739525	 -0.000142	 0.006128
H	 -0.594190	 0.000341	 -1.545128
H	 -2.364980	 1.313977	 -0.378631
H	 -0.825080	 2.155361	 -0.320114
H	 -1.409060	 1.292170	 1.100671
O	 1.319336	 -1.041487	 0.006741
O	 1.200670	 1.044343	 0.355123

	symmetry c1
}
set optking {
	frozen_dihedral = ("
		12 7 3 8
	")
}

ee = optimize('scf')
oeprop('DIPOLE', 'QUADRUPOLE', 'MULLIKEN_CHARGES')
f=open( 'psi4out.xyz', 'w' )
f.write( "13  " )
f.write( str(ee) + "\n" )
f.write( MOL.save_string_xyz() )
f.close()
--------------------------------------------------------------------------

    Molecular point group: c1
  Charge       = 0
  Multiplicity = 1
  Basis Set: 6-31G*
  Basis Set:
  @DF-RHF Final Energy:  -321.73614240076506
    Total Energy =                       -321.7361424007650612
    Molecular point group: c1
  Basis Set: 6-31G*
  Basis Set:
  Basis Set: 6-31G*
  Basis Set:
  @DF-RHF Final Energy:  -321.73388215081877
    Total Energy =                       -321.7338821508188857
  Basis Set: 6-31G*
  Basis Set:
  Basis Set: 6-31G*
  Basis Set:
  @DF-RHF Final Energy:  -321.73448405363240
    Total Energy =                       -321.7344840536322295
  Basis Set: 6-31G*
  Basis Set:
  Basis Set: 6-31G*
  Basis Set:
  @DF-RHF Final Energy:  -321.73675328371809
    Total Energy =                       -321.7367532837181443
  Basis Set: 6-31G*
  Basis Set:
  Basis Set: 6-31G*
  Basis Set:
  @DF-RHF Final Energy:  -321.73710034064248
    Total Energy =                       -321.7371003406425416
  Basis Set: 6-31G*
  Basis Set:
  Basis Set: 6-31G*
  Basis Set:
  @DF-RHF Final Energy:  -321.73711971050727
    Total Energy =                       -321.7371197105073293
  Basis Set: 6-31G*
  Basis Set:
  Basis Set: 6-31G*
  Basis Set:
  @DF-RHF Final Energy:  -321.73712213544223
    Total Energy =                       -321.7371221354422914
  Basis Set: 6-31G*
  Basis Set:
  Charge       = 0
  Multiplicity = 1
  Basis Set: 6-31G*
  Basis Set:

    Orbital Energies (a.u.)
    -----------------------

    Doubly Occupied:

       1A    -20.600823     2A    -20.598100     3A    -15.844649
       4A    -11.308754     5A    -11.242171     6A    -11.240612
       7A     -1.629557     8A     -1.414304     9A     -1.141124
      10A     -0.967912    11A     -0.959173    12A     -0.812625
      13A     -0.762645    14A     -0.725080    15A     -0.719819
      16A     -0.639120    17A     -0.596208    18A     -0.585450
      19A     -0.571188    20A     -0.522615    21A     -0.521715
      22A     -0.479951    23A     -0.471839    24A     -0.447498

  @DF-RHF Final Energy:  -321.73712267111341

   => Energetics <=

    Nuclear Repulsion Energy =            256.6759167527584395
    One-Electron Energy =                -947.2202156004085509
    Two-Electron Energy =                 368.8071761765367000
    DFT Exchange-Correlation Energy =       0.0000000000000000
    Empirical Dispersion Energy =           0.0000000000000000
    PCM Polarization Energy =               0.0000000000000000
    EFP Energy =                            0.0000000000000000
    Total Energy =                       -321.7371226711134113
    Molecular point group: c1
  Basis Set: 6-31G*
  Basis Set:

  -Total Gradient:
     Atom            X                  Y                   Z
    ------   -----------------  -----------------  -----------------
       1        0.000007796267     0.000002390572    -0.000002159644
       2        0.000005527471    -0.000008167236     0.000002598844
       3       -0.000090241258    -0.000783418343     0.000226952615
       4        0.000007641195    -0.000018995837     0.000004800685
       5       -0.000000710049     0.000001073196    -0.000002909174
       6       -0.000015464469     0.000015990558    -0.000006991572
       7        0.000274904352     0.000246419882    -0.000876126659
       8        0.000019625256     0.000650614565     0.000014543458
       9        0.000011189061    -0.000002527617     0.000002177169
      10       -0.000004282560     0.000010838633     0.000003443134
      11       -0.000003140442    -0.000000378976     0.000004923653
      12       -0.000221577771    -0.000093426656     0.000621790302
      13        0.000008732943    -0.000020412736     0.000006957188

  **** Optimization is complete! (in 8 steps) ****
    Final optimized geometry and variables:
    Molecular point group: c1

    Geometry (in Angstrom), charge = 0, multiplicity = 1:

    H           -2.395041013411    -1.264592014231    -0.367657727181
    C           -1.379391614726    -1.269893132021     0.010849674343
    C           -0.685126017476     0.007452579531    -0.444259569859
    H           -0.875116881330    -2.149930299102    -0.358006975967
    H           -1.421309243117    -1.320801509751     1.093252580755
    C           -1.388845245702     1.275952550251     0.014117986008
    N            0.750118150163    -0.000636993951     0.021099194474
    H           -0.582239668493     0.010193477544    -1.523193876250
    H           -2.402719928953     1.261364192633    -0.369737678174
    H           -0.893358358979     2.163096976713    -0.350951197193
    H           -1.433688128902     1.327529365558     1.095521085170
    O            1.320023076405    -1.048630765298     0.010574575083
    O            1.244426079052     1.037358778220     0.334718465398

  Mulliken Charges: (a.u.)
   Center  Symbol    Alpha    Beta     Spin     Total
       1     H     0.41043  0.41043  0.00000  0.17913
       2     C     3.24628  3.24628  0.00000 -0.49256
       3     C     3.02883  3.02883  0.00000 -0.05766
       4     H     0.39159  0.39159  0.00000  0.21681
       5     H     0.40775  0.40775  0.00000  0.18450
       6     C     3.24297  3.24297  0.00000 -0.48593
       7     N     3.21612  3.21612  0.00000  0.56777
       8     H     0.38498  0.38498  0.00000  0.23004
       9     H     0.41191  0.41191  0.00000  0.17617
      10     H     0.39518  0.39518  0.00000  0.20964
      11     H     0.40644  0.40644  0.00000  0.18712
      12     O     4.22918  4.22918  0.00000 -0.45835
      13     O     4.22834  4.22834  0.00000 -0.45669

   Total alpha = 24.00000, Total beta = 24.00000, Total charge = -0.00000
