  ==> Input File <==

--------------------------------------------------------------------------
set {
	reference rhf
	basis 6-31G*
}

set_num_threads( 1 )
memory 2 gb

molecule MOL {
0 1

H	 2.770533	 -0.500140	 0.452794
O	 2.016064	 -0.864478	 0.000222
C	 1.050492	 0.053836	 0.000068
C	 -0.318135	 -0.576402	 0.000164
O	 1.285279	 1.218255	 -0.000078
C	 -1.454360	 0.441875	 -0.000474
H	 -0.374042	 -1.230163	 -0.866135
H	 -0.374274	 -1.229227	 0.867154
C	 -2.826123	 -0.230780	 0.000056
H	 -1.357605	 1.085198	 -0.868380
H	 -1.357504	 1.086451	 0.866496
H	 -2.959731	 -0.858053	 -0.876869
H	 -3.619374	 0.509403	 -0.000080
H	 -2.959371	 -0.857318	 0.877556

	symmetry c1
}
set optking {
	frozen_dihedral = ("
		7 4 6 10,
		2 3 4 7
	")
}

ee = energy('scf')
oeprop('DIPOLE', 'QUADRUPOLE', 'MULLIKEN_CHARGES')
f=open( 'psi4out.xyz', 'w' )
f.write( "14  " )
f.write( str(ee) + "\n" )
f.write( MOL.save_string_xyz() )
f.close()
--------------------------------------------------------------------------

    Molecular point group: c1

    Geometry (in Angstrom), charge = 0, multiplicity = 1:

       Center              X                  Y                   Z               Mass
    ------------   -----------------  -----------------  -----------------  -----------------
           H          2.771489718268    -0.499135257445     0.447613582162     1.007825032070
           O          2.017020718268    -0.863473257445    -0.004958417838    15.994914619560
           C          1.051448718268     0.054840742555    -0.005112417838    12.000000000000
           C         -0.317178281732    -0.575397257445    -0.005016417838    12.000000000000
           O          1.286235718268     1.219259742555    -0.005258417838    15.994914619560
           C         -1.453403281732     0.442879742555    -0.005654417838    12.000000000000
           H         -0.373085281732    -1.229158257445    -0.871315417838     1.007825032070
           H         -0.373317281732    -1.228222257445     0.861973582162     1.007825032070
           C         -2.825166281732    -0.229775257445    -0.005124417838    12.000000000000
           H         -1.356648281732     1.086202742555    -0.873560417838     1.007825032070
           H         -1.356547281732     1.087455742555     0.861315582162     1.007825032070
           H         -2.958774281732    -0.857048257445    -0.882049417838     1.007825032070
           H         -3.618417281732     0.510407742555    -0.005260417838     1.007825032070
           H         -2.958414281732    -0.856313257445     0.872375582162     1.007825032070

  Charge       = 0
  Multiplicity = 1
  Basis Set: 6-31G*
  Basis Set:

    Orbital Energies (a.u.)
    -----------------------

    Doubly Occupied:

       1A    -20.609596     2A    -20.553689     3A    -11.381427
       4A    -11.241088     5A    -11.225376     6A    -11.217073
       7A     -1.473922     8A     -1.366568     9A     -1.082856
      10A     -0.978919    11A     -0.856431    12A     -0.792122
      13A     -0.702042    14A     -0.687823    15A     -0.666661
      16A     -0.622570    17A     -0.584960    18A     -0.571032
      19A     -0.544951    20A     -0.504941    21A     -0.492439
      22A     -0.482421    23A     -0.478486    24A     -0.444557

  @DF-RHF Final Energy:  -305.87542843988570

   => Energetics <=

    Nuclear Repulsion Energy =            239.9641197208529491
    One-Electron Energy =                -892.5552405340721407
    Two-Electron Energy =                 346.7156923733324447
    DFT Exchange-Correlation Energy =       0.0000000000000000
    Empirical Dispersion Energy =           0.0000000000000000
    PCM Polarization Energy =               0.0000000000000000
    EFP Energy =                            0.0000000000000000
    Total Energy =                       -305.8754284398867185

  Mulliken Charges: (a.u.)
   Center  Symbol    Alpha    Beta     Spin     Total
       1     H     0.26679  0.26679  0.00000  0.46641
       2     O     4.35270  4.35270  0.00000 -0.70540
       3     C     2.62649  2.62649  0.00000  0.74702
       4     C     3.20898  3.20898  0.00000 -0.41795
       5     O     4.27344  4.27344  0.00000 -0.54688
       6     C     3.15263  3.15263  0.00000 -0.30526
       7     H     0.39843  0.39843  0.00000  0.20313
       8     H     0.40067  0.40067  0.00000  0.19865
       9     C     3.24284  3.24284  0.00000 -0.48568
      10     H     0.40970  0.40970  0.00000  0.18060
      11     H     0.41092  0.41092  0.00000  0.17816
      12     H     0.42064  0.42064  0.00000  0.15872
      13     H     0.41452  0.41452  0.00000  0.17096
      14     H     0.42125  0.42125  0.00000  0.15751

   Total alpha = 24.00000, Total beta = 24.00000, Total charge =  0.00000
