                              Psi4 1.0.54 Driver

  ==> Input File <==

--------------------------------------------------------------------------
set {
	reference rhf
	basis cc-pvtz
}

set_num_threads( 4 )
memory 2 gb

molecule MOL {
0 1

O	 -1.467776	 2.173241	 -1.999853
C	 -1.583952	 1.277365	 -1.228270
C	 -0.637785	 0.093301	 -1.256722
C	 -2.662128	 1.277871	 -0.170771
C	 0.648498	 0.397573	 -0.478432
H	 -0.396419	 -0.108446	 -2.292652
H	 -1.121158	 -0.784692	 -0.841579
C	 1.630207	 -0.772146	 -0.501001
H	 1.102814	 1.282458	 -0.905989
H	 0.404301	 0.638246	 0.553432
C	 2.907848	 -0.545876	 0.309149
H	 1.893968	 -0.996475	 -1.531576
H	 1.128910	 -1.655985	 -0.116119
C	 3.373802	 0.906639	 0.372125
H	 3.699140	 -1.146831	 -0.127906
H	 2.764321	 -0.923458	 1.318191
H	 3.519798	 1.311927	 -0.623875
H	 4.316899	 0.983758	 0.900700
H	 2.661122	 1.540651	 0.885346
H	 -3.376973	 0.491081	 -0.389760
H	 -3.168511	 2.230727	 -0.156215
H	 -2.241072	 1.065199	 0.805483

	symmetry c1
}
set optking {
	frozen_dihedral = ("
		12 8 11 15
	")
}

ee,wfn = optimize('scf', return_wfn=True)
oeprop( wfn, 'DIPOLE', 'QUADRUPOLE', 'MULLIKEN_CHARGES')
f=open( 'psi4out.xyz', 'w' )
f.write( "22  " )
f.write( str(ee) + "\n" )
f.write( MOL.save_string_xyz() )
f.close()
--------------------------------------------------------------------------

    Molecular point group: c1
  Charge       = 0
  Multiplicity = 1
  Basis Set: CC-PVTZ
  Basis Set:
  @DF-RHF Final Energy:  -348.21867238607445
    Total Energy =                       -348.2186723860744451
    Molecular point group: c1
  Basis Set: CC-PVTZ
  Basis Set:
  Basis Set: CC-PVTZ
  Basis Set:
  @DF-RHF Final Energy:  -348.21020019418745
    Total Energy =                       -348.2102001941876779
  Basis Set: CC-PVTZ
  Basis Set:
  Basis Set: CC-PVTZ
  Basis Set:
  @DF-RHF Final Energy:  -348.21933798152094
    Total Energy =                       -348.2193379815206526
  Basis Set: CC-PVTZ
  Basis Set:
  Basis Set: CC-PVTZ
  Basis Set:
  @DF-RHF Final Energy:  -348.21956975209741
    Total Energy =                       -348.2195697520975273
  Basis Set: CC-PVTZ
  Basis Set:
  @DF-RHF Final Energy:  -348.21943864977555
    Total Energy =                       -348.2194386497753840
  @DF-RHF Final Energy:  -348.21957416438937
    Total Energy =                       -348.2195741643895417
  Basis Set: CC-PVTZ
  Basis Set:
  @DF-RHF Final Energy:  -348.21959072363586
    Total Energy =                       -348.2195907236362586
  Basis Set: CC-PVTZ
  Basis Set:
  Basis Set: CC-PVTZ
  Basis Set:
  @DF-RHF Final Energy:  -348.21958009670453
    Total Energy =                       -348.2195800967051014
  Basis Set: CC-PVTZ
  Basis Set:
  Basis Set: CC-PVTZ
  Basis Set:
  @DF-RHF Final Energy:  -348.21959144962341
    Total Energy =                       -348.2195914496229534
  Basis Set: CC-PVTZ
  Basis Set:
  Charge       = 0
  Multiplicity = 1
  Basis Set: CC-PVTZ
  Basis Set:

    Orbital Energies (a.u.)
    -----------------------

    Doubly Occupied:

       1A    -20.536736     2A    -11.319228     3A    -11.228209
       4A    -11.227477     5A    -11.226904     6A    -11.220605
       7A    -11.219341     8A    -11.209373     9A     -1.396858
      10A     -1.096551    11A     -1.044677    12A     -0.999984
      13A     -0.938474    14A     -0.863285    15A     -0.781388
      16A     -0.734488    17A     -0.665490    18A     -0.647260
      19A     -0.631667    20A     -0.618823    21A     -0.595519
      22A     -0.587780    23A     -0.562399    24A     -0.538911
      25A     -0.534834    26A     -0.526517    27A     -0.499222
      28A     -0.491226    29A     -0.467864    30A     -0.464322
      31A     -0.460255    32A     -0.398580

  @DF-RHF Final Energy:  -348.21959160844796

   => Energetics <=

    Nuclear Repulsion Energy =            374.6276363279529846
    One-Electron Energy =               -1214.2259558393802763
    Two-Electron Energy =                 491.3787279029791080
    DFT Exchange-Correlation Energy =       0.0000000000000000
    Empirical Dispersion Energy =           0.0000000000000000
    PCM Polarization Energy =               0.0000000000000000
    EFP Energy =                            0.0000000000000000
    Total Energy =                       -348.2195916084481269
    Molecular point group: c1
  Basis Set: CC-PVTZ
  Basis Set:

  -Total Gradient:
     Atom            X                  Y                   Z
    ------   -----------------  -----------------  -----------------
       1        0.000003015864    -0.000013007188     0.000024004764
       2       -0.000004889670     0.000013210636    -0.000010468978
       3        0.000001790964    -0.000003624751     0.000001072928
       4       -0.000012656068    -0.000007483424    -0.000013714807
       5        0.000001668307     0.000006446650     0.000003842338
       6       -0.000006931987     0.000003275435    -0.000000739192
       7        0.000005534233     0.000003108050    -0.000005499303
       8        0.000304979332     0.007522612331    -0.004143826123
       9        0.000007950384    -0.000005053307     0.000003231296
      10       -0.000004054835    -0.000003691519    -0.000004173250
      11       -0.001873980704    -0.005671075016     0.006096155319
      12        0.000015678453    -0.005461656534     0.002566026982
      13       -0.000000413603     0.000002119242    -0.000002746984
      14        0.000005769665    -0.000003346194     0.000010156971
      15        0.001538192202     0.003620281355    -0.004516158736
      16        0.000004656813     0.000004145975    -0.000005645087
      17       -0.000004663503    -0.000000574739     0.000012267085
      18       -0.000009876831     0.000005164429    -0.000007871205
      19        0.000012948871    -0.000014304539    -0.000008109268
      20        0.000005218661     0.000003461160     0.000004419912
      21        0.000005197299    -0.000002644082    -0.000000114564
      22        0.000004866152     0.000002636026    -0.000002110103

  **** Optimization is complete! (in 10 steps) ****
    Final optimized geometry and variables:
    Molecular point group: c1

    Geometry (in Angstrom), charge = 0, multiplicity = 1:

    O           -1.852773783592     1.233515710114    -1.605601683154
    C           -1.917454293414     0.519098983579    -0.658664803684
    C           -0.948988894938    -0.633332497779    -0.480704024216
    C           -2.950949761792     0.729215151159     0.422261816201
    C            0.359720017208    -0.158232818541     0.163151442764
    H           -0.743100735385    -1.042609701209    -1.461590444232
    H           -1.398293000912    -1.411704366762     0.126722283195
    C            1.360150386794    -1.297396844445     0.330187027788
    H            0.776334519276     0.628170783509    -0.452868600794
    H            0.149696491274     0.283086501983     1.134385687795
    C            2.673609135522    -0.951906280134     1.053984139549
    H            1.584522470550    -1.748166926170    -0.632322824431
    H            0.876541126348    -2.093993658742     0.890844320171
    C            3.240128854663     0.437557282673     0.757176847009
    H            3.426142001754    -1.666674974969     0.738711536190
    H            2.545154712528    -1.060962599524     2.125399386116
    H            3.386428219684     0.584955122027    -0.307800109218
    H            4.202765542264     0.560548929837     1.239921026903
    H            2.593406735632     1.229534698526     1.114281453711
    H           -3.658526518190    -0.093546464473     0.403458760487
    H           -3.474989551441     1.658522479933     0.260099251744
    H           -2.486583687876     0.729768141815     1.402012239148

  Mulliken Charges: (a.u.)
   Center  Symbol    Alpha    Beta     Spin     Total
       1     O     4.17804  4.17804  0.00000 -0.35607
       2     C     2.85842  2.85842  0.00000  0.28316
       3     C     3.09828  3.09828  0.00000 -0.19655
       4     C     3.15533  3.15533  0.00000 -0.31066
       5     C     3.10456  3.10456  0.00000 -0.20912
       6     H     0.43897  0.43897  0.00000  0.12206
       7     H     0.44819  0.44819  0.00000  0.10362
       8     C     3.09810  3.09810  0.00000 -0.19621
       9     H     0.43702  0.43702  0.00000  0.12596
      10     H     0.45101  0.45101  0.00000  0.09798
      11     C     3.08908  3.08908  0.00000 -0.17816
      12     H     0.44874  0.44874  0.00000  0.10253
      13     H     0.45192  0.45192  0.00000  0.09616
      14     C     3.15710  3.15710  0.00000 -0.31420
      15     H     0.44962  0.44962  0.00000  0.10075
      16     H     0.45150  0.45150  0.00000  0.09700
      17     H     0.45167  0.45167  0.00000  0.09666
      18     H     0.44489  0.44489  0.00000  0.11022
      19     H     0.45238  0.45238  0.00000  0.09524
      20     H     0.44834  0.44834  0.00000  0.10332
      21     H     0.43604  0.43604  0.00000  0.12792
      22     H     0.45080  0.45080  0.00000  0.09839

   Total alpha = 32.00000, Total beta = 32.00000, Total charge = -0.00000

*** Psi4 exiting successfully. Buy a developer a beer!
