                              Psi4 1.0.54 Driver

  ==> Input File <==

--------------------------------------------------------------------------
set {
	reference rhf
	basis cc-pvtz
}

set_num_threads( 4 )
memory 2 gb

molecule MOL {
0 1

H	 -3.642595	 0.172412	 -1.116911
O	 -3.515113	 -0.019339	 -0.206321
C	 -2.302264	 0.528872	 0.237390
C	 -1.175688	 -0.398187	 -0.171891
H	 -2.148018	 1.514076	 -0.197759
H	 -2.310727	 0.646384	 1.319032
C	 0.196029	 0.106276	 0.266738
H	 -1.201873	 -0.515469	 -1.250677
H	 -1.365975	 -1.378728	 0.252664
C	 1.330220	 -0.826136	 -0.155230
H	 0.359542	 1.097229	 -0.145561
H	 0.212134	 0.218135	 1.348778
C	 2.719700	 -0.407669	 0.328325
H	 1.339388	 -0.911200	 -1.239363
H	 1.119001	 -1.821953	 0.224128
C	 3.241564	 0.893452	 -0.276737
H	 3.418299	 -1.204729	 0.093035
H	 2.711776	 -0.323368	 1.411960
H	 3.254204	 0.841071	 -1.360784
H	 2.634460	 1.745075	 0.005842
H	 4.254264	 1.092401	 0.054971

	symmetry c1
}
set optking {
	frozen_dihedral = ("
		1 2 3 5
	")
}

ee,wfn = optimize('scf', return_wfn=True)
oeprop( wfn, 'DIPOLE', 'QUADRUPOLE', 'MULLIKEN_CHARGES')
f=open( 'psi4out.xyz', 'w' )
f.write( "21  " )
f.write( str(ee) + "\n" )
f.write( MOL.save_string_xyz() )
f.close()
--------------------------------------------------------------------------

    Molecular point group: c1
  Charge       = 0
  Multiplicity = 1
  Basis Set: CC-PVTZ
  Basis Set:
  @DF-RHF Final Energy:  -310.33098404523037
    Total Energy =                       -310.3309840452304798
    Molecular point group: c1
  Basis Set: CC-PVTZ
  Basis Set:
  Basis Set: CC-PVTZ
  Basis Set:
  @DF-RHF Final Energy:  -310.33103122801879
    Total Energy =                       -310.3310312280187873
  Basis Set: CC-PVTZ
  Basis Set:
  Basis Set: CC-PVTZ
  Basis Set:
  @DF-RHF Final Energy:  -310.33235822398649
    Total Energy =                       -310.3323582239866028
  Basis Set: CC-PVTZ
  Basis Set:
  Basis Set: CC-PVTZ
  Basis Set:
  @DF-RHF Final Energy:  -310.33238384409839
    Total Energy =                       -310.3323838440984446
  Basis Set: CC-PVTZ
  Basis Set:
  Basis Set: CC-PVTZ
  Basis Set:
  @DF-RHF Final Energy:  -310.33238282227194
    Total Energy =                       -310.3323828222718817
  Basis Set: CC-PVTZ
  Basis Set:
  Basis Set: CC-PVTZ
  Basis Set:
  @DF-RHF Final Energy:  -310.33238551412660
    Total Energy =                       -310.3323855141266563
  Basis Set: CC-PVTZ
  Basis Set:
  Charge       = 0
  Multiplicity = 1
  Basis Set: CC-PVTZ
  Basis Set:

    Orbital Energies (a.u.)
    -----------------------

    Doubly Occupied:

       1A    -20.545216     2A    -11.265144     3A    -11.215203
       4A    -11.214624     5A    -11.213372     6A    -11.211458
       7A    -11.207548     8A     -1.363017     9A     -1.089061
      10A     -1.035195    11A     -0.956038    12A     -0.879387
      13A     -0.815991    14A     -0.780373    15A     -0.700532
      16A     -0.644915    17A     -0.624674    18A     -0.609293
      19A     -0.593930    20A     -0.571027    21A     -0.549411
      22A     -0.522432    23A     -0.506933    24A     -0.498256
      25A     -0.472897    26A     -0.467641    27A     -0.462262
      28A     -0.457521    29A     -0.422772

  @DF-RHF Final Energy:  -310.33238569610478

   => Energetics <=

    Nuclear Repulsion Energy =            312.6290339679250110
    One-Electron Energy =               -1040.1305932808199941
    Two-Electron Energy =                 417.1691736167899762
    DFT Exchange-Correlation Energy =       0.0000000000000000
    Empirical Dispersion Energy =           0.0000000000000000
    PCM Polarization Energy =               0.0000000000000000
    EFP Energy =                            0.0000000000000000
    Total Energy =                       -310.3323856961050069
    Molecular point group: c1
  Basis Set: CC-PVTZ
  Basis Set:

  -Total Gradient:
     Atom            X                  Y                   Z
    ------   -----------------  -----------------  -----------------
       1       -0.000483876666     0.001082370513     0.000521312987
       2        0.000693151746    -0.001438942027    -0.000903824447
       3       -0.000588165709     0.000738756627     0.001362835138
       4       -0.000002097158     0.000003943682     0.000005140015
       5        0.000380610698    -0.000389562225    -0.000981378167
       6       -0.000003866862    -0.000000857752    -0.000002596389
       7       -0.000000966962    -0.000005712379    -0.000001230886
       8        0.000000419636    -0.000001145556     0.000000162559
       9       -0.000006679237     0.000003296836     0.000001355807
      10        0.000008201789     0.000003904158    -0.000000737729
      11        0.000006086605    -0.000001408212    -0.000000114320
      12        0.000000057136    -0.000001517286     0.000001232694
      13       -0.000007400217     0.000006967934    -0.000003972918
      14       -0.000000163125     0.000001850772    -0.000000611095
      15       -0.000004298480     0.000000691520     0.000002317877
      16        0.000006541791    -0.000002890393     0.000000335207
      17        0.000002506656     0.000000523199    -0.000001027104
      18       -0.000002643802     0.000002376563     0.000000325209
      19       -0.000002240702    -0.000000750464    -0.000000527996
      20       -0.000000213322    -0.000003728130     0.000001714024
      21        0.000005036178     0.000001832619    -0.000000710465

  **** Optimization is complete! (in 7 steps) ****
    Final optimized geometry and variables:
    Molecular point group: c1

    Geometry (in Angstrom), charge = 0, multiplicity = 1:

    H           -3.795203095076     0.433648606362    -0.768474399067
    O           -3.563035451700     0.127890828392     0.088456820716
    C           -2.268895462519     0.557182515834     0.420602464188
    C           -1.192890942954    -0.352462809978    -0.150599091285
    H           -2.106421253750     1.577942841948     0.082658297119
    H           -2.215657768058     0.562341530554     1.502023053904
    C            0.216792274764     0.069087021247     0.254518959432
    H           -1.275274903229    -0.359552844714    -1.235307834701
    H           -1.389811661717    -1.366969281857     0.180864567014
    C            1.298115591487    -0.843880371232    -0.320721100839
    H            0.388317211774     1.092564578351    -0.064983883552
    H            0.293226057381     0.070890495017     1.339620745763
    C            2.723035332204    -0.513479815311     0.126494001896
    H            1.249274569899    -0.817282557962    -1.406941144588
    H            1.075464047458    -1.867507628898    -0.033178262783
    C            3.253613456449     0.828938009105    -0.371012950243
    H            3.383240877692    -1.299922785610    -0.226004365770
    H            2.773296937011    -0.540937849886     1.211816445631
    H            3.207964881062     0.888450563264    -1.453835031823
    H            2.689700837718     1.662473863444     0.030036574440
    H            4.288057516803     0.965802762672    -0.077349818948

  Mulliken Charges: (a.u.)
   Center  Symbol    Alpha    Beta     Spin     Total
       1     H     0.39491  0.39491  0.00000  0.21017
       2     O     4.20174  4.20174  0.00000 -0.40347
       3     C     2.97241  2.97241  0.00000  0.05517
       4     C     3.08755  3.08755  0.00000 -0.17511
       5     H     0.47103  0.47103  0.00000  0.05794
       6     H     0.45449  0.45449  0.00000  0.09102
       7     C     3.10305  3.10305  0.00000 -0.20609
       8     H     0.46154  0.46154  0.00000  0.07693
       9     H     0.44932  0.44932  0.00000  0.10135
      10     C     3.09412  3.09412  0.00000 -0.18824
      11     H     0.45372  0.45372  0.00000  0.09257
      12     H     0.45351  0.45351  0.00000  0.09299
      13     C     3.09002  3.09002  0.00000 -0.18004
      14     H     0.45384  0.45384  0.00000  0.09232
      15     H     0.44837  0.44837  0.00000  0.10326
      16     C     3.15257  3.15257  0.00000 -0.30515
      17     H     0.44827  0.44827  0.00000  0.10346
      18     H     0.45442  0.45442  0.00000  0.09116
      19     H     0.45504  0.45504  0.00000  0.08993
      20     H     0.45401  0.45401  0.00000  0.09198
      21     H     0.44607  0.44607  0.00000  0.10787

   Total alpha = 29.00000, Total beta = 29.00000, Total charge =  0.00000

*** Psi4 exiting successfully. Buy a developer a beer!
