  ==> Input File <==

--------------------------------------------------------------------------
set {
	reference rhf
	basis cc-pvtz
}

set_num_threads( 4 )
memory 2 gb

molecule MOL {
0 1

H	 2.342730	 0.877684	 -1.045694
C	 2.360424	 0.000000	 -0.411793
C	 1.173749	 0.000000	 0.526870
H	 3.286567	 0.000000	 0.151574
H	 2.342730	 -0.877684	 -1.045694
O	 -0.000000	 0.000000	 -0.223739
H	 1.203779	 0.876757	 1.172538
H	 1.203779	 -0.876757	 1.172538
C	 -1.173749	 0.000000	 0.526870
C	 -2.095894	 1.078563	 0.001859
H	 -0.945161	 0.177703	 1.576946
H	 -1.657642	 -0.973774	 0.462818
H	 -1.624565	 2.050482	 0.077322
H	 -3.017534	 1.096924	 0.572268
H	 -2.337800	 0.897787	 -1.037984

	symmetry c1
}
set optking {
	frozen_dihedral = ("
		11 9 6 3
	")
}

ee = optimize('scf')
oeprop('DIPOLE', 'QUADRUPOLE', 'MULLIKEN_CHARGES')
f=open( 'psi4out.xyz', 'w' )
f.write( "15  " )
f.write( str(ee) + "\n" )
f.write( MOL.save_string_xyz() )
f.close()
--------------------------------------------------------------------------

    Molecular point group: c1
  Charge       = 0
  Multiplicity = 1
  Basis Set: CC-PVTZ
  Basis Set:
  @DF-RHF Final Energy:  -232.22990483797744
    Total Energy =                       -232.2299048379775286
    Molecular point group: c1
  Basis Set: CC-PVTZ
  Basis Set:
  Basis Set: CC-PVTZ
  Basis Set:
  @DF-RHF Final Energy:  -232.23017166396482
    Total Energy =                       -232.2301716639648816
  Basis Set: CC-PVTZ
  Basis Set:
  Basis Set: CC-PVTZ
  Basis Set:
  @DF-RHF Final Energy:  -232.23025417345050
    Total Energy =                       -232.2302541734505894
  Basis Set: CC-PVTZ
  Basis Set:
  Charge       = 0
  Multiplicity = 1
  Basis Set: CC-PVTZ
  Basis Set:

    Orbital Energies (a.u.)
    -----------------------

    Doubly Occupied:

       1A    -20.542412     2A    -11.266947     3A    -11.265812
       4A    -11.207295     5A    -11.206847     6A     -1.377054
       7A     -1.044005     8A     -0.983978     9A     -0.851125
      10A     -0.823792    11A     -0.673575    12A     -0.664283
      13A     -0.625813    14A     -0.581836    15A     -0.550958
      16A     -0.536678    17A     -0.522795    18A     -0.499476
      19A     -0.486196    20A     -0.464825    21A     -0.407882

  @DF-RHF Final Energy:  -232.23025487211839

   => Energetics <=

    Nuclear Repulsion Energy =            191.4161664424530613
    One-Electron Energy =                -694.1256758127470903
    Two-Electron Energy =                 270.4792544981756919
    DFT Exchange-Correlation Energy =       0.0000000000000000
    Empirical Dispersion Energy =           0.0000000000000000
    PCM Polarization Energy =               0.0000000000000000
    EFP Energy =                            0.0000000000000000
    Total Energy =                       -232.2302548721183371
    Molecular point group: c1
  Basis Set: CC-PVTZ
  Basis Set:

  -Total Gradient:
     Atom            X                  Y                   Z
    ------   -----------------  -----------------  -----------------
       1        0.000000129915    -0.000005362178     0.000001934347
       2        0.000016913185     0.000012983844     0.000016673477
       3        0.000079192638     0.001411887931    -0.000021374021
       4        0.000036464941     0.000003375921    -0.000004802402
       5       -0.000010656288     0.000011543399     0.000017044144
       6       -0.000084777418    -0.002581851803     0.000104920285
       7       -0.000019461522    -0.000007423974    -0.000025194331
       8       -0.000003915438     0.000013425836     0.000003041740
       9       -0.000094560364     0.002940469217    -0.000392328964
      10       -0.000031609038    -0.000026646439    -0.000000230834
      11        0.000122963707    -0.001765225030     0.000288690116
      12       -0.000024786788     0.000013294325    -0.000003749034
      13        0.000021274668    -0.000022569735     0.000009705212
      14       -0.000007042196    -0.000002817227     0.000004223543
      15       -0.000000130004     0.000004915911     0.000001446721

  **** Optimization is complete! (in 4 steps) ****
    Final optimized geometry and variables:
    Molecular point group: c1

    Geometry (in Angstrom), charge = 0, multiplicity = 1:

    H            2.285501231332     0.653198696922    -1.138083036492
    C            2.309958141635    -0.228505006400    -0.509861903371
    C            1.138211722979    -0.229906202067     0.447135610331
    H            3.244881165402    -0.235810496582     0.039193371747
    H            2.278725462897    -1.101986604036    -1.149068486822
    O           -0.045819296428    -0.215861473946    -0.289179002097
    H            1.183877324164     0.641582705838     1.098125842299
    H            1.177342815203    -1.112192391699     1.084472739529
    C           -1.234772695543    -0.199954758953     0.447982641834
    C           -2.170979182750     0.860614566743    -0.093981080223
    H           -1.027881074114    -0.024553078196     1.500045981361
    H           -1.702781261777    -1.178799854610     0.381504410652
    H           -1.733444718839     1.846663511579     0.007117957936
    H           -3.113918812448     0.844561807301     0.441872753429
    H           -2.370180343489     0.685074518161    -1.143865640992

  Mulliken Charges: (a.u.)
   Center  Symbol    Alpha    Beta     Spin     Total
       1     H     0.45180  0.45180  0.00000  0.09641
       2     C     3.13735  3.13735  0.00000 -0.27470
       3     C     2.96428  2.96428  0.00000  0.07145
       4     H     0.45928  0.45928  0.00000  0.08144
       5     H     0.45142  0.45142  0.00000  0.09715
       6     O     4.18421  4.18421  0.00000 -0.36842
       7     H     0.47437  0.47437  0.00000  0.05126
       8     H     0.47247  0.47247  0.00000  0.05506
       9     C     2.97324  2.97324  0.00000  0.05352
      10     C     3.13370  3.13370  0.00000 -0.26741
      11     H     0.47214  0.47214  0.00000  0.05571
      12     H     0.46108  0.46108  0.00000  0.07785
      13     H     0.45524  0.45524  0.00000  0.08953
      14     H     0.45874  0.45874  0.00000  0.08252
      15     H     0.45069  0.45069  0.00000  0.09861

   Total alpha = 21.00000, Total beta = 21.00000, Total charge = -0.00000
