  ==> Input File <==

--------------------------------------------------------------------------
set {
	reference rhf
	basis 6-31G*
}

set_num_threads( 4 )
memory 2 gb

molecule MOL {
0 1

O	 3.225979	 0.970355	 -0.599647
C	 2.701189	 0.057885	 -0.047330
C	 1.245376	 -0.013843	 0.345420
O	 3.347903	 -1.046386	 0.304773
C	 0.455112	 1.231400	 -0.050772
H	 0.838542	 -0.913825	 -0.103701
H	 1.208210	 -0.175333	 1.419774
C	 -0.998893	 1.219485	 0.433193
H	 0.482531	 1.345121	 -1.130325
H	 0.957290	 2.103070	 0.354729
C	 -1.883438	 0.145884	 -0.207175
H	 -1.431207	 2.195402	 0.224832
H	 -1.019646	 1.105716	 1.516076
C	 -2.015634	 0.310080	 -1.722617
H	 -1.469377	 -0.836879	 0.013163
H	 -2.876521	 0.165326	 0.235975
C	 -2.901605	 -0.754207	 -2.372603
H	 -1.026167	 0.278320	 -2.175586
H	 -2.419608	 1.296729	 -1.944040
C	 -3.025318	 -0.585374	 -3.886502
H	 -2.499917	 -1.740815	 -2.151486
H	 -3.892362	 -0.721103	 -1.924177
H	 -3.659052	 -1.354034	 -4.317953
H	 -2.053880	 -0.648657	 -4.368683
H	 -3.456484	 0.379172	 -4.139527
C	 4.728119	 -1.109107	 -0.004993
H	 4.882018	 -1.033965	 -1.071845
H	 5.068212	 -2.067527	 0.355250
H	 5.265056	 -0.311663	 0.488280

	symmetry c1
}
set optking {
	frozen_dihedral = ("
		15 11 8 5
	")
}

ee = optimize('scf')
oeprop('DIPOLE', 'QUADRUPOLE', 'MULLIKEN_CHARGES')
f=open( 'psi4out.xyz', 'w' )
f.write( "29  " )
f.write( str(ee) + "\n" )
f.write( MOL.save_string_xyz() )
f.close()
--------------------------------------------------------------------------

    Molecular point group: c1
  Charge       = 0
  Multiplicity = 1
  Basis Set: 6-31G*
  Basis Set:
  @DF-RHF Final Energy:  -501.04173626990314
    Total Energy =                       -501.0417362699030264
    Molecular point group: c1
  Basis Set: 6-31G*
  Basis Set:
  Basis Set: 6-31G*
  Basis Set:
  @DF-RHF Final Energy:  -501.04224327419342
    Total Energy =                       -501.0422432741937655
  Basis Set: 6-31G*
  Basis Set:
  Basis Set: 6-31G*
  Basis Set:
  @DF-RHF Final Energy:  -501.04253469184891
    Total Energy =                       -501.0425346918482319
  Basis Set: 6-31G*
  Basis Set:
  Basis Set: 6-31G*
  Basis Set:
  @DF-RHF Final Energy:  -501.04255474823981
    Total Energy =                       -501.0425547482398088
  Basis Set: 6-31G*
  Basis Set:
  Basis Set: 6-31G*
  Basis Set:
  @DF-RHF Final Energy:  -501.04255097950909
    Total Energy =                       -501.0425509795093149
  Basis Set: 6-31G*
  Basis Set:
  Basis Set: 6-31G*
  Basis Set:
  @DF-RHF Final Energy:  -501.04254251094324
    Total Energy =                       -501.0425425109431217
  Basis Set: 6-31G*
  Basis Set:
  Basis Set: 6-31G*
  Basis Set:
  @DF-RHF Final Energy:  -501.04256151930679
    Total Energy =                       -501.0425615193066733
  Basis Set: 6-31G*
  Basis Set:
  Charge       = 0
  Multiplicity = 1
  Basis Set: 6-31G*
  Basis Set:

    Orbital Energies (a.u.)
    -----------------------

    Doubly Occupied:

       1A    -20.603525     2A    -20.545366     3A    -11.372198
       4A    -11.280795     5A    -11.234971     6A    -11.218596
       7A    -11.217894     8A    -11.216076     9A    -11.215938
      10A    -11.214169    11A    -11.208811    12A     -1.469229
      13A     -1.362672    14A     -1.098309    15A     -1.065384
      16A     -1.018976    17A     -0.976167    18A     -0.928999
      19A     -0.866953    20A     -0.806280    21A     -0.781982
      22A     -0.758927    23A     -0.701759    24A     -0.682828
      25A     -0.671516    26A     -0.647433    27A     -0.633384
      28A     -0.603879    29A     -0.594610    30A     -0.577344
      31A     -0.563505    32A     -0.560065    33A     -0.533831
      34A     -0.527635    35A     -0.523607    36A     -0.509498
      37A     -0.489980    38A     -0.481583    39A     -0.471974
      40A     -0.458554    41A     -0.456669    42A     -0.453488
      43A     -0.440443    44A     -0.437403

  @DF-RHF Final Energy:  -501.04256147754552

   => Energetics <=

    Nuclear Repulsion Energy =            623.2440966951618293
    One-Electron Energy =               -1917.6068960091531608
    Two-Electron Energy =                 793.3202378364458127
    DFT Exchange-Correlation Energy =       0.0000000000000000
    Empirical Dispersion Energy =           0.0000000000000000
    PCM Polarization Energy =               0.0000000000000000
    EFP Energy =                            0.0000000000000000
    Total Energy =                       -501.0425614775454051
    Molecular point group: c1
  Basis Set: 6-31G*
  Basis Set:

  -Total Gradient:
     Atom            X                  Y                   Z
    ------   -----------------  -----------------  -----------------
       1       -0.000007662245    -0.000010123116    -0.000028093562
       2        0.000016015363     0.000034762088     0.000096090516
       3       -0.000002091692    -0.000018182019    -0.000042922821
       4       -0.000002949984    -0.000013328241    -0.000030158762
       5        0.000073695578    -0.000215695391     0.000189467908
       6        0.000001297593     0.000006187544     0.000009830772
       7        0.000008928753     0.000002362074     0.000004661163
       8       -0.000061779975     0.000300086360    -0.000391666492
       9        0.000008501667     0.000010722181     0.000004353300
      10       -0.000005702063    -0.000001646452     0.000009405817
      11       -0.000269036143    -0.000075191303     0.000504771330
      12       -0.000013547044    -0.000007209121    -0.000002239696
      13       -0.000007990408    -0.000013158414    -0.000005808760
      14        0.000028404986    -0.000006569669    -0.000016023123
      15        0.000211988169     0.000035516695    -0.000358498130
      16       -0.000003781278     0.000009296045     0.000039772885
      17        0.000037845089    -0.000040604893     0.000010243283
      18       -0.000011759948    -0.000013668111    -0.000012958678
      19        0.000015677443     0.000008266887     0.000013215303
      20       -0.000021430315     0.000027184242     0.000007520397
      21        0.000003204996    -0.000013504400    -0.000008222897
      22        0.000007971042    -0.000010562690     0.000005528146
      23       -0.000010241506     0.000009067169     0.000004880364
      24       -0.000004466832    -0.000010555015     0.000006670402
      25        0.000008994038     0.000006914808    -0.000009875140
      26       -0.000000226968    -0.000000151489     0.000000758574
      27        0.000000807521    -0.000000224320    -0.000000202861
      28        0.000000020654    -0.000000243538    -0.000000553055
      29       -0.000000686494     0.000000252089     0.000000053818

  **** Optimization is complete! (in 8 steps) ****
    Final optimized geometry and variables:
    Molecular point group: c1

    Geometry (in Angstrom), charge = 0, multiplicity = 1:

    O            2.790376231372     0.994276569149     0.234598327772
    C            2.245388190911     0.048876367922     0.706032176928
    C            0.773078371971    -0.050556304487     1.024392845701
    O            2.880839393688    -1.073200473161     1.020325702825
    C           -0.002799298069     1.217573710218     0.675952713106
    H            0.392053259671    -0.918730263833     0.496388308224
    H            0.685742065506    -0.285737940400     2.082042891897
    C           -1.474547278334     1.175795040533     1.105948538590
    H            0.079467685682     1.407450270760    -0.388464932957
    H            0.475995470839     2.060462496201     1.162654115118
    C           -2.349167743341     0.099375893035     0.449151061987
    H           -1.914220865196     2.150024565585     0.904579235549
    H           -1.518114387561     1.044696661465     2.185676739556
    C           -2.516298769321     0.250098023305    -1.065336004585
    H           -1.955118817498    -0.890372293712     0.669221413438
    H           -3.332100048105     0.137028069204     0.913821027433
    C           -3.484694601573    -0.772698275234    -1.663348661168
    H           -1.552532502060     0.152892368959    -1.559836727847
    H           -2.872362762499     1.254630285729    -1.288946292130
    C           -3.653437194313    -0.623319760962    -3.174914698901
    H           -3.132673626057    -1.777251382182    -1.437457453164
    H           -4.454756142971    -0.674653707010    -1.180792627179
    H           -4.348286487645    -1.359054293504    -3.567997340131
    H           -2.706201409778    -0.754580030540    -3.690399813412
    H           -4.034178716736     0.361280993282    -3.431354399074
    C            4.274269334267    -1.113695731634     0.772036699864
    H            4.477135919426    -0.973694982982    -0.279993842939
    H            4.602268894766    -2.091343445133     1.089225801170
    H            4.783519277408    -0.346290889387     1.337084406444

  Mulliken Charges: (a.u.)
   Center  Symbol    Alpha    Beta     Spin     Total
       1     O     4.28582  4.28582  0.00000 -0.57165
       2     C     2.60517  2.60517  0.00000  0.78967
       3     C     3.20937  3.20937  0.00000 -0.41873
       4     O     4.30735  4.30735  0.00000 -0.61471
       5     C     3.15596  3.15596  0.00000 -0.31192
       6     H     0.39955  0.39955  0.00000  0.20091
       7     H     0.40105  0.40105  0.00000  0.19789
       8     C     3.15760  3.15760  0.00000 -0.31520
       9     H     0.41079  0.41079  0.00000  0.17843
      10     H     0.40879  0.40879  0.00000  0.18241
      11     C     3.15663  3.15663  0.00000 -0.31326
      12     H     0.41853  0.41853  0.00000  0.16295
      13     H     0.42228  0.42228  0.00000  0.15543
      14     C     3.15257  3.15257  0.00000 -0.30514
      15     H     0.42387  0.42387  0.00000  0.15226
      16     H     0.42040  0.42040  0.00000  0.15920
      17     C     3.15112  3.15112  0.00000 -0.30225
      18     H     0.42272  0.42272  0.00000  0.15457
      19     H     0.42317  0.42317  0.00000  0.15365
      20     C     3.23925  3.23925  0.00000 -0.47851
      21     H     0.42370  0.42370  0.00000  0.15260
      22     H     0.42288  0.42288  0.00000  0.15424
      23     H     0.41933  0.41933  0.00000  0.16133
      24     H     0.42163  0.42163  0.00000  0.15674
      25     H     0.42138  0.42138  0.00000  0.15724
      26     C     3.09240  3.09240  0.00000 -0.18479
      27     H     0.40912  0.40912  0.00000  0.18176
      28     H     0.40849  0.40849  0.00000  0.18303
      29     H     0.40908  0.40908  0.00000  0.18184

   Total alpha = 44.00000, Total beta = 44.00000, Total charge =  0.00000
