  ==> Input File <==

--------------------------------------------------------------------------
set {
	reference rhf
	basis 6-31G*
}

set_num_threads( 4 )
memory 2 gb

molecule MOL {
0 1

O	 0.074228	 1.262779	 -0.000085
C	 0.028650	 0.075053	 -0.000277
C	 -1.233602	 -0.752807	 0.000328
O	 1.109162	 -0.694619	 -0.000298
C	 -2.501530	 0.091881	 0.000126
H	 -1.193807	 -1.406641	 -0.865785
H	 -1.193516	 -1.405779	 0.867015
H	 -2.545121	 0.729328	 -0.874513
H	 -3.377167	 -0.548497	 0.000561
H	 -2.544818	 0.730135	 0.874258
C	 1.882672	 -0.716285	 -1.186384
H	 1.293251	 -1.075532	 -2.017611
H	 2.703174	 -1.389007	 -0.991233
H	 2.254755	 0.271934	 -1.415401

	symmetry c1
}
set optking {
	frozen_dihedral = ("
		11 4 2 3
	")
}

ee = optimize('scf')
oeprop('DIPOLE', 'QUADRUPOLE', 'MULLIKEN_CHARGES')
f=open( 'psi4out.xyz', 'w' )
f.write( "14  " )
f.write( str(ee) + "\n" )
f.write( MOL.save_string_xyz() )
f.close()
--------------------------------------------------------------------------

    Molecular point group: c1
  Charge       = 0
  Multiplicity = 1
  Basis Set: 6-31G*
  Basis Set:
  @DF-RHF Final Energy:  -305.85434348696168
    Total Energy =                       -305.8543434869615680
    Molecular point group: c1
  Basis Set: 6-31G*
  Basis Set:
  Basis Set: 6-31G*
  Basis Set:
  @DF-RHF Final Energy:  -305.85415061369133
    Total Energy =                       -305.8541506136913313
  Basis Set: 6-31G*
  Basis Set:
  Basis Set: 6-31G*
  Basis Set:
  @DF-RHF Final Energy:  -305.85471406811200
    Total Energy =                       -305.8547140681118890
  Basis Set: 6-31G*
  Basis Set:
  Basis Set: 6-31G*
  Basis Set:
  @DF-RHF Final Energy:  -305.85523427839559
    Total Energy =                       -305.8552342783955851
  Basis Set: 6-31G*
  Basis Set:
  Basis Set: 6-31G*
  Basis Set:
  @DF-RHF Final Energy:  -305.85524426223571
    Total Energy =                       -305.8552442622358285
  Basis Set: 6-31G*
  Basis Set:
  Charge       = 0
  Multiplicity = 1
  Basis Set: 6-31G*
  Basis Set:

    Orbital Energies (a.u.)
    -----------------------

    Doubly Occupied:

       1A    -20.587483     2A    -20.556944     3A    -11.375850
       4A    -11.289557     5A    -11.242205     6A    -11.218942
       7A     -1.461119     8A     -1.366982     9A     -1.063449
      10A     -0.976409    11A     -0.888628    12A     -0.766067
      13A     -0.700438    14A     -0.677147    15A     -0.671865
      16A     -0.619332    17A     -0.615763    18A     -0.555892
      19A     -0.542356    20A     -0.523415    21A     -0.509973
      22A     -0.494288    23A     -0.455344    24A     -0.437459

  @DF-RHF Final Energy:  -305.85524500440994

   => Energetics <=

    Nuclear Repulsion Energy =            246.6427560157002858
    One-Electron Energy =                -905.8021934468617928
    Two-Electron Energy =                 353.3041924267514560
    DFT Exchange-Correlation Energy =       0.0000000000000000
    Empirical Dispersion Energy =           0.0000000000000000
    PCM Polarization Energy =               0.0000000000000000
    EFP Energy =                            0.0000000000000000
    Total Energy =                       -305.8552450044099942
    Molecular point group: c1
  Basis Set: 6-31G*
  Basis Set:

  -Total Gradient:
     Atom            X                  Y                   Z
    ------   -----------------  -----------------  -----------------
       1       -0.000001972110    -0.000002634569     0.000108880726
       2       -0.001470340039    -0.001933542583     0.006303678679
       3        0.000152403091    -0.000121554661    -0.005175586166
       4        0.004431823483     0.006524868505     0.000699698346
       5       -0.000005423416     0.000002758542     0.000006287851
       6       -0.000001091582    -0.000008163432     0.000005348019
       7        0.000000980642     0.000006513824     0.000006072116
       8       -0.000001336274    -0.000002592348     0.000001888773
       9       -0.000005527681     0.000002905941    -0.000002310044
      10        0.000004308574    -0.000000656256    -0.000001489519
      11       -0.003142077233    -0.004458573270    -0.001964551702
      12        0.000034423700    -0.000003634766    -0.000018685010
      13       -0.000006533496     0.000002643973     0.000023855948
      14        0.000010362340    -0.000008338900     0.000006911984

  **** Optimization is complete! (in 6 steps) ****
    Final optimized geometry and variables:
    Molecular point group: c1

    Geometry (in Angstrom), charge = 0, multiplicity = 1:

    O            0.156365518375     1.374646831897     0.136451201180
    C            0.104870752551     0.194882661319     0.203284319302
    C           -1.164542862409    -0.619534753343     0.203139176851
    O            1.213414888264    -0.574971075046     0.235351106729
    C           -2.431651873969     0.224057232659     0.255299587016
    H           -1.135636117843    -1.233421603130    -0.694379454490
    H           -1.113767357100    -1.316599178170     1.034218024863
    H           -2.485279669143     0.899790515720    -0.589436763437
    H           -3.308804020963    -0.413918287635     0.240267270758
    H           -2.461987471629     0.823066280494     1.157686360596
    C            1.993467046841    -0.603835975052    -0.942813221924
    H            1.436970290534    -1.055839233150    -1.757186942517
    H            2.858555042447    -1.209801231216    -0.723224011445
    H            2.305266166558     0.393508298741    -1.221824794303

  Mulliken Charges: (a.u.)
   Center  Symbol    Alpha    Beta     Spin     Total
       1     O     4.25875  4.25875  0.00000 -0.51750
       2     C     2.61310  2.61310  0.00000  0.77380
       3     C     3.20765  3.20765  0.00000 -0.41530
       4     O     4.31557  4.31557  0.00000 -0.63115
       5     C     3.24000  3.24000  0.00000 -0.47999
       6     H     0.40543  0.40543  0.00000  0.18913
       7     H     0.39857  0.39857  0.00000  0.20287
       8     H     0.40933  0.40933  0.00000  0.18133
       9     H     0.41747  0.41747  0.00000  0.16506
      10     H     0.40964  0.40964  0.00000  0.18072
      11     C     3.09329  3.09329  0.00000 -0.18657
      12     H     0.42199  0.42199  0.00000  0.15601
      13     H     0.40402  0.40402  0.00000  0.19197
      14     H     0.40519  0.40519  0.00000  0.18963

   Total alpha = 24.00000, Total beta = 24.00000, Total charge = -0.00000
