                              Psi4 1.0.54 Driver

  ==> Input File <==

--------------------------------------------------------------------------
set {
	reference rhf
	basis cc-pvtz
}

set_num_threads( 4 )
memory 2 gb

molecule MOL {
0 1

H	 -0.000105	 1.988529	 0.748933
O	 -0.000098	 1.879786	 -0.188206
C	 -0.000014	 0.545691	 -0.532416
C	 0.638013	 -0.286957	 0.580866
C	 0.637972	 0.355603	 -1.909593
H	 -1.027857	 0.224249	 -0.615335
F	 -0.040557	 -0.120578	 1.689342
F	 0.646606	 -1.566187	 0.302999
F	 1.877242	 0.090827	 0.811010
F	 -0.040639	 1.037486	 -2.799188
F	 0.646578	 -0.898381	 -2.285309
F	 1.877191	 0.797600	 -1.928275

	symmetry c1
}
set optking {
	frozen_dihedral = ("
		6 3 2 1
	")
}

ee,wfn = optimize('scf', return_wfn=True)
oeprop( wfn, 'DIPOLE', 'QUADRUPOLE', 'MULLIKEN_CHARGES')
f=open( 'psi4out.xyz', 'w' )
f.write( "12  " )
f.write( str(ee) + "\n" )
f.write( MOL.save_string_xyz() )
f.close()
--------------------------------------------------------------------------

    Molecular point group: c1
  Charge       = 0
  Multiplicity = 1
  Basis Set: CC-PVTZ
  Basis Set:
  @DF-RHF Final Energy:  -786.58443027610269
    Total Energy =                       -786.5844302761026938
    Molecular point group: c1
  Basis Set: CC-PVTZ
  Basis Set:
  Basis Set: CC-PVTZ
  Basis Set:
  @DF-RHF Final Energy:  -786.58613841679608
    Total Energy =                       -786.5861384167952792
  Basis Set: CC-PVTZ
  Basis Set:
  Basis Set: CC-PVTZ
  Basis Set:
  @DF-RHF Final Energy:  -786.58652240887011
    Total Energy =                       -786.5865224088704508
  Basis Set: CC-PVTZ
  Basis Set:
  Basis Set: CC-PVTZ
  Basis Set:
  @DF-RHF Final Energy:  -786.58657589290146
    Total Energy =                       -786.5865758929013509
  Basis Set: CC-PVTZ
  Basis Set:
  Basis Set: CC-PVTZ
  Basis Set:
  @DF-RHF Final Energy:  -786.58659088748834
    Total Energy =                       -786.5865908874882280
  Basis Set: CC-PVTZ
  Basis Set:
  Basis Set: CC-PVTZ
  Basis Set:
  @DF-RHF Final Energy:  -786.58659444015768
    Total Energy =                       -786.5865944401575689
  Basis Set: CC-PVTZ
  Basis Set:
  Charge       = 0
  Multiplicity = 1
  Basis Set: CC-PVTZ
  Basis Set:

    Orbital Energies (a.u.)
    -----------------------

    Doubly Occupied:

       1A    -26.365250     2A    -26.361834     3A    -26.360184
       4A    -26.351580     5A    -26.348030     6A    -26.347971
       7A    -20.607553     8A    -11.525661     9A    -11.515175
      10A    -11.351637    11A     -1.775629    12A     -1.762129
      13A     -1.670793    14A     -1.669009    15A     -1.657501
      16A     -1.655749    17A     -1.437799    18A     -1.104981
      19A     -1.002736    20A     -0.942889    21A     -0.876558
      22A     -0.867688    23A     -0.862806    24A     -0.849497
      25A     -0.839051    26A     -0.796937    27A     -0.756049
      28A     -0.740836    29A     -0.726508    30A     -0.724870
      31A     -0.716728    32A     -0.694864    33A     -0.691142
      34A     -0.675676    35A     -0.674650    36A     -0.670643
      37A     -0.659109    38A     -0.651725    39A     -0.621404
      40A     -0.549537    41A     -0.508097

  @DF-RHF Final Energy:  -786.58659579787900

   => Energetics <=

    Nuclear Repulsion Energy =            671.2408522595983413
    One-Electron Energy =               -2429.7179798437664431
    Two-Electron Energy =                 971.8905317862888751
    DFT Exchange-Correlation Energy =       0.0000000000000000
    Empirical Dispersion Energy =           0.0000000000000000
    PCM Polarization Energy =               0.0000000000000000
    EFP Energy =                            0.0000000000000000
    Total Energy =                       -786.5865957978792267
    Molecular point group: c1
  Basis Set: CC-PVTZ
  Basis Set:

  -Total Gradient:
     Atom            X                  Y                   Z
    ------   -----------------  -----------------  -----------------
       1        0.002263611203     0.000065454664     0.000108294459
       2       -0.002817862950    -0.000126744659    -0.000717793337
       3        0.000497556025    -0.000178412558     0.002492281856
       4        0.000071352833    -0.000009641576    -0.000025929343
       5        0.000053246562     0.000150525167    -0.000030496318
       6        0.000094302796     0.000258689269    -0.001912922129
       7       -0.000031340742     0.000054745719     0.000079327443
       8        0.000024938155    -0.000069332670    -0.000010582220
       9       -0.000085411240    -0.000017215185    -0.000008295560
      10       -0.000048532972     0.000012438960    -0.000027600615
      11        0.000021537522    -0.000089885274     0.000015153863
      12       -0.000043397187    -0.000050621861     0.000038561908

  **** Optimization is complete! (in 7 steps) ****
    Final optimized geometry and variables:
    Molecular point group: c1

    Geometry (in Angstrom), charge = 0, multiplicity = 1:

    H           -0.760992431194     1.952402655746     1.144224168859
    O           -0.728027452474     1.715890780930     0.233912849886
    C           -0.677468351998     0.347734632149     0.062804314632
    C            0.014829409061    -0.345948198390     1.235550243914
    C           -0.004504547155     0.093946197987    -1.285474457334
    H           -1.668638054268    -0.085954981017    -0.014887980350
    F           -0.557632611192     0.062551739889     2.354974973487
    F           -0.116707539635    -1.644907682299     1.172865163002
    F            1.287932389558    -0.061188116410     1.323900883568
    F           -0.728781075348     0.632097508620    -2.236285430426
    F            0.081400858278    -1.194756777161    -1.526692678771
    F            1.196996327245     0.602101632776    -1.353740472286

  Mulliken Charges: (a.u.)
   Center  Symbol    Alpha    Beta     Spin     Total
       1     H     0.38291  0.38291  0.00000  0.23419
       2     O     4.18740  4.18740  0.00000 -0.37481
       3     C     2.99525  2.99525  0.00000  0.00950
       4     C     2.68491  2.68491  0.00000  0.63018
       5     C     2.67840  2.67840  0.00000  0.64319
       6     H     0.44436  0.44436  0.00000  0.11129
       7     F     4.61398  4.61398  0.00000 -0.22796
       8     F     4.60049  4.60049  0.00000 -0.20098
       9     F     4.60046  4.60046  0.00000 -0.20092
      10     F     4.60345  4.60345  0.00000 -0.20691
      11     F     4.60661  4.60661  0.00000 -0.21322
      12     F     4.60178  4.60178  0.00000 -0.20357

   Total alpha = 41.00000, Total beta = 41.00000, Total charge = -0.00000

*** Psi4 exiting successfully. Buy a developer a beer!
