  ==> Input File <==

--------------------------------------------------------------------------
set {
	reference rhf
	basis cc-pvtz
}

set_num_threads( 4 )
memory 2 gb

molecule MOL {
0 1

H	 1.043763	 0.573516	 0.345546
C	 0.788096	 -0.429819	 0.000000
N	 -0.537714	 -0.645117	 0.000000
O	 1.623368	 -1.211168	 -0.329441
C	 -1.522613	 0.412524	 0.000000
H	 -0.845894	 -1.585866	 0.000000
H	 -2.150256	 0.356137	 -0.880771
H	 -1.005621	 1.357208	 0.000000
H	 -2.150256	 0.356137	 0.880771

	symmetry c1
}
set optking {
	frozen_dihedral = ("
		1 2 3 6
	")
}

ee = optimize('scf')
oeprop('DIPOLE', 'QUADRUPOLE', 'MULLIKEN_CHARGES')
f=open( 'psi4out.xyz', 'w' )
f.write( "9  " )
f.write( str(ee) + "\n" )
f.write( MOL.save_string_xyz() )
f.close()
--------------------------------------------------------------------------

    Molecular point group: c1
  Charge       = 0
  Multiplicity = 1
  Basis Set: CC-PVTZ
  Basis Set:
  @DF-RHF Final Energy:  -208.03765094162594
    Total Energy =                       -208.0376509416259410
    Molecular point group: c1
  Basis Set: CC-PVTZ
  Basis Set:
  Basis Set: CC-PVTZ
  Basis Set:
  @DF-RHF Final Energy:  -208.03713578101531
    Total Energy =                       -208.0371357810153086
  Basis Set: CC-PVTZ
  Basis Set:
  Basis Set: CC-PVTZ
  Basis Set:
  @DF-RHF Final Energy:  -208.03980187148042
    Total Energy =                       -208.0398018714803356
  Basis Set: CC-PVTZ
  Basis Set:
  Basis Set: CC-PVTZ
  Basis Set:
  @DF-RHF Final Energy:  -208.04031252500485
    Total Energy =                       -208.0403125250048220
  Basis Set: CC-PVTZ
  Basis Set:
  @DF-RHF Final Energy:  -208.04039976439921
    Total Energy =                       -208.0403997643991829
  @DF-RHF Final Energy:  -208.04045470768875
    Total Energy =                       -208.0404547076887241
  @DF-RHF Final Energy:  -208.04046841956131
    Total Energy =                       -208.0404684195613640
  Basis Set: CC-PVTZ
  Basis Set:
  @DF-RHF Final Energy:  -208.04049979748885
    Total Energy =                       -208.0404997974888488
  Basis Set: CC-PVTZ
  Basis Set:
  Basis Set: CC-PVTZ
  Basis Set:
  @DF-RHF Final Energy:  -208.04052249018213
    Total Energy =                       -208.0405224901821555
  Basis Set: CC-PVTZ
  Basis Set:
  Basis Set: CC-PVTZ
  Basis Set:
  @DF-RHF Final Energy:  -208.04054044043161
    Total Energy =                       -208.0405404404316414
  Basis Set: CC-PVTZ
  Basis Set:
  Charge       = 0
  Multiplicity = 1
  Basis Set: CC-PVTZ
  Basis Set:

    Orbital Energies (a.u.)
    -----------------------

    Doubly Occupied:

       1A    -20.519883     2A    -15.583446     3A    -11.339413
       4A    -11.273218     5A     -1.396668     6A     -1.242752
       7A     -0.964806     8A     -0.846551     9A     -0.693969
      10A     -0.679330    11A     -0.636715    12A     -0.595508
      13A     -0.570105    14A     -0.548441    15A     -0.431065
      16A     -0.397116

  @DF-RHF Final Energy:  -208.04054056951566

   => Energetics <=

    Nuclear Repulsion Energy =            120.6840293296817919
    One-Electron Energy =                -522.0111632240450490
    Two-Electron Energy =                 193.2865933248475585
    DFT Exchange-Correlation Energy =       0.0000000000000000
    Empirical Dispersion Energy =           0.0000000000000000
    PCM Polarization Energy =               0.0000000000000000
    EFP Energy =                            0.0000000000000000
    Total Energy =                       -208.0405405695157128
    Molecular point group: c1
  Basis Set: CC-PVTZ
  Basis Set:

  -Total Gradient:
     Atom            X                  Y                   Z
    ------   -----------------  -----------------  -----------------
       1       -0.000747238331    -0.001236287091     0.005211567144
       2        0.000636523526     0.001877264715    -0.005398004381
       3        0.000976686654    -0.001328353906    -0.004866353270
       4        0.000040634137    -0.000025382717    -0.000006966425
       5        0.000146138805     0.000034515913    -0.000373290984
       6       -0.001008425453     0.000635429948     0.005420994318
       7       -0.000019652627     0.000012782378    -0.000001032785
       8       -0.000022866652     0.000033547117     0.000011546685
       9       -0.000001800054    -0.000003516358     0.000001539698

  **** Optimization is complete! (in 11 steps) ****
    Final optimized geometry and variables:
    Molecular point group: c1

    Geometry (in Angstrom), charge = 0, multiplicity = 1:

    H            0.960765622746     1.074790699388     0.343652405964
    C            0.712505972427     0.048027499214     0.066103370980
    N           -0.604785196124    -0.136492005997    -0.165071389426
    O            1.537983534086    -0.804910959750     0.015228134001
    C           -1.594686124229     0.889957279879     0.059514762951
    H           -0.907161121403    -1.081844928987    -0.110671332175
    H           -2.362960845869     0.839686058965    -0.700028356145
    H           -1.126991054512     1.862044638243    -0.010287677926
    H           -2.065502086353     0.807888240701     1.033499526592

  Mulliken Charges: (a.u.)
   Center  Symbol    Alpha    Beta     Spin     Total
       1     H     0.47166  0.47166  0.00000  0.05668
       2     C     2.87905  2.87905  0.00000  0.24190
       3     N     3.59867  3.59867  0.00000 -0.19734
       4     O     4.20458  4.20458  0.00000 -0.40916
       5     C     3.07476  3.07476  0.00000 -0.14952
       6     H     0.41217  0.41217  0.00000  0.17566
       7     H     0.44855  0.44855  0.00000  0.10290
       8     H     0.45393  0.45393  0.00000  0.09213
       9     H     0.45663  0.45663  0.00000  0.08674

   Total alpha = 16.00000, Total beta = 16.00000, Total charge =  0.00000
