                              Psi4 1.0.54 Driver

  ==> Input File <==

--------------------------------------------------------------------------
set {
	reference rhf
	basis cc-pvtz
}

set_num_threads( 4 )
memory 2 gb

molecule MOL {
0 1

H	 2.847118	 -0.419518	 0.071412
O	 2.011370	 -0.861388	 0.074744
C	 1.050374	 0.054877	 0.000135
C	 -0.318151	 -0.570512	 0.000144
O	 1.287047	 1.211859	 -0.057705
C	 -1.454884	 0.441630	 -0.000560
H	 -0.371613	 -1.223646	 -0.864985
H	 -0.371920	 -1.222758	 0.865929
C	 -2.822577	 -0.232186	 0.000063
H	 -1.359760	 1.084704	 -0.867077
H	 -1.359641	 1.085996	 0.864983
H	 -2.954352	 -0.858985	 -0.875745
H	 -3.615886	 0.505352	 0.000019
H	 -2.953878	 -0.858359	 0.876394

	symmetry c1
}
set optking {
	frozen_dihedral = ("
		2 3 4 7
	")
}

ee,wfn = optimize('scf', return_wfn=True)
oeprop( wfn, 'DIPOLE', 'QUADRUPOLE', 'MULLIKEN_CHARGES')
f=open( 'psi4out.xyz', 'w' )
f.write( "14  " )
f.write( str(ee) + "\n" )
f.write( MOL.save_string_xyz() )
f.close()
--------------------------------------------------------------------------

    Molecular point group: c1
  Charge       = 0
  Multiplicity = 1
  Basis Set: CC-PVTZ
  Basis Set:
  @DF-RHF Final Energy:  -306.00104067350583
    Total Energy =                       -306.0010406735058268
    Molecular point group: c1
  Basis Set: CC-PVTZ
  Basis Set:
  Basis Set: CC-PVTZ
  Basis Set:
  @DF-RHF Final Energy:  -306.00104222349432
    Total Energy =                       -306.0010422234942098
  Basis Set: CC-PVTZ
  Basis Set:
  Basis Set: CC-PVTZ
  Basis Set:
  @DF-RHF Final Energy:  -306.00103452902499
    Total Energy =                       -306.0010345290249347
  Basis Set: CC-PVTZ
  Basis Set:
  Charge       = 0
  Multiplicity = 1
  Basis Set: CC-PVTZ
  Basis Set:

    Orbital Energies (a.u.)
    -----------------------

    Doubly Occupied:

       1A    -20.604501     2A    -20.541058     3A    -11.374029
       4A    -11.239871     5A    -11.223892     6A    -11.215421
       7A     -1.478084     8A     -1.369616     9A     -1.084478
      10A     -0.980996    11A     -0.859252    12A     -0.792986
      13A     -0.704219    14A     -0.691924    15A     -0.670042
      16A     -0.617977    17A     -0.596888    18A     -0.574650
      19A     -0.546129    20A     -0.507068    21A     -0.492266
      22A     -0.485277    23A     -0.482087    24A     -0.447736

  @DF-RHF Final Energy:  -306.00104536591812

   => Energetics <=

    Nuclear Repulsion Energy =            240.4562048111607453
    One-Electron Energy =                -893.7536130914752448
    Two-Electron Energy =                 347.2963629143964681
    DFT Exchange-Correlation Energy =       0.0000000000000000
    Empirical Dispersion Energy =           0.0000000000000000
    PCM Polarization Energy =               0.0000000000000000
    EFP Energy =                            0.0000000000000000
    Total Energy =                       -306.0010453659180030
    Molecular point group: c1
  Basis Set: CC-PVTZ
  Basis Set:

  -Total Gradient:
     Atom            X                  Y                   Z
    ------   -----------------  -----------------  -----------------
       1        0.000016969204     0.000011344380    -0.000009481183
       2       -0.000020310398    -0.000004997915     0.000135738544
       3       -0.000012511071     0.000008919342    -0.000131424931
       4        0.000079320894    -0.000170673707     0.000136082422
       5        0.000000200670     0.000014248524    -0.000037153639
       6        0.000009796556    -0.000010973257    -0.000015166577
       7       -0.000075426929     0.000161372724    -0.000095960356
       8        0.000003227036    -0.000014551123     0.000021879283
       9       -0.000001657353     0.000001856593    -0.000000697022
      10       -0.000005185901     0.000007025919    -0.000003918119
      11        0.000004476687    -0.000004054082    -0.000000711040
      12        0.000002852319     0.000001884476    -0.000000128842
      13       -0.000000426679     0.000000144875    -0.000000710660
      14       -0.000001325030    -0.000001546748     0.000001652121

  **** Optimization is complete! (in 4 steps) ****
    Final optimized geometry and variables:
    Molecular point group: c1

    Geometry (in Angstrom), charge = 0, multiplicity = 1:

    H            2.847481911373    -0.418838081281     0.058891679339
    O            2.011943117027    -0.861058574736     0.070151994499
    C            1.050284407977     0.054849906539    -0.000647564285
    C           -0.318009555322    -0.571057956453     0.000903221729
    O            1.286355121761     1.211880274821    -0.059990983094
    C           -1.454680618403     0.441242243237    -0.004705309505
    H           -0.369411126055    -1.221697360100    -0.866624367723
    H           -0.374252408289    -1.224501895221     0.865127615189
    C           -2.822422023791    -0.232423042447    -0.010233187748
    H           -1.355298598975     1.084586082663    -0.870300949515
    H           -1.363593877552     1.085229827661     0.861813884223
    H           -2.950254010271    -0.858759164189    -0.886966824056
    H           -3.615626850584     0.505227528046    -0.013555327459
    H           -2.957774402041    -0.859015537174     0.865177723526

  Mulliken Charges: (a.u.)
   Center  Symbol    Alpha    Beta     Spin     Total
       1     H     0.38227  0.38227  0.00000  0.23545
       2     O     4.16006  4.16006  0.00000 -0.32012
       3     C     2.80535  2.80535  0.00000  0.38930
       4     C     3.10530  3.10530  0.00000 -0.21060
       5     O     4.19098  4.19098  0.00000 -0.38196
       6     C     3.07939  3.07939  0.00000 -0.15877
       7     H     0.43937  0.43937  0.00000  0.12126
       8     H     0.43847  0.43847  0.00000  0.12306
       9     C     3.15030  3.15030  0.00000 -0.30059
      10     H     0.44556  0.44556  0.00000  0.10887
      11     H     0.44685  0.44685  0.00000  0.10631
      12     H     0.45546  0.45546  0.00000  0.08908
      13     H     0.44510  0.44510  0.00000  0.10980
      14     H     0.45554  0.45554  0.00000  0.08892

   Total alpha = 24.00000, Total beta = 24.00000, Total charge = -0.00000

*** Psi4 exiting successfully. Buy a developer a beer!
