  ==> Input File <==

--------------------------------------------------------------------------
set {
	reference rhf
	basis 6-31G*
}

set_num_threads( 1 )
memory 2 gb

molecule MOL {
0 1

H	 -3.420663	 1.227371	 -1.044276
O	 -3.452007	 0.283848	 -0.965577
C	 -3.181085	 -0.079926	 0.364119
C	 -1.765924	 0.277073	 0.805136
H	 -3.327791	 -1.152017	 0.410903
H	 -3.905698	 0.375695	 1.036898
C	 -0.677594	 -0.417312	 -0.014550
H	 -1.637766	 1.358238	 0.744969
H	 -1.659588	 0.017670	 1.857098
C	 0.738335	 -0.034840	 0.421385
H	 -0.814977	 -0.178223	 -1.064632
H	 -0.802730	 -1.495410	 0.071702
C	 1.822265	 -0.738362	 -0.399735
H	 0.853533	 1.043532	 0.342250
H	 0.871597	 -0.279636	 1.474438
C	 1.369715	 -1.215628	 -1.784499
H	 2.206340	 -1.587120	 0.163995
H	 2.660043	 -0.055911	 -0.527038
C	 0.314655	 -2.323213	 -1.761950
H	 2.241002	 -1.575966	 -2.326076
H	 0.990723	 -0.367374	 -2.351096
H	 0.661365	 -3.180498	 -1.190992
H	 0.093425	 -2.665411	 -2.768328
H	 -0.618021	 -1.987302	 -1.320994

	symmetry c1
}
set optking {
	frozen_dihedral = ("
		20 16 13 17,
		13 10 7 11,
		11 7 4 3,
		1 2 3 5,
		7 4 3 2
	")
}

ee = energy('scf')
oeprop('DIPOLE', 'QUADRUPOLE', 'MULLIKEN_CHARGES')
f=open( 'psi4out.xyz', 'w' )
f.write( "24  " )
f.write( str(ee) + "\n" )
f.write( MOL.save_string_xyz() )
f.close()
--------------------------------------------------------------------------

    Molecular point group: c1

    Geometry (in Angstrom), charge = 0, multiplicity = 1:

       Center              X                  Y                   Z               Mass
    ------------   -----------------  -----------------  -----------------  -----------------
           H         -2.753911581785     1.747788282789    -0.610006517061     1.007825032070
           O         -2.785255581785     0.804265282789    -0.531307517061    15.994914619560
           C         -2.514333581785     0.440491282789     0.798388482939    12.000000000000
           C         -1.099172581785     0.797490282789     1.239405482939    12.000000000000
           H         -2.661039581785    -0.631599717211     0.845172482939     1.007825032070
           H         -3.238946581785     0.896112282789     1.471167482939     1.007825032070
           C         -0.010842581785     0.103105282789     0.419719482939    12.000000000000
           H         -0.971014581785     1.878655282789     1.179238482939     1.007825032070
           H         -0.992836581785     0.538087282789     2.291367482939     1.007825032070
           C          1.405086418215     0.485577282789     0.855654482939    12.000000000000
           H         -0.148225581785     0.342194282789    -0.630362517061     1.007825032070
           H         -0.135978581785    -0.974992717211     0.505971482939     1.007825032070
           C          2.489016418215    -0.217944717211     0.034534482939    12.000000000000
           H          1.520284418215     1.563949282789     0.776519482939     1.007825032070
           H          1.538348418215     0.240781282789     1.908707482939     1.007825032070
           C          2.036466418215    -0.695210717211    -1.350229517061    12.000000000000
           H          2.873091418215    -1.066702717211     0.598264482939     1.007825032070
           H          3.326794418215     0.464506282789    -0.092768517061     1.007825032070
           C          0.981406418215    -1.802795717211    -1.327680517061    12.000000000000
           H          2.907753418215    -1.055548717211    -1.891806517061     1.007825032070
           H          1.657474418215     0.153043282789    -1.916826517061     1.007825032070
           H          1.328116418215    -2.660080717211    -0.756722517061     1.007825032070
           H          0.760176418215    -2.144993717211    -2.334058517061     1.007825032070
           H          0.048730418215    -1.466884717211    -0.886724517061     1.007825032070

  Charge       = 0
  Multiplicity = 1
  Basis Set: 6-31G*
  Basis Set:

    Orbital Energies (a.u.)
    -----------------------

    Doubly Occupied:

       1A    -20.554452     2A    -11.268083     3A    -11.215873
       4A    -11.212597     5A    -11.211524     6A    -11.210452
       7A    -11.208347     8A    -11.193800     9A     -1.360995
      10A     -1.095695    11A     -1.041208    12A     -0.980643
      13A     -0.927607    14A     -0.848308    15A     -0.804637
      16A     -0.771265    17A     -0.683231    18A     -0.655180
      19A     -0.624007    20A     -0.613186    21A     -0.607532
      22A     -0.585672    23A     -0.559047    24A     -0.538688
      25A     -0.519500    26A     -0.506665    27A     -0.495005
      28A     -0.479087    29A     -0.471113    30A     -0.458084
      31A     -0.446401    32A     -0.424713    33A     -0.419371

  @DF-RHF Final Energy:  -349.21231864771556

   => Energetics <=

    Nuclear Repulsion Energy =            404.6614750523783073
    One-Electron Energy =               -1275.7635725105703841
    Two-Electron Energy =                 521.8897788104779920
    DFT Exchange-Correlation Energy =       0.0000000000000000
    Empirical Dispersion Energy =           0.0000000000000000
    PCM Polarization Energy =               0.0000000000000000
    EFP Energy =                            0.0000000000000000
    Total Energy =                       -349.2123186477140280

  Mulliken Charges: (a.u.)
   Center  Symbol    Alpha    Beta     Spin     Total
       1     H     0.28317  0.28317  0.00000  0.43366
       2     O     4.36854  4.36854  0.00000 -0.73708
       3     C     2.99686  2.99686  0.00000  0.00628
       4     C     3.16511  3.16511  0.00000 -0.33022
       5     H     0.41711  0.41711  0.00000  0.16579
       6     H     0.42780  0.42780  0.00000  0.14440
       7     C     3.17350  3.17350  0.00000 -0.34699
       8     H     0.42949  0.42949  0.00000  0.14102
       9     H     0.42297  0.42297  0.00000  0.15406
      10     C     3.14975  3.14975  0.00000 -0.29949
      11     H     0.40541  0.40541  0.00000  0.18917
      12     H     0.41509  0.41509  0.00000  0.16981
      13     C     3.15480  3.15480  0.00000 -0.30960
      14     H     0.42308  0.42308  0.00000  0.15383
      15     H     0.42207  0.42207  0.00000  0.15587
      16     C     3.15966  3.15966  0.00000 -0.31933
      17     H     0.42286  0.42286  0.00000  0.15427
      18     H     0.42049  0.42049  0.00000  0.15902
      19     C     3.24576  3.24576  0.00000 -0.49152
      20     H     0.41947  0.41947  0.00000  0.16107
      21     H     0.42239  0.42239  0.00000  0.15521
      22     H     0.42566  0.42566  0.00000  0.14867
      23     H     0.42113  0.42113  0.00000  0.15774
      24     H     0.40782  0.40782  0.00000  0.18435

   Total alpha = 33.00000, Total beta = 33.00000, Total charge =  0.00000
