  ==> Input File <==

--------------------------------------------------------------------------
set {
	reference rhf
	basis 6-31G*
}

set_num_threads( 4 )
memory 2 gb

molecule MOL {
0 1

H	 -3.042581	 -0.665861	 0.004336
O	 -2.245037	 -1.176175	 0.000806
C	 -1.162163	 -0.365336	 0.001020
C	 -1.256181	 1.000008	 -0.199797
C	 0.075784	 -0.960544	 0.210890
H	 -2.214724	 1.462371	 -0.365286
C	 -0.097938	 1.764370	 -0.188254
H	 0.112273	 -2.024126	 0.361153
C	 1.230065	 -0.197269	 0.223523
H	 -0.167135	 2.826079	 -0.346450
C	 1.134786	 1.179439	 0.019641
C	 2.574197	 -0.839860	 0.475486
H	 2.023868	 1.785120	 0.023277
H	 3.327444	 -0.448784	 -0.200139
H	 2.529839	 -1.914422	 0.344298
H	 2.910979	 -0.643105	 1.489494

	symmetry c1
}
set optking {
	frozen_dihedral = ("
		5 3 2 1
	")
}

ee = optimize('scf')
oeprop('DIPOLE', 'QUADRUPOLE', 'MULLIKEN_CHARGES')
f=open( 'psi4out.xyz', 'w' )
f.write( "16  " )
f.write( str(ee) + "\n" )
f.write( MOL.save_string_xyz() )
f.close()
--------------------------------------------------------------------------

    Molecular point group: c1
  Charge       = 0
  Multiplicity = 1
  Basis Set: 6-31G*
  Basis Set:
  @DF-RHF Final Energy:  -344.59501647026605
    Total Energy =                       -344.5950164702660459
    Molecular point group: c1
  Basis Set: 6-31G*
  Basis Set:
  Basis Set: 6-31G*
  Basis Set:
  @DF-RHF Final Energy:  -344.59501947396956
    Total Energy =                       -344.5950194739695576
  Basis Set: 6-31G*
  Basis Set:
  Charge       = 0
  Multiplicity = 1
  Basis Set: 6-31G*
  Basis Set:

    Orbital Energies (a.u.)
    -----------------------

    Doubly Occupied:

       1A    -20.588663     2A    -11.295812     3A    -11.241524
       4A    -11.234810     5A    -11.222643     6A    -11.220067
       7A    -11.215994     8A    -11.215898     9A     -1.407167
      10A     -1.149339    11A     -1.042818    12A     -1.004661
      13A     -0.936070    14A     -0.823571    15A     -0.822715
      16A     -0.712968    17A     -0.680525    18A     -0.652737
      19A     -0.608223    20A     -0.589771    21A     -0.571679
      22A     -0.568350    23A     -0.564933    24A     -0.531320
      25A     -0.504345    26A     -0.481674    27A     -0.467264
      28A     -0.328860    29A     -0.305815

  @DF-RHF Final Energy:  -344.59502035578640

   => Energetics <=

    Nuclear Repulsion Energy =            345.5494739154859758
    One-Electron Energy =               -1152.3085546825382153
    Two-Electron Energy =                 462.1640604112659503
    DFT Exchange-Correlation Energy =       0.0000000000000000
    Empirical Dispersion Energy =           0.0000000000000000
    PCM Polarization Energy =               0.0000000000000000
    EFP Energy =                            0.0000000000000000
    Total Energy =                       -344.5950203557862324
    Molecular point group: c1
  Basis Set: 6-31G*
  Basis Set:

  -Total Gradient:
     Atom            X                  Y                   Z
    ------   -----------------  -----------------  -----------------
       1       -0.000002981052    -0.000008063249     0.001082822600
       2       -0.000023095914     0.000079794746    -0.001002390404
       3        0.000072794265    -0.000179114532    -0.000879222837
       4       -0.000008526024    -0.000007853747     0.000060345941
       5       -0.000036955940     0.000123146434     0.000760926430
       6        0.000001616330    -0.000001534623    -0.000013487899
       7        0.000025443748    -0.000008633422    -0.000026930402
       8       -0.000004683438     0.000000124347     0.000009881254
       9       -0.000015689584    -0.000008086226     0.000057640504
      10       -0.000004178256     0.000003269019     0.000005301333
      11       -0.000005615928     0.000014616816    -0.000028892292
      12        0.000004826653    -0.000000264407    -0.000030650505
      13       -0.000000909022    -0.000000478281     0.000001285773
      14        0.000007561994     0.000000343705     0.000005236006
      15        0.000002763354    -0.000008165012    -0.000005240276
      16       -0.000012371186     0.000000898432     0.000003374776

  **** Optimization is complete! (in 3 steps) ****
    Final optimized geometry and variables:
    Molecular point group: c1

    Geometry (in Angstrom), charge = 0, multiplicity = 1:

    H           -3.039064385291    -0.670353448732    -0.072760230928
    O           -2.241832690167    -1.181181276823    -0.074708523008
    C           -1.158161161538    -0.370442824838    -0.071712744596
    C           -1.252548586833     0.995077397992    -0.270879247804
    C            0.079405989751    -0.965224161222     0.140590623401
    H           -2.210875762688     1.456456506840    -0.440143970079
    C           -0.094423852470     1.759640972968    -0.258396259583
    H            0.115391896245    -2.028320406719     0.294438839787
    C            1.234117504046    -0.202466672398     0.150144837721
    H           -0.163767351051     2.821531110311    -0.415413979235
    C            1.138524846491     1.174295975789    -0.053022762402
    C            2.578429298524    -0.844871019181     0.401719532071
    H            2.027639670272     1.779979698831    -0.049794033798
    H            3.330594888293    -0.456117204093    -0.276514755619
    H            2.533425375297    -1.919852031672     0.273643916510
    H            2.917328492254    -0.645192472886     1.414476818561

  Mulliken Charges: (a.u.)
   Center  Symbol    Alpha    Beta     Spin     Total
       1     H     0.27199  0.27199  0.00000  0.45602
       2     O     4.37913  4.37913  0.00000 -0.75827
       3     C     2.79001  2.79001  0.00000  0.41999
       4     C     3.14900  3.14900  0.00000 -0.29799
       5     C     3.14040  3.14040  0.00000 -0.28079
       6     H     0.40532  0.40532  0.00000  0.18936
       7     C     3.08719  3.08719  0.00000 -0.17438
       8     H     0.39436  0.39436  0.00000  0.21127
       9     C     2.96922  2.96922  0.00000  0.06157
      10     H     0.39892  0.39892  0.00000  0.20216
      11     C     3.12390  3.12390  0.00000 -0.24781
      12     C     3.25465  3.25465  0.00000 -0.50930
      13     H     0.40345  0.40345  0.00000  0.19310
      14     H     0.41180  0.41180  0.00000  0.17639
      15     H     0.41154  0.41154  0.00000  0.17692
      16     H     0.40912  0.40912  0.00000  0.18176

   Total alpha = 29.00000, Total beta = 29.00000, Total charge = -0.00000
