  ==> Input File <==

--------------------------------------------------------------------------
set {
	reference rhf
	basis cc-pvtz
}

set_num_threads( 4 )
memory 2 gb

molecule MOL {
0 1

H	 0.043634	 3.792205	 -1.514664
O	 -0.325299	 3.096910	 -1.002309
C	 0.652546	 2.126889	 -0.728637
C	 0.027642	 1.012027	 0.090274
H	 1.472160	 2.564770	 -0.164491
H	 1.067816	 1.735714	 -1.653297
C	 -1.138737	 0.285728	 -0.581921
H	 -0.315318	 1.437149	 1.027907
H	 0.810808	 0.298997	 0.336147
C	 -1.933983	 -0.631436	 0.343653
H	 -0.763151	 -0.285569	 -1.422081
H	 -1.808359	 1.035291	 -0.992333
H	 -2.789188	 -1.049673	 -0.174718
H	 -1.335629	 -1.461368	 0.700418
H	 -2.305435	 -0.092167	 1.209725

	symmetry c1
}
set optking {
	frozen_dihedral = ("
		8 4 7 11
	")
}

ee = optimize('scf')
oeprop('DIPOLE', 'QUADRUPOLE', 'MULLIKEN_CHARGES')
f=open( 'psi4out.xyz', 'w' )
f.write( "15  " )
f.write( str(ee) + "\n" )
f.write( MOL.save_string_xyz() )
f.close()
--------------------------------------------------------------------------

    Molecular point group: c1
  Charge       = 0
  Multiplicity = 1
  Basis Set: CC-PVTZ
  Basis Set:
  @DF-RHF Final Energy:  -232.23815032288610
    Total Energy =                       -232.2381503228860424
    Molecular point group: c1
  Basis Set: CC-PVTZ
  Basis Set:
  Basis Set: CC-PVTZ
  Basis Set:
  @DF-RHF Final Energy:  -232.23878101733823
    Total Energy =                       -232.2387810173382832
  Basis Set: CC-PVTZ
  Basis Set:
  Basis Set: CC-PVTZ
  Basis Set:
  @DF-RHF Final Energy:  -232.23882743235120
    Total Energy =                       -232.2388274323510586
  Basis Set: CC-PVTZ
  Basis Set:
  Basis Set: CC-PVTZ
  Basis Set:
  @DF-RHF Final Energy:  -232.23883208110885
    Total Energy =                       -232.2388320811089670
  Basis Set: CC-PVTZ
  Basis Set:
  Charge       = 0
  Multiplicity = 1
  Basis Set: CC-PVTZ
  Basis Set:

    Orbital Energies (a.u.)
    -----------------------

    Doubly Occupied:

       1A    -20.546462     2A    -11.266212     3A    -11.210598
       4A    -11.207386     5A    -11.202845     6A     -1.364369
       7A     -1.066257     8A     -0.975036     9A     -0.857024
      10A     -0.787508    11A     -0.708730    12A     -0.637711
      13A     -0.613680    14A     -0.594476    15A     -0.547774
      16A     -0.526527    17A     -0.516591    18A     -0.476634
      19A     -0.465582    20A     -0.458817    21A     -0.432842

  @DF-RHF Final Energy:  -232.23883268317852

   => Energetics <=

    Nuclear Repulsion Energy =            188.8871016904824671
    One-Electron Energy =                -689.3257404061389479
    Two-Electron Energy =                 268.1998060324780795
    DFT Exchange-Correlation Energy =       0.0000000000000000
    Empirical Dispersion Energy =           0.0000000000000000
    PCM Polarization Energy =               0.0000000000000000
    EFP Energy =                            0.0000000000000000
    Total Energy =                       -232.2388326831783729
    Molecular point group: c1
  Basis Set: CC-PVTZ
  Basis Set:

  -Total Gradient:
     Atom            X                  Y                   Z
    ------   -----------------  -----------------  -----------------
       1        0.000002180775     0.000007607380     0.000006169733
       2        0.000000422829    -0.000022263111     0.000012338984
       3       -0.000000456520     0.000026243708    -0.000010207461
       4       -0.000422758192     0.001454394525    -0.000776468301
       5       -0.000018141958     0.000004140813    -0.000014938870
       6        0.000024025612    -0.000013660574    -0.000005756043
       7       -0.000155024711     0.001312586472    -0.001016995540
       8        0.000381972564    -0.001432318721     0.000798061812
       9        0.000005408212    -0.000006830962     0.000007748307
      10       -0.000016771764    -0.000038028759    -0.000016276354
      11        0.000198025504    -0.001308495448     0.001027800881
      12       -0.000008614805     0.000017992268    -0.000022687624
      13        0.000006105862    -0.000002132765     0.000016071035
      14        0.000003471386    -0.000010966520     0.000004161437
      15        0.000000155207     0.000011731696    -0.000009021997

  **** Optimization is complete! (in 5 steps) ****
    Final optimized geometry and variables:
    Molecular point group: c1

    Geometry (in Angstrom), charge = 0, multiplicity = 1:

    H            0.626309738848     2.569063215849    -1.100002894977
    O            0.250674390033     1.899943629695    -0.558628019714
    C            1.180619758970     0.869071163217    -0.348595640125
    C            0.533888781324    -0.218652854492     0.485995611373
    H            2.056839805404     1.251860050789     0.168308940199
    H            1.512996438749     0.457482008503    -1.299771036958
    C           -0.622148141367    -0.932200035053    -0.211224013549
    H            0.191049314345     0.214122146386     1.420969034179
    H            1.300935909971    -0.943486793523     0.747570344130
    C           -1.378813553911    -1.872914580251     0.721488105235
    H           -0.231768140925    -1.506763954177    -1.047328761607
    H           -1.304427080808    -0.197802877126    -0.620784688217
    H           -2.175966760780    -2.387248000939     0.197068894278
    H           -0.719630816334    -2.626589297865     1.140713677970
    H           -1.823974245932    -1.328520868430     1.547463508283

  Mulliken Charges: (a.u.)
   Center  Symbol    Alpha    Beta     Spin     Total
       1     H     0.39545  0.39545  0.00000  0.20911
       2     O     4.19891  4.19891  0.00000 -0.39783
       3     C     2.97263  2.97263  0.00000  0.05475
       4     C     3.08789  3.08789  0.00000 -0.17579
       5     H     0.46514  0.46514  0.00000  0.06971
       6     H     0.47385  0.47385  0.00000  0.05229
       7     C     3.08429  3.08429  0.00000 -0.16857
       8     H     0.45328  0.45328  0.00000  0.09343
       9     H     0.45457  0.45457  0.00000  0.09086
      10     C     3.14957  3.14957  0.00000 -0.29913
      11     H     0.45868  0.45868  0.00000  0.08265
      12     H     0.44508  0.44508  0.00000  0.10984
      13     H     0.44919  0.44919  0.00000  0.10162
      14     H     0.45736  0.45736  0.00000  0.08528
      15     H     0.45411  0.45411  0.00000  0.09178

   Total alpha = 21.00000, Total beta = 21.00000, Total charge =  0.00000
