  ==> Input File <==

--------------------------------------------------------------------------
set {
	reference rhf
	basis cc-pvtz
}

set_num_threads( 4 )
memory 2 gb

molecule MOL {
0 1

H	 -2.498963	 -0.741158	 -0.729149
O	 -2.346257	 -0.289210	 0.080372
C	 -1.183935	 0.486039	 -0.009831
C	 0.062853	 -0.375310	 0.027457
H	 -1.178881	 1.094526	 -0.908634
H	 -1.184406	 1.155156	 0.838676
O	 1.172093	 0.457955	 -0.054438
H	 0.052476	 -1.081302	 -0.804627
H	 0.076323	 -0.955658	 0.947560
C	 1.063473	 1.639863	 0.668415
H	 0.931307	 1.445441	 1.730492
H	 1.976970	 2.198901	 0.528114
H	 0.226800	 2.241944	 0.322011

	symmetry c1
}
set optking {
	frozen_dihedral = ("
		10 7 4 8
	")
}

ee = optimize('scf')
oeprop('DIPOLE', 'QUADRUPOLE', 'MULLIKEN_CHARGES')
f=open( 'psi4out.xyz', 'w' )
f.write( "13  " )
f.write( str(ee) + "\n" )
f.write( MOL.save_string_xyz() )
f.close()
--------------------------------------------------------------------------

    Molecular point group: c1
  Charge       = 0
  Multiplicity = 1
  Basis Set: CC-PVTZ
  Basis Set:
  @DF-RHF Final Energy:  -268.04625400417632
    Total Energy =                       -268.0462540041763191
    Molecular point group: c1
  Basis Set: CC-PVTZ
  Basis Set:
  Basis Set: CC-PVTZ
  Basis Set:
  @DF-RHF Final Energy:  -268.04691359057261
    Total Energy =                       -268.0469135905725011
  Basis Set: CC-PVTZ
  Basis Set:
  Basis Set: CC-PVTZ
  Basis Set:
  @DF-RHF Final Energy:  -268.05303459167123
    Total Energy =                       -268.0530345916712918
  Basis Set: CC-PVTZ
  Basis Set:
  Basis Set: CC-PVTZ
  Basis Set:
  @DF-RHF Final Energy:  -268.05501013687444
    Total Energy =                       -268.0550101368745004
  Basis Set: CC-PVTZ
  Basis Set:
  Basis Set: CC-PVTZ
  Basis Set:
  @DF-RHF Final Energy:  -268.05532924225736
    Total Energy =                       -268.0553292422573577
  Basis Set: CC-PVTZ
  Basis Set:
  Basis Set: CC-PVTZ
  Basis Set:
  @DF-RHF Final Energy:  -268.05541731760627
    Total Energy =                       -268.0554173176064978
  Basis Set: CC-PVTZ
  Basis Set:
  Basis Set: CC-PVTZ
  Basis Set:
  @DF-RHF Final Energy:  -268.05542625337330
    Total Energy =                       -268.0554262533732413
  Basis Set: CC-PVTZ
  Basis Set:
  Charge       = 0
  Multiplicity = 1
  Basis Set: CC-PVTZ
  Basis Set:

    Orbital Energies (a.u.)
    -----------------------

    Doubly Occupied:

       1A    -20.557224     2A    -20.553137     3A    -11.273298
       4A    -11.270342     5A    -11.267798     6A     -1.387175
       7A     -1.372321     8A     -1.013751     9A     -0.937674
      10A     -0.830377    11A     -0.715629    12A     -0.676749
      13A     -0.662053    14A     -0.640651    15A     -0.599227
      16A     -0.563950    17A     -0.546236    18A     -0.520616
      19A     -0.479454    20A     -0.446688    21A     -0.411662

  @DF-RHF Final Energy:  -268.05542746547405

   => Energetics <=

    Nuclear Repulsion Energy =            193.1414360164556854
    One-Electron Energy =                -748.9417034281677843
    Two-Electron Energy =                 287.7448399462378461
    DFT Exchange-Correlation Energy =       0.0000000000000000
    Empirical Dispersion Energy =           0.0000000000000000
    PCM Polarization Energy =               0.0000000000000000
    EFP Energy =                            0.0000000000000000
    Total Energy =                       -268.0554274654742244
    Molecular point group: c1
  Basis Set: CC-PVTZ
  Basis Set:

  -Total Gradient:
     Atom            X                  Y                   Z
    ------   -----------------  -----------------  -----------------
       1       -0.000020759599    -0.000011911742    -0.000005362193
       2        0.000004007507    -0.000024997586    -0.000051585366
       3        0.000001161458     0.000028205383     0.000110104974
       4        0.002415970371    -0.003329205241     0.001591825788
       5        0.000003817801    -0.000028523625    -0.000007458717
       6        0.000034246985     0.000025352209     0.000000488758
       7        0.002078377456    -0.002360812338     0.004517284525
       8       -0.002707314638     0.003532215394    -0.002696611502
       9       -0.000026605004     0.000018284306    -0.000005179013
      10       -0.001778638618     0.002160302505    -0.003472737909
      11       -0.000013814530    -0.000010264191     0.000010330919
      12       -0.000006390123     0.000013736378    -0.000006864551
      13        0.000015940940    -0.000012381454     0.000015764289

  **** Optimization is complete! (in 8 steps) ****
    Final optimized geometry and variables:
    Molecular point group: c1

    Geometry (in Angstrom), charge = 0, multiplicity = 1:

    H           -2.112514089798    -1.290084084442    -0.934073504542
    O           -2.091458842394    -0.812070465722    -0.124892178014
    C           -1.017821268009     0.086150915197    -0.120287888099
    C            0.304496405190    -0.672912379788    -0.078802984163
    H           -1.044427797096     0.736943934005    -0.990469439192
    H           -1.150462339649     0.702727146215     0.756740904019
    O            1.451278468638     0.116290474131    -0.182777493606
    H            0.315981621878    -1.323650778979    -0.945509154349
    H            0.335136869841    -1.283842508206     0.819655056373
    C            1.490145595662     1.308852065305     0.534850717449
    H            1.282909607517     1.153587004238     1.591528929450
    H            2.490823731835     1.703985117131     0.438383310287
    H            0.793208110521     2.045058474877     0.148849901429

  Mulliken Charges: (a.u.)
   Center  Symbol    Alpha    Beta     Spin     Total
       1     H     0.39329  0.39329  0.00000  0.21341
       2     O     4.20137  4.20137  0.00000 -0.40273
       3     C     2.98745  2.98745  0.00000  0.02510
       4     C     2.97728  2.97728  0.00000  0.04545
       5     H     0.46494  0.46494  0.00000  0.07011
       6     H     0.45229  0.45229  0.00000  0.09542
       7     O     4.17752  4.17752  0.00000 -0.35503
       8     H     0.46494  0.46494  0.00000  0.07012
       9     H     0.46316  0.46316  0.00000  0.07369
      10     C     3.03632  3.03632  0.00000 -0.07264
      11     H     0.47021  0.47021  0.00000  0.05958
      12     H     0.44228  0.44228  0.00000  0.11544
      13     H     0.46896  0.46896  0.00000  0.06207

   Total alpha = 21.00000, Total beta = 21.00000, Total charge = -0.00000
