  ==> Input File <==

--------------------------------------------------------------------------
set {
	reference rhf
	basis 6-31G*
}

set_num_threads( 4 )
memory 2 gb

molecule MOL {
0 1

H	 -2.808372	 -0.316554	 -0.814878
O	 -2.315789	 -0.143634	 -0.024262
C	 -0.945151	 -0.064130	 -0.333158
H	 -0.813375	 -0.223047	 -1.403232
C	 -0.232801	 -1.184051	 0.407206
C	 -0.355424	 1.302939	 0.054523
H	 -0.318824	 -0.992899	 1.473524
H	 -0.742411	 -2.122033	 0.217954
C	 1.248522	 -1.270719	 -0.013048
H	 -0.546144	 2.018388	 -0.742941
H	 -0.890929	 1.656788	 0.930149
C	 1.156425	 1.235120	 0.355905
H	 1.825384	 -1.683246	 0.809111
H	 1.357782	 -1.965923	 -0.840362
C	 1.828244	 0.099899	 -0.419275
H	 1.626109	 2.185622	 0.123525
H	 1.309438	 1.071213	 1.419539
H	 2.901447	 0.112642	 -0.255830
H	 1.681817	 0.263413	 -1.484607

	symmetry c1
}
set optking {
	frozen_dihedral = ("
		1 2 3 4
	")
}

ee = optimize('scf')
oeprop('DIPOLE', 'QUADRUPOLE', 'MULLIKEN_CHARGES')
f=open( 'psi4out.xyz', 'w' )
f.write( "19  " )
f.write( str(ee) + "\n" )
f.write( MOL.save_string_xyz() )
f.close()
--------------------------------------------------------------------------

    Molecular point group: c1
  Charge       = 0
  Multiplicity = 1
  Basis Set: 6-31G*
  Basis Set:
  @DF-RHF Final Energy:  -309.04601818214769
    Total Energy =                       -309.0460181821475203
    Molecular point group: c1
  Basis Set: 6-31G*
  Basis Set:
  Basis Set: 6-31G*
  Basis Set:
  @DF-RHF Final Energy:  -309.04653986275031
    Total Energy =                       -309.0465398627503077
  Basis Set: 6-31G*
  Basis Set:
  Basis Set: 6-31G*
  Basis Set:
  @DF-RHF Final Energy:  -309.04667031991039
    Total Energy =                       -309.0466703199104472
  Basis Set: 6-31G*
  Basis Set:
  Charge       = 0
  Multiplicity = 1
  Basis Set: 6-31G*
  Basis Set:

    Orbital Energies (a.u.)
    -----------------------

    Doubly Occupied:

       1A    -20.548687     2A    -11.270178     3A    -11.215170
       4A    -11.214575     5A    -11.213437     6A    -11.207695
       7A    -11.207648     8A     -1.357016     9A     -1.106995
      10A     -0.999231    11A     -0.987842    12A     -0.841298
      13A     -0.831565    14A     -0.730566    15A     -0.711417
      16A     -0.653480    17A     -0.623085    18A     -0.593140
      19A     -0.559606    20A     -0.543085    21A     -0.539088
      22A     -0.516435    23A     -0.496396    24A     -0.486797
      25A     -0.461389    26A     -0.448793    27A     -0.430182
      28A     -0.404754

  @DF-RHF Final Energy:  -309.04667216764312

   => Energetics <=

    Nuclear Repulsion Energy =            331.0132769286624352
    One-Electron Energy =               -1075.7207972754542880
    Two-Electron Energy =                 435.6608481791488998
    DFT Exchange-Correlation Energy =       0.0000000000000000
    Empirical Dispersion Energy =           0.0000000000000000
    PCM Polarization Energy =               0.0000000000000000
    EFP Energy =                            0.0000000000000000
    Total Energy =                       -309.0466721676429529
    Molecular point group: c1
  Basis Set: 6-31G*
  Basis Set:

  -Total Gradient:
     Atom            X                  Y                   Z
    ------   -----------------  -----------------  -----------------
       1       -0.000022522190     0.000413562568    -0.000056634614
       2        0.000092102704    -0.000607800798     0.000032411868
       3       -0.000121816320     0.000599740508    -0.000014187079
       4       -0.000013460680    -0.000313835676     0.000069255598
       5        0.000070749972     0.000043646680     0.000030478762
       6       -0.000046282958     0.000016931560    -0.000037390743
       7       -0.000020901078    -0.000003603632     0.000014400047
       8       -0.000015966810     0.000001252155    -0.000006539071
       9        0.000002508983     0.000034214370    -0.000009237384
      10       -0.000035564950    -0.000007756700    -0.000017553379
      11       -0.000009214269    -0.000044534285    -0.000029745099
      12        0.000010987074    -0.000077945968     0.000039521196
      13        0.000024495827     0.000010834547    -0.000008479884
      14        0.000031477853     0.000038745520    -0.000010332222
      15        0.000024570917    -0.000020770721     0.000009090117
      16        0.000011757675    -0.000019377801    -0.000011720372
      17        0.000009752191    -0.000001740352     0.000017949306
      18        0.000011108704    -0.000025243641     0.000000983706
      19       -0.000003782642    -0.000036318335    -0.000012270752

  **** Optimization is complete! (in 4 steps) ****
    Final optimized geometry and variables:
    Molecular point group: c1

    Geometry (in Angstrom), charge = 0, multiplicity = 1:

    H           -2.836417991749    -0.240371420978    -0.791355218263
    O           -2.322871507402    -0.090408393501    -0.012950186684
    C           -0.946409992686    -0.070326587856    -0.330347599377
    H           -0.824626756087    -0.233915192276    -1.399422529498
    C           -0.222412886340    -1.189962956757     0.406645065757
    C           -0.360500645816     1.297729406098     0.047256097686
    H           -0.313275083693    -1.003811732838     1.473528834591
    H           -0.723690454469    -2.133129181557     0.215737412942
    C            1.261706228985    -1.266711676308    -0.007806500762
    H           -0.554237092859     2.003643527570    -0.755957575041
    H           -0.907451292260     1.655434402763     0.912818225330
    C            1.148562356472     1.236298234912     0.360154160667
    H            1.839480129969    -1.673131867452     0.816851325799
    H            1.380174079487    -1.962726768704    -0.833526545566
    C            1.832067994231     0.107651706576    -0.413938643889
    H            1.614984310501     2.190132673432     0.134208160447
    H            1.296748182608     1.069883052075     1.424371870991
    H            2.905103190632     0.127409650941    -0.249771705131
    H            1.685483606021     0.269976861685    -1.479731222032

  Mulliken Charges: (a.u.)
   Center  Symbol    Alpha    Beta     Spin     Total
       1     H     0.28024  0.28024  0.00000  0.43951
       2     O     4.38065  4.38065  0.00000 -0.76129
       3     C     2.91478  2.91478  0.00000  0.17043
       4     H     0.43047  0.43047  0.00000  0.13905
       5     C     3.16454  3.16454  0.00000 -0.32909
       6     C     3.16257  3.16257  0.00000 -0.32515
       7     H     0.41594  0.41594  0.00000  0.16811
       8     H     0.41617  0.41617  0.00000  0.16766
       9     C     3.16131  3.16131  0.00000 -0.32261
      10     H     0.42192  0.42192  0.00000  0.15616
      11     H     0.40833  0.40833  0.00000  0.18333
      12     C     3.16484  3.16484  0.00000 -0.32969
      13     H     0.41782  0.41782  0.00000  0.16436
      14     H     0.42016  0.42016  0.00000  0.15968
      15     C     3.16372  3.16372  0.00000 -0.32744
      16     H     0.41718  0.41718  0.00000  0.16564
      17     H     0.41945  0.41945  0.00000  0.16111
      18     H     0.41683  0.41683  0.00000  0.16633
      19     H     0.42306  0.42306  0.00000  0.15389

   Total alpha = 28.00000, Total beta = 28.00000, Total charge =  0.00000
