                              Psi4 1.0.54 Driver

  ==> Input File <==

--------------------------------------------------------------------------
set {
	reference rhf
	basis cc-pvtz
}

set_num_threads( 4 )
memory 2 gb

molecule MOL {
0 1

H	 -2.123894	 -0.667238	 -0.609809
O	 -2.041679	 -0.058866	 0.103463
C	 -0.959304	 0.780994	 -0.094939
C	 0.354905	 0.037902	 -0.006215
H	 -0.985899	 1.279578	 -1.057596
H	 -0.969809	 1.529522	 0.682889
F	 0.975590	 0.308135	 1.128472
F	 0.149051	 -1.261914	 -0.047449
F	 1.173145	 0.346527	 -0.983561

	symmetry c1
}
set optking {
	frozen_dihedral = ("
		7 4 3 5
	")
}

ee,wfn = optimize('scf', return_wfn=True)
oeprop( wfn, 'DIPOLE', 'QUADRUPOLE', 'MULLIKEN_CHARGES')
f=open( 'psi4out.xyz', 'w' )
f.write( "9  " )
f.write( str(ee) + "\n" )
f.write( MOL.save_string_xyz() )
f.close()
--------------------------------------------------------------------------

    Molecular point group: c1
  Charge       = 0
  Multiplicity = 1
  Basis Set: CC-PVTZ
  Basis Set:
  @DF-RHF Final Energy:  -450.83990114869380
    Total Energy =                       -450.8399011486938548
    Molecular point group: c1
  Basis Set: CC-PVTZ
  Basis Set:
  Basis Set: CC-PVTZ
  Basis Set:
  @DF-RHF Final Energy:  -450.84065867379036
    Total Energy =                       -450.8406586737905855
  Basis Set: CC-PVTZ
  Basis Set:
  Basis Set: CC-PVTZ
  Basis Set:
  @DF-RHF Final Energy:  -450.84124816714660
    Total Energy =                       -450.8412481671466594
  Basis Set: CC-PVTZ
  Basis Set:
  Basis Set: CC-PVTZ
  Basis Set:
  @DF-RHF Final Energy:  -450.84128998887098
    Total Energy =                       -450.8412899888713241
  Basis Set: CC-PVTZ
  Basis Set:
  Basis Set: CC-PVTZ
  Basis Set:
  @DF-RHF Final Energy:  -450.84129395055794
    Total Energy =                       -450.8412939505578834
  Basis Set: CC-PVTZ
  Basis Set:
  Charge       = 0
  Multiplicity = 1
  Basis Set: CC-PVTZ
  Basis Set:

    Orbital Energies (a.u.)
    -----------------------

    Doubly Occupied:

       1A    -26.341878     2A    -26.336221     3A    -26.336084
       4A    -20.583327     5A    -11.495883     6A    -11.309802
       7A     -1.748362     8A     -1.646469     9A     -1.640731
      10A     -1.406787    11A     -1.045945    12A     -0.930527
      13A     -0.836984    14A     -0.835574    15A     -0.814932
      16A     -0.729013    17A     -0.719785    18A     -0.704455
      19A     -0.672199    20A     -0.665475    21A     -0.648501
      22A     -0.631532    23A     -0.618376    24A     -0.529187
      25A     -0.484272

  @DF-RHF Final Energy:  -450.84129432637849

   => Energetics <=

    Nuclear Repulsion Energy =            276.6750999247857408
    One-Electron Energy =               -1175.6081860611402590
    Two-Electron Energy =                 448.0917918099762574
    DFT Exchange-Correlation Energy =       0.0000000000000000
    Empirical Dispersion Energy =           0.0000000000000000
    PCM Polarization Energy =               0.0000000000000000
    EFP Energy =                            0.0000000000000000
    Total Energy =                       -450.8412943263782608
    Molecular point group: c1
  Basis Set: CC-PVTZ
  Basis Set:

  -Total Gradient:
     Atom            X                  Y                   Z
    ------   -----------------  -----------------  -----------------
       1       -0.000025651906    -0.000005244111    -0.000003667849
       2        0.000047255502    -0.000001964992    -0.000006609673
       3       -0.001742950109    -0.003468429233    -0.002737448477
       4       -0.001997310547    -0.003222062587     0.002503743303
       5        0.001897270111     0.003620371520     0.001856486819
       6        0.000002794276     0.000019495523    -0.000001387586
       7        0.001781401329     0.002926252540    -0.001585534361
       8       -0.000017904412     0.000084616484     0.000039235286
       9        0.000055095757     0.000046964861    -0.000064817460

  **** Optimization is complete! (in 6 steps) ****
    Final optimized geometry and variables:
    Molecular point group: c1

    Geometry (in Angstrom), charge = 0, multiplicity = 1:

    H           -2.137827991832    -0.697797583107    -0.557803166141
    O           -2.080069987155    -0.018253372124     0.090095161107
    C           -0.972110815072     0.778584409133    -0.126037898525
    C            0.357180996785     0.025012928471    -0.005846223091
    H           -0.979163379209     1.280520598511    -1.086084484122
    H           -0.975186347438     1.542213441370     0.636526557036
    F            0.968146805385     0.274813471352     1.132113813359
    F            0.202400605302    -1.275848989305    -0.106028154134
    F            1.186171639812     0.396101990657    -0.965196922298

  Mulliken Charges: (a.u.)
   Center  Symbol    Alpha    Beta     Spin     Total
       1     H     0.38682  0.38682  0.00000  0.22636
       2     O     4.18630  4.18630  0.00000 -0.37260
       3     C     3.00575  3.00575  0.00000 -0.01151
       4     C     2.67732  2.67732  0.00000  0.64535
       5     H     0.46162  0.46162  0.00000  0.07676
       6     H     0.44870  0.44870  0.00000  0.10260
       7     F     4.60939  4.60939  0.00000 -0.21878
       8     F     4.61077  4.61077  0.00000 -0.22154
       9     F     4.61332  4.61332  0.00000 -0.22664

   Total alpha = 25.00000, Total beta = 25.00000, Total charge =  0.00000

*** Psi4 exiting successfully. Buy a developer a beer!
