                              Psi4 1.0.54 Driver

  ==> Input File <==

--------------------------------------------------------------------------
set {
	reference rhf
	basis cc-pvtz
}

set_num_threads( 4 )
memory 2 gb

molecule MOL {
0 1

O	 -0.694481	 1.313155	 -0.204815
C	 -0.862519	 0.151932	 -0.046791
C	 -2.171428	 -0.477048	 0.339095
O	 0.085519	 -0.757083	 -0.192238
H	 -2.467997	 -1.191667	 -0.417688
H	 -2.923379	 0.287970	 0.444097
H	 -2.053854	 -1.015120	 1.270901
C	 1.240186	 -0.426126	 -0.954924
C	 2.279997	 0.287088	 -0.115865
H	 0.946538	 0.173281	 -1.802448
H	 1.615786	 -1.374715	 -1.308273
H	 3.168879	 0.462786	 -0.711239
H	 1.908752	 1.241951	 0.230250
H	 2.557822	 -0.314038	 0.741488

	symmetry c1
}
set optking {
	frozen_dihedral = ("
		8 4 2 1
	")
}

ee,wfn = optimize('scf', return_wfn=True)
oeprop( wfn, 'DIPOLE', 'QUADRUPOLE', 'MULLIKEN_CHARGES')
f=open( 'psi4out.xyz', 'w' )
f.write( "14  " )
f.write( str(ee) + "\n" )
f.write( MOL.save_string_xyz() )
f.close()
--------------------------------------------------------------------------

    Molecular point group: c1
  Charge       = 0
  Multiplicity = 1
  Basis Set: CC-PVTZ
  Basis Set:
  @DF-RHF Final Energy:  -305.98867320375621
    Total Energy =                       -305.9886732037560932
    Molecular point group: c1
  Basis Set: CC-PVTZ
  Basis Set:
  Basis Set: CC-PVTZ
  Basis Set:
  @DF-RHF Final Energy:  -305.97287644408397
    Total Energy =                       -305.9728764440840223
  Basis Set: CC-PVTZ
  Basis Set:
  Basis Set: CC-PVTZ
  Basis Set:
  @DF-RHF Final Energy:  -305.98737172960625
    Total Energy =                       -305.9873717296064228
  Basis Set: CC-PVTZ
  Basis Set:
  Basis Set: CC-PVTZ
  Basis Set:
  @DF-RHF Final Energy:  -305.98904482609743
    Total Energy =                       -305.9890448260970857
  Basis Set: CC-PVTZ
  Basis Set:
  @DF-RHF Final Energy:  -305.98900703998322
    Total Energy =                       -305.9890070399831075
  @DF-RHF Final Energy:  -305.98916675275211
    Total Energy =                       -305.9891667527520553
  Basis Set: CC-PVTZ
  Basis Set:
  @DF-RHF Final Energy:  -305.98917703831069
    Total Energy =                       -305.9891770383107428
  Basis Set: CC-PVTZ
  Basis Set:
  Basis Set: CC-PVTZ
  Basis Set:
  @DF-RHF Final Energy:  -305.98918400937453
    Total Energy =                       -305.9891840093744690
  Basis Set: CC-PVTZ
  Basis Set:
  Basis Set: CC-PVTZ
  Basis Set:
  @DF-RHF Final Energy:  -305.98918563802465
    Total Energy =                       -305.9891856380246509
  Basis Set: CC-PVTZ
  Basis Set:
  Charge       = 0
  Multiplicity = 1
  Basis Set: CC-PVTZ
  Basis Set:

    Orbital Energies (a.u.)
    -----------------------

    Doubly Occupied:

       1A    -20.592623     2A    -20.534141     3A    -11.368352
       4A    -11.284458     5A    -11.231844     6A    -11.215364
       7A     -1.469568     8A     -1.365967     9A     -1.055499
      10A     -0.999192    11A     -0.881715    12A     -0.770371
      13A     -0.700994    14A     -0.685068    15A     -0.657716
      16A     -0.612637    17A     -0.585865    18A     -0.571314
      19A     -0.562548    20A     -0.530286    21A     -0.514675
      22A     -0.496672    23A     -0.452865    24A     -0.442760

  @DF-RHF Final Energy:  -305.98918602914853

   => Energetics <=

    Nuclear Repulsion Energy =            248.4831334136520127
    One-Electron Energy =                -909.7796585758462697
    Two-Electron Energy =                 355.3073391330458435
    DFT Exchange-Correlation Energy =       0.0000000000000000
    Empirical Dispersion Energy =           0.0000000000000000
    PCM Polarization Energy =               0.0000000000000000
    EFP Energy =                            0.0000000000000000
    Total Energy =                       -305.9891860291484136
    Molecular point group: c1
  Basis Set: CC-PVTZ
  Basis Set:

  -Total Gradient:
     Atom            X                  Y                   Z
    ------   -----------------  -----------------  -----------------
       1        0.002820104519     0.001213100506     0.005445647604
       2       -0.005839100945    -0.002848376888    -0.010113912144
       3        0.000076427008     0.000068037210     0.000180443550
       4        0.005907588055     0.003451140116     0.007575079040
       5       -0.000002593445    -0.000017793573    -0.000013217820
       6       -0.000017222351     0.000012449143     0.000005603739
       7        0.000020315294     0.000005143200     0.000025605413
       8       -0.003079375487    -0.001841607003    -0.003043755215
       9        0.000071901224    -0.000088735704    -0.000048840386
      10        0.000018052711    -0.000003063318    -0.000022255126
      11        0.000024985057    -0.000002268489    -0.000030730067
      12        0.000001733264     0.000016571782     0.000025407761
      13       -0.000009042734     0.000030920928     0.000007537682
      14        0.000006227832     0.000004482088     0.000007385969

  **** Optimization is complete! (in 10 steps) ****
    Final optimized geometry and variables:
    Molecular point group: c1

    Geometry (in Angstrom), charge = 0, multiplicity = 1:

    O           -0.738144342592     1.302702816854     0.019003928024
    C           -0.815163353780     0.162325251165     0.325726291099
    C           -1.930415594988    -0.428660672405     1.140597892236
    O            0.107959364017    -0.741065234593     0.038087941300
    H           -2.464084065657    -1.157535821485     0.543336257955
    H           -2.602633297364     0.352144692666     1.457232237466
    H           -1.520819733320    -0.944580049394     1.998915790309
    C            1.025688858248    -0.468106220505    -1.015719456560
    C            2.303055366078     0.159422444042    -0.498319340232
    H            0.548916723328     0.170901772353    -1.743140319135
    H            1.224033602029    -1.429196740580    -1.466784368225
    H            3.002508645186     0.291636096725    -1.316282982817
    H            2.103698718238     1.126334173666    -0.057504585865
    H            2.766223301160    -0.476645047916     0.246268301738

  Mulliken Charges: (a.u.)
   Center  Symbol    Alpha    Beta     Spin     Total
       1     O     4.19695  4.19695  0.00000 -0.39390
       2     C     2.80378  2.80378  0.00000  0.39244
       3     C     3.13749  3.13749  0.00000 -0.27498
       4     O     4.15824  4.15824  0.00000 -0.31648
       5     H     0.44733  0.44733  0.00000  0.10534
       6     H     0.43848  0.43848  0.00000  0.12303
       7     H     0.44442  0.44442  0.00000  0.11117
       8     C     2.98406  2.98406  0.00000  0.03188
       9     C     3.14439  3.14439  0.00000 -0.28877
      10     H     0.45217  0.45217  0.00000  0.09565
      11     H     0.44504  0.44504  0.00000  0.10992
      12     H     0.45299  0.45299  0.00000  0.09402
      13     H     0.44185  0.44185  0.00000  0.11629
      14     H     0.45280  0.45280  0.00000  0.09440

   Total alpha = 24.00000, Total beta = 24.00000, Total charge = -0.00000

*** Psi4 exiting successfully. Buy a developer a beer!
