                              Psi4 1.0.54 Driver

  ==> Input File <==

--------------------------------------------------------------------------
set {
	reference rhf
	basis cc-pvtz
}

set_num_threads( 4 )
memory 2 gb

molecule MOL {
0 1

H	 1.128311	 0.207724	 1.465118
C	 1.134565	 0.093781	 0.372499
C	 0.062554	 0.862911	 -0.350953
O	 1.948932	 -0.587720	 -0.146651
C	 -1.057542	 -0.039960	 -0.877093
H	 0.524109	 1.429603	 -1.149277
H	 -0.353155	 1.568401	 0.364970
C	 -0.606129	 -0.981313	 -1.990076
H	 -1.862480	 0.588710	 -1.239615
H	 -1.471288	 -0.616682	 -0.054504
H	 -0.224012	 -0.424422	 -2.838260
H	 -1.431389	 -1.591876	 -2.336195
H	 0.180771	 -1.648884	 -1.656652

	symmetry c1
}
set optking {
	frozen_dihedral = ("
		6 3 2 4
	")
}

ee,wfn = optimize('scf', return_wfn=True)
oeprop( wfn, 'DIPOLE', 'QUADRUPOLE', 'MULLIKEN_CHARGES')
f=open( 'psi4out.xyz', 'w' )
f.write( "13  " )
f.write( str(ee) + "\n" )
f.write( MOL.save_string_xyz() )
f.close()
--------------------------------------------------------------------------

    Molecular point group: c1
  Charge       = 0
  Multiplicity = 1
  Basis Set: CC-PVTZ
  Basis Set:
  @DF-RHF Final Energy:  -231.06748811236105
    Total Energy =                       -231.0674881123608202
    Molecular point group: c1
  Basis Set: CC-PVTZ
  Basis Set:
  Basis Set: CC-PVTZ
  Basis Set:
  @DF-RHF Final Energy:  -231.06667222240898
    Total Energy =                       -231.0666722224090108
  Basis Set: CC-PVTZ
  Basis Set:
  Basis Set: CC-PVTZ
  Basis Set:
  @DF-RHF Final Energy:  -231.06778445190656
    Total Energy =                       -231.0677844519065047
  Basis Set: CC-PVTZ
  Basis Set:
  Basis Set: CC-PVTZ
  Basis Set:
  @DF-RHF Final Energy:  -231.06797932339927
    Total Energy =                       -231.0679793233992427
  Basis Set: CC-PVTZ
  Basis Set:
  Basis Set: CC-PVTZ
  Basis Set:
  @DF-RHF Final Energy:  -231.06798228149518
    Total Energy =                       -231.0679822814953184
  Basis Set: CC-PVTZ
  Basis Set:
  Basis Set: CC-PVTZ
  Basis Set:
  @DF-RHF Final Energy:  -231.06798364848109
    Total Energy =                       -231.0679836484810608
  Basis Set: CC-PVTZ
  Basis Set:
  Charge       = 0
  Multiplicity = 1
  Basis Set: CC-PVTZ
  Basis Set:

    Orbital Energies (a.u.)
    -----------------------

    Doubly Occupied:

       1A    -20.553254     2A    -11.322916     3A    -11.235018
       4A    -11.234160     5A    -11.209025     6A     -1.408474
       7A     -1.080641     8A     -0.971724     9A     -0.845035
      10A     -0.781861    11A     -0.681380    12A     -0.652508
      13A     -0.604221    14A     -0.594374    15A     -0.568453
      16A     -0.527637    17A     -0.502084    18A     -0.490367
      19A     -0.480749    20A     -0.410282

  @DF-RHF Final Energy:  -231.06798372375900

   => Energetics <=

    Nuclear Repulsion Energy =            175.8916083020669419
    One-Electron Energy =                -661.6108569751963842
    Two-Electron Energy =                 254.6512649493703577
    DFT Exchange-Correlation Energy =       0.0000000000000000
    Empirical Dispersion Energy =           0.0000000000000000
    PCM Polarization Energy =               0.0000000000000000
    EFP Energy =                            0.0000000000000000
    Total Energy =                       -231.0679837237590561
    Molecular point group: c1
  Basis Set: CC-PVTZ
  Basis Set:

  -Total Gradient:
     Atom            X                  Y                   Z
    ------   -----------------  -----------------  -----------------
       1        0.000001606629    -0.000001987240     0.000007038948
       2        0.001832519649     0.002535138878    -0.000058498131
       3       -0.000875672900    -0.002491101691    -0.001237099504
       4       -0.001236923498    -0.001527073885     0.000194446668
       5        0.000000648308    -0.000002847060    -0.000010108711
       6        0.000272380493     0.001482206421     0.001091333059
       7       -0.000008335554     0.000001466596     0.000003346712
       8        0.000009298967    -0.000006289977     0.000004966396
       9        0.000002767646     0.000007534397     0.000001694151
      10        0.000005124302     0.000001689227     0.000002210790
      11       -0.000002176114    -0.000001701440     0.000002126392
      12       -0.000001882046    -0.000001415932     0.000000963092
      13        0.000000644120     0.000004381705    -0.000002419862

  **** Optimization is complete! (in 7 steps) ****
    Final optimized geometry and variables:
    Molecular point group: c1

    Geometry (in Angstrom), charge = 0, multiplicity = 1:

    H            0.817998911658     0.386316454540     2.097968348019
    C            0.835149843074     0.256598938900     1.008863441542
    C           -0.219460508269     1.013937090317     0.237354195938
    O            1.631749552905    -0.466987542928     0.517669128324
    C           -1.347474357963     0.106921091826    -0.280579918575
    H            0.265306700337     1.526718316863    -0.586142571709
    H           -0.640995939490     1.771372234183     0.888972269358
    C           -0.940531022700    -0.821625126886    -1.419958981245
    H           -2.156773845317     0.747996353771    -0.611962221028
    H           -1.744443264162    -0.476949605876     0.545288609751
    H           -0.589751474426    -0.252731114469    -2.274141885115
    H           -1.788679157393    -1.415035988853    -1.741527303042
    H           -0.147730804248    -1.494451790726    -1.124714537905

  Mulliken Charges: (a.u.)
   Center  Symbol    Alpha    Beta     Spin     Total
       1     H     0.45445  0.45445  0.00000  0.09110
       2     C     2.91442  2.91442  0.00000  0.17116
       3     C     3.09122  3.09122  0.00000 -0.18244
       4     O     4.16818  4.16818  0.00000 -0.33637
       5     C     3.09181  3.09181  0.00000 -0.18362
       6     H     0.44391  0.44391  0.00000  0.11218
       7     H     0.44465  0.44465  0.00000  0.11069
       8     C     3.14315  3.14315  0.00000 -0.28629
       9     H     0.44617  0.44617  0.00000  0.10765
      10     H     0.45267  0.45267  0.00000  0.09466
      11     H     0.45642  0.45642  0.00000  0.08717
      12     H     0.45054  0.45054  0.00000  0.09893
      13     H     0.44241  0.44241  0.00000  0.11517

   Total alpha = 20.00000, Total beta = 20.00000, Total charge = -0.00000

*** Psi4 exiting successfully. Buy a developer a beer!
