  ==> Input File <==

--------------------------------------------------------------------------
set {
	reference rhf
	basis 6-31G*
}

set_num_threads( 4 )
memory 2 gb

molecule MOL {
0 1

O	 0.117257	 0.316256	 1.907059
C	 -0.231152	 -0.392070	 1.019218
C	 -1.592327	 -1.019888	 0.894266
O	 0.550821	 -0.724572	 0.000672
H	 -2.057882	 -0.703212	 -0.031832
H	 -2.203919	 -0.728324	 1.735003
H	 -1.495813	 -2.098856	 0.861171
C	 1.863949	 -0.193559	 -0.000319
H	 2.028859	 0.409284	 -0.881648
H	 2.526261	 -1.045082	 -0.000003
H	 2.029520	 0.410555	 0.880008

	symmetry c1
}
set optking {
	frozen_dihedral = ("
		2 4 8 9
	")
}

ee = optimize('scf')
oeprop('DIPOLE', 'QUADRUPOLE', 'MULLIKEN_CHARGES')
f=open( 'psi4out.xyz', 'w' )
f.write( "11  " )
f.write( str(ee) + "\n" )
f.write( MOL.save_string_xyz() )
f.close()
--------------------------------------------------------------------------

    Molecular point group: c1
  Charge       = 0
  Multiplicity = 1
  Basis Set: 6-31G*
  Basis Set:
  @DF-RHF Final Energy:  -266.83328666940190
    Total Energy =                       -266.8332866694016730
    Molecular point group: c1
  Basis Set: 6-31G*
  Basis Set:
  Basis Set: 6-31G*
  Basis Set:
  @DF-RHF Final Energy:  -266.83368095502806
    Total Energy =                       -266.8336809550278304
  Basis Set: 6-31G*
  Basis Set:
  Basis Set: 6-31G*
  Basis Set:
  @DF-RHF Final Energy:  -266.83406575546076
    Total Energy =                       -266.8340657554608697
  Basis Set: 6-31G*
  Basis Set:
  Basis Set: 6-31G*
  Basis Set:
  @DF-RHF Final Energy:  -266.83416488123669
    Total Energy =                       -266.8341648812368589
  Basis Set: 6-31G*
  Basis Set:
  Basis Set: 6-31G*
  Basis Set:
  @DF-RHF Final Energy:  -266.83428791753386
    Total Energy =                       -266.8342879175336293
  Basis Set: 6-31G*
  Basis Set:
  Charge       = 0
  Multiplicity = 1
  Basis Set: 6-31G*
  Basis Set:

    Orbital Energies (a.u.)
    -----------------------

    Doubly Occupied:

       1A    -20.604806     2A    -20.545705     3A    -11.377927
       4A    -11.280554     5A    -11.233976     6A     -1.468283
       7A     -1.365016     8A     -1.035966     9A     -0.953426
      10A     -0.777112    11A     -0.697003    12A     -0.678592
      13A     -0.676974    14A     -0.597446    15A     -0.591056
      16A     -0.560465    17A     -0.528970    18A     -0.518700
      19A     -0.453764    20A     -0.442645

  @DF-RHF Final Energy:  -266.83429746610250

   => Energetics <=

    Nuclear Repulsion Energy =            182.8259997923740059
    One-Electron Energy =                -726.5438233337050633
    Two-Electron Energy =                 276.8835260752285876
    DFT Exchange-Correlation Energy =       0.0000000000000000
    Empirical Dispersion Energy =           0.0000000000000000
    PCM Polarization Energy =               0.0000000000000000
    EFP Energy =                            0.0000000000000000
    Total Energy =                       -266.8342974661024982
    Molecular point group: c1
  Basis Set: 6-31G*
  Basis Set:

  -Total Gradient:
     Atom            X                  Y                   Z
    ------   -----------------  -----------------  -----------------
       1        0.000002540145     0.000025392568     0.000028449706
       2        0.000053712325    -0.000051448052    -0.000002291396
       3       -0.000016635811    -0.000003504471     0.000001887770
       4       -0.000037237877     0.000078936972    -0.000137485608
       5        0.000015237527     0.000006134081     0.000007964724
       6       -0.000009689389    -0.000006138534     0.000005986090
       7        0.000004252232     0.000001626061     0.000008106502
       8       -0.000077004956    -0.000044615815     0.000083201895
       9       -0.000002117425    -0.000059090045    -0.000003034694
      10        0.000049410574     0.000023219376    -0.000000515315
      11        0.000017532654     0.000029487861     0.000007730326

  **** Optimization is complete! (in 6 steps) ****
    Final optimized geometry and variables:
    Molecular point group: c1

    Geometry (in Angstrom), charge = 0, multiplicity = 1:

    O           -0.079805045199     0.718217794343     1.172466399683
    C           -0.396987005435     0.014361855498     0.269879527960
    C           -1.749358181532    -0.626287636068     0.113914551484
    O            0.399869765661    -0.312865520571    -0.740629164545
    H           -2.199198601446    -0.307744418764    -0.819236255760
    H           -2.380306618335    -0.346764001411     0.944274800279
    H           -1.640896427163    -1.703959538323     0.075153855210
    C            1.724663570740     0.192015123405    -0.775097716454
    H            1.835763306480     0.773807646659    -1.679312456658
    H            2.400100808489    -0.651368121331    -0.803989995415
    H            1.925768916471     0.802597948835     0.088725123336

  Mulliken Charges: (a.u.)
   Center  Symbol    Alpha    Beta     Spin     Total
       1     O     4.28168  4.28168  0.00000 -0.56336
       2     C     2.62203  2.62203  0.00000  0.75594
       3     C     3.28215  3.28215  0.00000 -0.56430
       4     O     4.30165  4.30165  0.00000 -0.60329
       5     H     0.40009  0.40009  0.00000  0.19982
       6     H     0.39683  0.39683  0.00000  0.20635
       7     H     0.40010  0.40010  0.00000  0.19980
       8     C     3.09886  3.09886  0.00000 -0.19772
       9     H     0.41197  0.41197  0.00000  0.17606
      10     H     0.41185  0.41185  0.00000  0.17629
      11     H     0.39279  0.39279  0.00000  0.21442

   Total alpha = 20.00000, Total beta = 20.00000, Total charge = -0.00000
