                              Psi4 1.0.54 Driver

  ==> Input File <==

--------------------------------------------------------------------------
set {
	reference rhf
	basis cc-pvtz
}

set_num_threads( 4 )
memory 2 gb

molecule MOL {
0 1

H	 1.609570	 -1.718741	 0.000362
O	 2.012307	 -0.863440	 0.000222
C	 1.050374	 0.054877	 0.000135
C	 -0.318151	 -0.570512	 0.000144
O	 1.286319	 1.213453	 -0.000040
C	 -1.454884	 0.441630	 -0.000560
H	 -0.371613	 -1.223646	 -0.864985
H	 -0.371920	 -1.222758	 0.865929
C	 -2.822577	 -0.232186	 0.000063
H	 -1.359760	 1.084704	 -0.867077
H	 -1.359641	 1.085996	 0.864983
H	 -2.954352	 -0.858985	 -0.875745
H	 -3.615886	 0.505352	 0.000019
H	 -2.953878	 -0.858359	 0.876394

	symmetry c1
}
set optking {
	frozen_dihedral = ("
		1 2 3 5
	")
}

ee,wfn = optimize('scf', return_wfn=True)
oeprop( wfn, 'DIPOLE', 'QUADRUPOLE', 'MULLIKEN_CHARGES')
f=open( 'psi4out.xyz', 'w' )
f.write( "14  " )
f.write( str(ee) + "\n" )
f.write( MOL.save_string_xyz() )
f.close()
--------------------------------------------------------------------------

    Molecular point group: c1
  Charge       = 0
  Multiplicity = 1
  Basis Set: CC-PVTZ
  Basis Set:
  @DF-RHF Final Energy:  -305.99030990886934
    Total Energy =                       -305.9903099088694489
    Molecular point group: c1
  Basis Set: CC-PVTZ
  Basis Set:
  Basis Set: CC-PVTZ
  Basis Set:
  @DF-RHF Final Energy:  -305.99151036511807
    Total Energy =                       -305.9915103651180743
  Basis Set: CC-PVTZ
  Basis Set:
  Basis Set: CC-PVTZ
  Basis Set:
  @DF-RHF Final Energy:  -305.99176142112788
    Total Energy =                       -305.9917614211278760
  Basis Set: CC-PVTZ
  Basis Set:
  Basis Set: CC-PVTZ
  Basis Set:
  @DF-RHF Final Energy:  -305.99176127257931
    Total Energy =                       -305.9917612725794243
  Basis Set: CC-PVTZ
  Basis Set:
  Basis Set: CC-PVTZ
  Basis Set:
  @DF-RHF Final Energy:  -305.99175970264088
    Total Energy =                       -305.9917597026408203
  Basis Set: CC-PVTZ
  Basis Set:
  Charge       = 0
  Multiplicity = 1
  Basis Set: CC-PVTZ
  Basis Set:

    Orbital Energies (a.u.)
    -----------------------

    Doubly Occupied:

       1A    -20.604971     2A    -20.536382     3A    -11.373088
       4A    -11.251166     5A    -11.229570     6A    -11.220747
       7A     -1.471975     8A     -1.373677     9A     -1.089246
      10A     -0.979496    11A     -0.854899    12A     -0.821170
      13A     -0.722289    14A     -0.674580    15A     -0.662965
      16A     -0.619572    17A     -0.597306    18A     -0.583787
      19A     -0.553783    20A     -0.511035    21A     -0.496845
      22A     -0.489655    23A     -0.481002    24A     -0.443699

  @DF-RHF Final Energy:  -305.99176429407930

   => Energetics <=

    Nuclear Repulsion Energy =            240.4371645423793780
    One-Electron Energy =                -893.5720463234133604
    Two-Electron Energy =                 347.1431174869546226
    DFT Exchange-Correlation Energy =       0.0000000000000000
    Empirical Dispersion Energy =           0.0000000000000000
    PCM Polarization Energy =               0.0000000000000000
    EFP Energy =                            0.0000000000000000
    Total Energy =                       -305.9917642940793598
    Molecular point group: c1
  Basis Set: CC-PVTZ
  Basis Set:

  -Total Gradient:
     Atom            X                  Y                   Z
    ------   -----------------  -----------------  -----------------
       1        0.000000996643    -0.000006885722    -0.000000376973
       2        0.000031490440    -0.000034342985     0.000024166053
       3       -0.000031454910     0.000039721857    -0.000078938749
       4        0.000015163669     0.000005163075     0.000023348322
       5        0.000004334828     0.000008750995     0.000027722683
       6        0.000011760819    -0.000008175718     0.000001427361
       7        0.000001810376     0.000002062776     0.000006674046
       8       -0.000008565834    -0.000003818634    -0.000004668265
       9       -0.000020637238     0.000003941224     0.000000420518
      10        0.000000913519    -0.000003075741     0.000003955999
      11       -0.000000007081    -0.000002261463    -0.000003576134
      12        0.000000766448     0.000000441522     0.000001157532
      13       -0.000007200490    -0.000002098521    -0.000000035979
      14        0.000000628809     0.000000577339    -0.000001276414

  **** Optimization is complete! (in 6 steps) ****
    Final optimized geometry and variables:
    Molecular point group: c1

    Geometry (in Angstrom), charge = 0, multiplicity = 1:

    H            1.772802982127    -1.706071142757    -0.005427829526
    O            2.074032252039    -0.814591256139    -0.013830632138
    C            1.061714765828     0.056345813107    -0.010349466781
    C           -0.316750570442    -0.565912926704     0.006594267189
    O            1.277187569627     1.212409195808    -0.019684863085
    C           -1.448844547047     0.451663686677     0.010424773451
    H           -0.393873812249    -1.220676331214    -0.858220329888
    H           -0.377676727649    -1.209194456530     0.881265532290
    C           -2.821008298028    -0.212622716457     0.027584155455
    H           -1.354425200097     1.087965037994    -0.860501584833
    H           -1.338300582029     1.099389396508     0.870969280246
    H           -2.966387455916    -0.843396247579    -0.843329888525
    H           -3.608111332905     0.531252878639     0.029998025904
    H           -2.950073080498    -0.831820083317     0.909308738388

  Mulliken Charges: (a.u.)
   Center  Symbol    Alpha    Beta     Spin     Total
       1     H     0.38822  0.38822  0.00000  0.22355
       2     O     4.14463  4.14463  0.00000 -0.28927
       3     C     2.80329  2.80329  0.00000  0.39341
       4     C     3.12484  3.12484  0.00000 -0.24967
       5     O     4.17631  4.17631  0.00000 -0.35263
       6     C     3.08342  3.08342  0.00000 -0.16684
       7     H     0.44359  0.44359  0.00000  0.11283
       8     H     0.44357  0.44357  0.00000  0.11286
       9     C     3.15047  3.15047  0.00000 -0.30094
      10     H     0.44307  0.44307  0.00000  0.11386
      11     H     0.44306  0.44306  0.00000  0.11387
      12     H     0.45591  0.45591  0.00000  0.08818
      13     H     0.44370  0.44370  0.00000  0.11259
      14     H     0.45591  0.45591  0.00000  0.08819

   Total alpha = 24.00000, Total beta = 24.00000, Total charge =  0.00000

*** Psi4 exiting successfully. Buy a developer a beer!
