  ==> Input File <==

--------------------------------------------------------------------------
set {
	reference rhf
	basis 6-31G*
}

set_num_threads( 4 )
memory 2 gb

molecule MOL {
0 1

H	 3.328362	 -0.444004	 -1.046337
C	 2.615669	 -0.663723	 -0.259750
C	 1.322923	 0.120767	 -0.479465
H	 2.435255	 -1.734139	 -0.265492
H	 3.078196	 -0.405607	 0.687899
C	 0.306652	 -0.176050	 0.621399
H	 0.887246	 -0.139307	 -1.438618
H	 1.525796	 1.185183	 -0.490578
N	 -1.068537	 -0.011044	 0.085269
H	 0.372515	 -1.192590	 0.973735
H	 0.391664	 0.520566	 1.441230
O	 -1.656956	 -0.997225	 -0.235017
O	 -1.478635	 1.104830	 -0.018026

	symmetry c1
}
set optking {
	frozen_dihedral = ("
		7 3 6 9
	")
}

ee = optimize('scf')
oeprop('DIPOLE', 'QUADRUPOLE', 'MULLIKEN_CHARGES')
f=open( 'psi4out.xyz', 'w' )
f.write( "13  " )
f.write( str(ee) + "\n" )
f.write( MOL.save_string_xyz() )
f.close()
--------------------------------------------------------------------------

    Molecular point group: c1
  Charge       = 0
  Multiplicity = 1
  Basis Set: 6-31G*
  Basis Set:
  @DF-RHF Final Energy:  -321.73282493465013
    Total Energy =                       -321.7328249346503526
    Molecular point group: c1
  Basis Set: 6-31G*
  Basis Set:
  Basis Set: 6-31G*
  Basis Set:
  @DF-RHF Final Energy:  -321.72389271442358
    Total Energy =                       -321.7238927144236982
  Basis Set: 6-31G*
  Basis Set:
  Basis Set: 6-31G*
  Basis Set:
  @DF-RHF Final Energy:  -321.73239987931424
    Total Energy =                       -321.7323998793143005
  Basis Set: 6-31G*
  Basis Set:
  Basis Set: 6-31G*
  Basis Set:
  @DF-RHF Final Energy:  -321.73307561836930
    Total Energy =                       -321.7330756183693552
  Basis Set: 6-31G*
  Basis Set:
  @DF-RHF Final Energy:  -321.73307152900713
    Total Energy =                       -321.7330715290070202
  Basis Set: 6-31G*
  Basis Set:
  @DF-RHF Final Energy:  -321.73309682256217
    Total Energy =                       -321.7330968225624019
  Basis Set: 6-31G*
  Basis Set:
  Basis Set: 6-31G*
  Basis Set:
  @DF-RHF Final Energy:  -321.73309814077879
    Total Energy =                       -321.7330981407788499
  Basis Set: 6-31G*
  Basis Set:
  Basis Set: 6-31G*
  Basis Set:
  @DF-RHF Final Energy:  -321.73309918173413
    Total Energy =                       -321.7330991817341896
  Basis Set: 6-31G*
  Basis Set:
  Charge       = 0
  Multiplicity = 1
  Basis Set: 6-31G*
  Basis Set:

    Orbital Energies (a.u.)
    -----------------------

    Doubly Occupied:

       1A    -20.602341     2A    -20.598747     3A    -15.846917
       4A    -11.299252     5A    -11.257223     6A    -11.239312
       7A     -1.630618     8A     -1.416046     9A     -1.134167
      10A     -1.028617    11A     -0.884463    12A     -0.833115
      13A     -0.759063    14A     -0.735595    15A     -0.723403
      16A     -0.664212    17A     -0.607024    18A     -0.593669
      19A     -0.546015    20A     -0.523254    21A     -0.512439
      22A     -0.482828    23A     -0.473503    24A     -0.448472

  @DF-RHF Final Energy:  -321.73309926148096

   => Energetics <=

    Nuclear Repulsion Energy =            247.5436298037921574
    One-Electron Energy =                -928.8728693253319761
    Two-Electron Energy =                 359.5961402600588599
    DFT Exchange-Correlation Energy =       0.0000000000000000
    Empirical Dispersion Energy =           0.0000000000000000
    PCM Polarization Energy =               0.0000000000000000
    EFP Energy =                            0.0000000000000000
    Total Energy =                       -321.7330992614810157
    Molecular point group: c1
  Basis Set: 6-31G*
  Basis Set:

  -Total Gradient:
     Atom            X                  Y                   Z
    ------   -----------------  -----------------  -----------------
       1       -0.000002837410     0.000000666349    -0.000001831605
       2        0.000000409277     0.000044972236    -0.000003150633
       3        0.001945188401    -0.006255867666     0.000111825378
       4       -0.000001410664    -0.000003487904     0.000001974415
       5       -0.000000155308     0.000000309133    -0.000000824005
       6       -0.000285365040     0.005338277692     0.001151457815
       7       -0.001546742322     0.004123786382    -0.000351621901
       8       -0.000038940667     0.000002813305     0.000007314346
       9       -0.000094016050    -0.003199624492    -0.000909797357
      10       -0.000035828906    -0.000017980910    -0.000069795534
      11        0.000019013537    -0.000043570331     0.000047137370
      12        0.000010619499     0.000019448040     0.000003542733
      13        0.000030065654    -0.000009741831     0.000013768978

  **** Optimization is complete! (in 9 steps) ****
    Final optimized geometry and variables:
    Molecular point group: c1

    Geometry (in Angstrom), charge = 0, multiplicity = 1:

    H            3.378654549052    -0.293646939453    -0.978676098818
    C            2.654334723151    -0.553904803085    -0.215329104639
    C            1.349253964518     0.205559556397    -0.437873350377
    H            2.497057220347    -1.626887792882    -0.254914305873
    H            3.091363488983    -0.313894291448     0.749517232448
    C            0.325096627984    -0.089129919155     0.665794961342
    H            0.916664261917    -0.037824238243    -1.402440689540
    H            1.535758209501     1.272909212625    -0.461583535893
    N           -1.049424560896     0.096917371235     0.138203484877
    H            0.369471018788    -1.114008811009     0.996548346234
    H            0.422883069796     0.582241272585     1.504832103227
    O           -1.697136715561    -0.879969762044    -0.077271120383
    O           -1.401127021907     1.219806115207    -0.062827545490

  Mulliken Charges: (a.u.)
   Center  Symbol    Alpha    Beta     Spin     Total
       1     H     0.40812  0.40812  0.00000  0.18377
       2     C     3.24828  3.24828  0.00000 -0.49655
       3     C     3.17099  3.17099  0.00000 -0.34197
       4     H     0.41260  0.41260  0.00000  0.17479
       5     H     0.41587  0.41587  0.00000  0.16826
       6     C     3.08543  3.08543  0.00000 -0.17085
       7     H     0.39940  0.39940  0.00000  0.20119
       8     H     0.40029  0.40029  0.00000  0.19943
       9     N     3.22429  3.22429  0.00000  0.55142
      10     H     0.38754  0.38754  0.00000  0.22492
      11     H     0.38717  0.38717  0.00000  0.22567
      12     O     4.22856  4.22856  0.00000 -0.45712
      13     O     4.23148  4.23148  0.00000 -0.46296

   Total alpha = 24.00000, Total beta = 24.00000, Total charge =  0.00000
