  ==> Input File <==

--------------------------------------------------------------------------
set {
	reference rhf
	basis 6-31G*
}

set_num_threads( 1 )
memory 2 gb

molecule MOL {
0 1

H	 2.591676	 2.013956	 0.335017
O	 3.341076	 1.666752	 -0.126416
C	 3.569581	 0.339145	 0.272707
C	 2.539767	 -0.640285	 -0.279495
H	 4.553106	 0.084646	 -0.100901
H	 3.608576	 0.269204	 1.359154
C	 1.161307	 -0.529671	 0.376615
H	 2.448446	 -0.477394	 -1.350239
H	 2.924928	 -1.649547	 -0.143819
C	 0.165977	 -1.561689	 -0.161042
H	 0.768831	 0.470661	 0.216417
H	 1.261933	 -0.658309	 1.454422
C	 -1.205840	 -1.550601	 0.523308
H	 0.035595	 -1.409702	 -1.230971
H	 0.599639	 -2.552944	 -0.046798
C	 -2.033278	 -0.283957	 0.287858
H	 -1.773372	 -2.406961	 0.165018
H	 -1.074741	 -1.702084	 1.593683
C	 -3.432818	 -0.363569	 0.901361
H	 -2.121136	 -0.106444	 -0.783068
H	 -1.518527	 0.581149	 0.698863
C	 -4.258594	 0.902034	 0.673307
H	 -3.960590	 -1.218460	 0.484100
H	 -3.347190	 -0.550590	 1.969806
H	 -4.389997	 1.098652	 -0.387023
H	 -5.245147	 0.813910	 1.117809
H	 -3.775034	 1.770509	 1.111809

	symmetry c1
}
set optking {
	frozen_dihedral = ("
		14 10 7 4,
		14 10 13 16,
		10 7 4 8,
		10 13 16 20,
		20 16 19 22,
		4 3 2 1
	")
}

ee = energy('scf')
oeprop('DIPOLE', 'QUADRUPOLE', 'MULLIKEN_CHARGES')
f=open( 'psi4out.xyz', 'w' )
f.write( "27  " )
f.write( str(ee) + "\n" )
f.write( MOL.save_string_xyz() )
f.close()
--------------------------------------------------------------------------

    Molecular point group: c1

    Geometry (in Angstrom), charge = 0, multiplicity = 1:

       Center              X                  Y                   Z               Mass
    ------------   -----------------  -----------------  -----------------  -----------------
           H          2.568357173490     2.192825821002     0.061246993845     1.007825032070
           O          3.317757173490     1.845621821002    -0.400186006155    15.994914619560
           C          3.546262173490     0.518014821002    -0.001063006155    12.000000000000
           C          2.516448173490    -0.461415178998    -0.553265006155    12.000000000000
           H          4.529787173490     0.263515821002    -0.374671006155     1.007825032070
           H          3.585257173490     0.448073821002     1.085383993845     1.007825032070
           C          1.137988173490    -0.350801178998     0.102844993845    12.000000000000
           H          2.425127173490    -0.298524178998    -1.624009006155     1.007825032070
           H          2.901609173490    -1.470677178998    -0.417589006155     1.007825032070
           C          0.142658173490    -1.382819178998    -0.434812006155    12.000000000000
           H          0.745512173490     0.649530821002    -0.057353006155     1.007825032070
           H          1.238614173490    -0.479439178998     1.180651993845     1.007825032070
           C         -1.229158826510    -1.371731178998     0.249537993845    12.000000000000
           H          0.012276173490    -1.230832178998    -1.504741006155     1.007825032070
           H          0.576320173490    -2.374074178998    -0.320568006155     1.007825032070
           C         -2.056596826510    -0.105087178998     0.014087993845    12.000000000000
           H         -1.796690826510    -2.228091178998    -0.108752006155     1.007825032070
           H         -1.098059826510    -1.523214178998     1.319912993845     1.007825032070
           C         -3.456136826510    -0.184699178998     0.627590993845    12.000000000000
           H         -2.144454826510     0.072425821002    -1.056838006155     1.007825032070
           H         -1.541845826510     0.760018821002     0.425092993845     1.007825032070
           C         -4.281912826510     1.080903821002     0.399536993845    12.000000000000
           H         -3.983908826510    -1.039590178998     0.210329993845     1.007825032070
           H         -3.370508826510    -0.371720178998     1.696035993845     1.007825032070
           H         -4.413315826510     1.277521821002    -0.660793006155     1.007825032070
           H         -5.268465826510     0.992779821002     0.844038993845     1.007825032070
           H         -3.798352826510     1.949378821002     0.838038993845     1.007825032070

  Charge       = 0
  Multiplicity = 1
  Basis Set: 6-31G*
  Basis Set:

    Orbital Energies (a.u.)
    -----------------------

    Doubly Occupied:

       1A    -20.552129     2A    -11.266871     3A    -11.220035
       4A    -11.217368     5A    -11.216327     6A    -11.215852
       7A    -11.214910     8A    -11.214592     9A    -11.209653
      10A     -1.358836    11A     -1.095484    12A     -1.061871
      13A     -1.011708    14A     -0.948307    15A     -0.887719
      16A     -0.820191    17A     -0.802299    18A     -0.778611
      19A     -0.693136    20A     -0.652612    21A     -0.638967
      22A     -0.613757    23A     -0.600093    24A     -0.582443
      25A     -0.580632    26A     -0.552212    27A     -0.540181
      28A     -0.532799    29A     -0.505360    30A     -0.496030
      31A     -0.485046    32A     -0.474420    33A     -0.468094
      34A     -0.461347    35A     -0.453175    36A     -0.441652
      37A     -0.422587

  @DF-RHF Final Energy:  -388.28141204975555

   => Energetics <=

    Nuclear Repulsion Energy =            459.0089414029846466
    One-Electron Energy =               -1436.0060926284047582
    Two-Electron Energy =                 588.7157391756662719
    DFT Exchange-Correlation Energy =       0.0000000000000000
    Empirical Dispersion Energy =           0.0000000000000000
    PCM Polarization Energy =               0.0000000000000000
    EFP Energy =                            0.0000000000000000
    Total Energy =                       -388.2814120497538397

  Mulliken Charges: (a.u.)
   Center  Symbol    Alpha    Beta     Spin     Total
       1     H     0.28057  0.28057  0.00000  0.43885
       2     O     4.37078  4.37078  0.00000 -0.74156
       3     C     2.99716  2.99716  0.00000  0.00567
       4     C     3.16266  3.16266  0.00000 -0.32532
       5     H     0.41444  0.41444  0.00000  0.17111
       6     H     0.43200  0.43200  0.00000  0.13600
       7     C     3.16124  3.16124  0.00000 -0.32248
       8     H     0.41366  0.41366  0.00000  0.17268
       9     H     0.42409  0.42409  0.00000  0.15183
      10     C     3.15227  3.15227  0.00000 -0.30454
      11     H     0.42521  0.42521  0.00000  0.14958
      12     H     0.42455  0.42455  0.00000  0.15089
      13     C     3.15353  3.15353  0.00000 -0.30706
      14     H     0.42175  0.42175  0.00000  0.15650
      15     H     0.42133  0.42133  0.00000  0.15735
      16     C     3.15238  3.15238  0.00000 -0.30476
      17     H     0.42120  0.42120  0.00000  0.15761
      18     H     0.42417  0.42417  0.00000  0.15165
      19     C     3.15123  3.15123  0.00000 -0.30246
      20     H     0.42370  0.42370  0.00000  0.15261
      21     H     0.42392  0.42392  0.00000  0.15216
      22     C     3.23918  3.23918  0.00000 -0.47836
      23     H     0.42279  0.42279  0.00000  0.15443
      24     H     0.42322  0.42322  0.00000  0.15355
      25     H     0.42147  0.42147  0.00000  0.15706
      26     H     0.41915  0.41915  0.00000  0.16171
      27     H     0.42234  0.42234  0.00000  0.15531

   Total alpha = 37.00000, Total beta = 37.00000, Total charge =  0.00000
