  ==> Input File <==

--------------------------------------------------------------------------
set {
	reference rhf
	basis cc-pvtz
}

set_num_threads( 4 )
memory 2 gb

molecule MOL {
0 1

H	 1.062481	 1.813650	 0.343441
O	 0.246446	 1.336764	 0.355004
C	 0.489979	 0.078084	 0.002623
C	 -0.763662	 -0.754014	 0.000816
O	 1.577075	 -0.303924	 -0.262337
C	 -2.038001	 0.074705	 -0.000833
H	 -0.712945	 -1.405886	 -0.864342
H	 -0.715137	 -1.405770	 0.866182
H	 -2.087267	 0.710831	 -0.874232
H	 -2.903419	 -0.576199	 -0.001922
H	 -2.089467	 0.710909	 0.872389

	symmetry c1
}
set optking {
	frozen_dihedral = ("
		2 3 4 7
	")
}

ee = optimize('scf')
oeprop('DIPOLE', 'QUADRUPOLE', 'MULLIKEN_CHARGES')
f=open( 'psi4out.xyz', 'w' )
f.write( "11  " )
f.write( str(ee) + "\n" )
f.write( MOL.save_string_xyz() )
f.close()
--------------------------------------------------------------------------

    Molecular point group: c1
  Charge       = 0
  Multiplicity = 1
  Basis Set: CC-PVTZ
  Basis Set:
  @DF-RHF Final Energy:  -266.94956877485924
    Total Energy =                       -266.9495687748592445
    Molecular point group: c1
  Basis Set: CC-PVTZ
  Basis Set:
  Basis Set: CC-PVTZ
  Basis Set:
  @DF-RHF Final Energy:  -266.95039807783553
    Total Energy =                       -266.9503980778355299
  Basis Set: CC-PVTZ
  Basis Set:
  Basis Set: CC-PVTZ
  Basis Set:
  @DF-RHF Final Energy:  -266.95061376226681
    Total Energy =                       -266.9506137622668120
  Basis Set: CC-PVTZ
  Basis Set:
  Basis Set: CC-PVTZ
  Basis Set:
  @DF-RHF Final Energy:  -266.95046763175850
    Total Energy =                       -266.9504676317583858
  Basis Set: CC-PVTZ
  Basis Set:
  Basis Set: CC-PVTZ
  Basis Set:
  @DF-RHF Final Energy:  -266.95063961370033
    Total Energy =                       -266.9506396137003321
  Basis Set: CC-PVTZ
  Basis Set:
  Charge       = 0
  Multiplicity = 1
  Basis Set: CC-PVTZ
  Basis Set:

    Orbital Energies (a.u.)
    -----------------------

    Doubly Occupied:

       1A    -20.607790     2A    -20.537401     3A    -11.374919
       4A    -11.243220     5A    -11.223421     6A     -1.479843
       7A     -1.368877     8A     -1.067500     9A     -0.910841
      10A     -0.826621    11A     -0.705992    12A     -0.678187
      13A     -0.663061    14A     -0.599746    15A     -0.589638
      16A     -0.556198    17A     -0.524880    18A     -0.517793
      19A     -0.475393    20A     -0.443326

  @DF-RHF Final Energy:  -266.95064053921976

   => Energetics <=

    Nuclear Repulsion Energy =            180.4141325037768695
    One-Electron Energy =                -721.9402502932385914
    Two-Electron Energy =                 274.5754772502421019
    DFT Exchange-Correlation Energy =       0.0000000000000000
    Empirical Dispersion Energy =           0.0000000000000000
    PCM Polarization Energy =               0.0000000000000000
    EFP Energy =                            0.0000000000000000
    Total Energy =                       -266.9506405392196484
    Molecular point group: c1
  Basis Set: CC-PVTZ
  Basis Set:

  -Total Gradient:
     Atom            X                  Y                   Z
    ------   -----------------  -----------------  -----------------
       1       -0.000000762397    -0.000010364960     0.000001177849
       2       -0.000097990369     0.000180862928    -0.000465975519
       3        0.000131088149    -0.000218498579     0.000546661723
       4        0.000295162523    -0.000405608886     0.000222799475
       5       -0.000044598487     0.000050438079     0.000017747572
       6       -0.000008468721    -0.000005479684    -0.000012166790
       7       -0.000267076561     0.000414543104    -0.000321221045
       8       -0.000002444867    -0.000000760113     0.000003785748
       9        0.000001493887    -0.000002418341     0.000008145860
      10       -0.000012717758    -0.000000845293     0.000002450422
      11        0.000006314606    -0.000001868255    -0.000003405294

  **** Optimization is complete! (in 6 steps) ****
    Final optimized geometry and variables:
    Molecular point group: c1

    Geometry (in Angstrom), charge = 0, multiplicity = 1:

    H            1.239035255780     1.669102776437     0.310804403857
    O            0.395305155635     1.242097380164     0.315371840934
    C            0.573317126641    -0.029911900518    -0.019671605470
    C           -0.694383165921    -0.848713781678    -0.027255656196
    O            1.642802412190    -0.468614658426    -0.271551925498
    C           -2.004517779583    -0.071290206417    -0.026477708743
    H           -0.624828545414    -1.497507065731    -0.890081407531
    H           -0.632819490844    -1.493853163448     0.843021167382
    H           -2.079313793611     0.576582954411    -0.890631656290
    H           -2.837853257819    -0.762398227877    -0.052589265778
    H           -2.101503903659     0.542826379277     0.858043308248

  Mulliken Charges: (a.u.)
   Center  Symbol    Alpha    Beta     Spin     Total
       1     H     0.38298  0.38298  0.00000  0.23404
       2     O     4.15337  4.15337  0.00000 -0.30673
       3     C     2.80630  2.80630  0.00000  0.38739
       4     C     3.09609  3.09609  0.00000 -0.19217
       5     O     4.19733  4.19733  0.00000 -0.39465
       6     C     3.14219  3.14219  0.00000 -0.28437
       7     H     0.43502  0.43502  0.00000  0.12997
       8     H     0.44072  0.44072  0.00000  0.11856
       9     H     0.44948  0.44948  0.00000  0.10103
      10     H     0.44909  0.44909  0.00000  0.10182
      11     H     0.44744  0.44744  0.00000  0.10512

   Total alpha = 20.00000, Total beta = 20.00000, Total charge =  0.00000
