  ==> Input File <==

--------------------------------------------------------------------------
set {
	reference rhf
	basis 6-31G*
}

set_num_threads( 1 )
memory 2 gb

molecule MOL {
0 1

H	 1.136379	 0.211822	 1.465562
C	 1.135357	 0.094285	 0.374742
C	 0.065331	 0.871482	 -0.349150
O	 1.941633	 -0.601957	 -0.151457
C	 -1.314102	 0.720702	 0.308050
H	 0.048964	 0.548672	 -1.383770
H	 0.359545	 1.919914	 -0.329401
C	 -1.879877	 -0.696417	 0.207570
H	 -1.998554	 1.418019	 -0.164481
H	 -1.251244	 1.018379	 1.352597
H	 -1.983585	 -1.000545	 -0.829386
H	 -2.858754	 -0.755088	 0.671978
H	 -1.238193	 -1.422043	 0.698588

	symmetry c1
}
set optking {
	frozen_dihedral = ("
		6 3 5 9
	")
}

ee = energy('scf')
oeprop('DIPOLE', 'QUADRUPOLE', 'MULLIKEN_CHARGES')
f=open( 'psi4out.xyz', 'w' )
f.write( "13  " )
f.write( str(ee) + "\n" )
f.write( MOL.save_string_xyz() )
f.close()
--------------------------------------------------------------------------

    Molecular point group: c1

    Geometry (in Angstrom), charge = 0, multiplicity = 1:

       Center              X                  Y                   Z               Mass
    ------------   -----------------  -----------------  -----------------  -----------------
           H          1.146226706752     0.153442565988     1.388328092137     1.007825032070
           C          1.145204706752     0.035905565988     0.297508092137    12.000000000000
           C          0.075178706752     0.813102565988    -0.426383907863    12.000000000000
           O          1.951480706752    -0.660336434012    -0.228690907863    15.994914619560
           C         -1.304254293248     0.662322565988     0.230816092137    12.000000000000
           H          0.058811706752     0.490292565988    -1.461003907863     1.007825032070
           H          0.369392706752     1.861534565988    -0.406634907863     1.007825032070
           C         -1.870029293248    -0.754796434012     0.130336092137    12.000000000000
           H         -1.988706293248     1.359639565988    -0.241714907863     1.007825032070
           H         -1.241396293248     0.959999565988     1.275363092137     1.007825032070
           H         -1.973737293248    -1.058924434012    -0.906619907863     1.007825032070
           H         -2.848906293248    -0.813467434012     0.594744092137     1.007825032070
           H         -1.228345293248    -1.480422434012     0.621354092137     1.007825032070

  Charge       = 0
  Multiplicity = 1
  Basis Set: 6-31G*
  Basis Set:

    Orbital Energies (a.u.)
    -----------------------

    Doubly Occupied:

       1A    -20.562990     2A    -11.327224     3A    -11.238602
       4A    -11.236036     5A    -11.222266     6A     -1.402931
       7A     -1.087290     8A     -0.973107     9A     -0.847906
      10A     -0.790000    11A     -0.663187    12A     -0.649110
      13A     -0.630275    14A     -0.594221    15A     -0.560552
      16A     -0.531916    17A     -0.507717    18A     -0.493529
      19A     -0.481709    20A     -0.410719

  @DF-RHF Final Energy:  -230.98463603149557

   => Energetics <=

    Nuclear Repulsion Energy =            173.5741439327850628
    One-Electron Energy =                -656.6949427820615028
    Two-Electron Energy =                 252.1361628177806438
    DFT Exchange-Correlation Energy =       0.0000000000000000
    Empirical Dispersion Energy =           0.0000000000000000
    PCM Polarization Energy =               0.0000000000000000
    EFP Energy =                            0.0000000000000000
    Total Energy =                       -230.9846360314957678

  Mulliken Charges: (a.u.)
   Center  Symbol    Alpha    Beta     Spin     Total
       1     H     0.43230  0.43230  0.00000  0.13539
       2     C     2.83140  2.83140  0.00000  0.33721
       3     C     3.20802  3.20802  0.00000 -0.41603
       4     O     4.23750  4.23750  0.00000 -0.47500
       5     C     3.16611  3.16611  0.00000 -0.33223
       6     H     0.39955  0.39955  0.00000  0.20090
       7     H     0.40518  0.40518  0.00000  0.18964
       8     C     3.24244  3.24244  0.00000 -0.48488
       9     H     0.41163  0.41163  0.00000  0.17674
      10     H     0.41862  0.41862  0.00000  0.16275
      11     H     0.41556  0.41556  0.00000  0.16888
      12     H     0.41489  0.41489  0.00000  0.17022
      13     H     0.41680  0.41680  0.00000  0.16641

   Total alpha = 20.00000, Total beta = 20.00000, Total charge =  0.00000
