  ==> Input File <==

--------------------------------------------------------------------------
set {
	reference rhf
	basis 6-31G*
}

set_num_threads( 4 )
memory 2 gb

molecule MOL {
0 1

H	 -3.892951	 0.981613	 -0.358725
C	 -3.196921	 0.361773	 0.172313
C	 -2.076860	 -0.007332	 -0.404944
H	 -3.439953	 0.057760	 1.173024
O	 -1.180634	 -0.819263	 0.215062
H	 -1.811520	 0.292194	 -1.403480
C	 0.051604	 -1.018856	 -0.387932
C	 1.043764	 0.054862	 -0.001873
H	 -0.017620	 -1.041351	 -1.469781
H	 0.437898	 -1.966374	 -0.042284
F	 2.265112	 -0.330843	 -0.341500
F	 0.796589	 1.197148	 -0.621485
F	 1.038220	 0.291173	 1.293702

	symmetry c1
}
set optking {
	frozen_dihedral = ("
		11 8 7 9
	")
}

ee = optimize('scf')
oeprop('DIPOLE', 'QUADRUPOLE', 'MULLIKEN_CHARGES')
f=open( 'psi4out.xyz', 'w' )
f.write( "13  " )
f.write( str(ee) + "\n" )
f.write( MOL.save_string_xyz() )
f.close()
--------------------------------------------------------------------------

    Molecular point group: c1
  Charge       = 0
  Multiplicity = 1
  Basis Set: 6-31G*
  Basis Set:
  @DF-RHF Final Energy:  -527.53515911551460
    Total Energy =                       -527.5351591155144888
    Molecular point group: c1
  Basis Set: 6-31G*
  Basis Set:
  Basis Set: 6-31G*
  Basis Set:
  @DF-RHF Final Energy:  -527.53522012280689
    Total Energy =                       -527.5352201228070044
  Basis Set: 6-31G*
  Basis Set:
  Basis Set: 6-31G*
  Basis Set:
  @DF-RHF Final Energy:  -527.53524432699055
    Total Energy =                       -527.5352443269902096
  Basis Set: 6-31G*
  Basis Set:
  Basis Set: 6-31G*
  Basis Set:
  @DF-RHF Final Energy:  -527.53525194559131
    Total Energy =                       -527.5352519455910851
  Basis Set: 6-31G*
  Basis Set:
  Basis Set: 6-31G*
  Basis Set:
  @DF-RHF Final Energy:  -527.53525660412015
    Total Energy =                       -527.5352566041203772
  Basis Set: 6-31G*
  Basis Set:
  Basis Set: 6-31G*
  Basis Set:
  @DF-RHF Final Energy:  -527.53525945300066
    Total Energy =                       -527.5352594530004353
  Basis Set: 6-31G*
  Basis Set:
  Basis Set: 6-31G*
  Basis Set:
  @DF-RHF Final Energy:  -527.53526173967816
    Total Energy =                       -527.5352617396781625
  Basis Set: 6-31G*
  Basis Set:
  Charge       = 0
  Multiplicity = 1
  Basis Set: 6-31G*
  Basis Set:

    Orbital Energies (a.u.)
    -----------------------

    Doubly Occupied:

       1A    -26.344140     2A    -26.344015     3A    -26.339494
       4A    -20.607630     5A    -11.503026     6A    -11.318811
       7A    -11.299081     8A    -11.216458     9A     -1.741440
      10A     -1.639871    11A     -1.637456    12A     -1.437614
      13A     -1.083234    14A     -1.016478    15A     -0.925051
      16A     -0.835775    17A     -0.830644    18A     -0.821013
      19A     -0.792520    20A     -0.719866    21A     -0.711216
      22A     -0.695235    23A     -0.676055    24A     -0.660379
      25A     -0.654790    26A     -0.642670    27A     -0.634784
      28A     -0.584521    29A     -0.563500    30A     -0.523049
      31A     -0.512600    32A     -0.352344

  @DF-RHF Final Energy:  -527.53526213166606

   => Energetics <=

    Nuclear Repulsion Energy =            414.1132392733893539
    One-Electron Energy =               -1551.9674863009645378
    Two-Electron Energy =                 610.3189848959091250
    DFT Exchange-Correlation Energy =       0.0000000000000000
    Empirical Dispersion Energy =           0.0000000000000000
    PCM Polarization Energy =               0.0000000000000000
    EFP Energy =                            0.0000000000000000
    Total Energy =                       -527.5352621316660588
    Molecular point group: c1
  Basis Set: 6-31G*
  Basis Set:

  -Total Gradient:
     Atom            X                  Y                   Z
    ------   -----------------  -----------------  -----------------
       1       -0.000000384963     0.000002385571     0.000000311385
       2        0.000014935978    -0.000013370777     0.000006179298
       3       -0.000035930669     0.000042983999    -0.000035867060
       4       -0.000003519302     0.000002030682    -0.000001808118
       5        0.000081782725    -0.000037412243    -0.000000919649
       6        0.000005666357    -0.000004495340     0.000008779352
       7        0.002780212399    -0.002619203623     0.000576772207
       8       -0.000842939130     0.001749254540    -0.002834687672
       9       -0.002257890781     0.001924662708     0.000105325253
      10        0.000011363472    -0.000017163582    -0.000017657074
      11        0.000294221187    -0.001080098169     0.002219929061
      12       -0.000041067197     0.000052815581    -0.000024607384
      13       -0.000006450072    -0.000002389345    -0.000001749600

  **** Optimization is complete! (in 8 steps) ****
    Final optimized geometry and variables:
    Molecular point group: c1

    Geometry (in Angstrom), charge = 0, multiplicity = 1:

    H           -3.832798209004     1.022451703600    -0.349205627576
    C           -3.142112237534     0.390732306528     0.174863018006
    C           -2.056702842594    -0.035181283509    -0.428767404585
    H           -3.363315234513     0.119111999867     1.189917130444
    O           -1.175454335891    -0.873319685076     0.178028422601
    H           -1.812655787180     0.231086866768    -1.442439258749
    C            0.074363007987    -1.037107686319    -0.401689362386
    C            1.030816781697     0.064695663805     0.004290749592
    H            0.010838085553    -1.043738981490    -1.484333538545
    H            0.476171216799    -1.976617228532    -0.054481796392
    F            2.265849993092    -0.273424509594    -0.335910308245
    F            0.745536731873     1.210702784508    -0.592842333831
    F            1.015970590176     0.275013332440     1.303804134470

  Mulliken Charges: (a.u.)
   Center  Symbol    Alpha    Beta     Spin     Total
       1     H     0.40696  0.40696  0.00000  0.18607
       2     C     3.23371  3.23371  0.00000 -0.46741
       3     C     2.89829  2.89829  0.00000  0.20342
       4     H     0.40147  0.40147  0.00000  0.19706
       5     O     4.30074  4.30074  0.00000 -0.60148
       6     H     0.40693  0.40693  0.00000  0.18615
       7     C     3.06428  3.06428  0.00000 -0.12856
       8     C     2.45602  2.45602  0.00000  1.08796
       9     H     0.40560  0.40560  0.00000  0.18879
      10     H     0.38919  0.38919  0.00000  0.22162
      11     F     4.68279  4.68279  0.00000 -0.36559
      12     F     4.68005  4.68005  0.00000 -0.36010
      13     F     4.67397  4.67397  0.00000 -0.34793

   Total alpha = 32.00000, Total beta = 32.00000, Total charge = -0.00000
