  ==> Input File <==

--------------------------------------------------------------------------
set {
	reference rhf
	basis 6-31G*
}

set_num_threads( 4 )
memory 2 gb

molecule MOL {
0 1

O	 -0.988096	 -1.408613	 0.050699
C	 -0.676749	 -0.249230	 -0.009274
C	 -1.746085	 0.827156	 -0.009539
N	 0.623947	 0.147590	 -0.102813
H	 -1.701500	 1.431508	 -0.908902
H	 -2.703425	 0.330732	 0.036390
H	 -1.647323	 1.487769	 0.845106
C	 1.662229	 -0.768482	 0.326907
C	 1.041370	 1.522411	 -0.269756
H	 2.512360	 -0.690207	 -0.341798
H	 1.283016	 -1.775315	 0.306258
H	 1.997984	 -0.539807	 1.336064
H	 1.963255	 1.546199	 -0.838615
H	 0.308052	 2.096820	 -0.813110
H	 1.224322	 2.010376	 0.685876

	symmetry c1
}
set optking {
	frozen_dihedral = ("
		8 4 2 3
	")
}

ee = optimize('scf')
oeprop('DIPOLE', 'QUADRUPOLE', 'MULLIKEN_CHARGES')
f=open( 'psi4out.xyz', 'w' )
f.write( "15  " )
f.write( str(ee) + "\n" )
f.write( MOL.save_string_xyz() )
f.close()
--------------------------------------------------------------------------

    Molecular point group: c1
  Charge       = 0
  Multiplicity = 1
  Basis Set: 6-31G*
  Basis Set:
  @DF-RHF Final Energy:  -286.02746254327928
    Total Energy =                       -286.0274625432791709
    Molecular point group: c1
  Basis Set: 6-31G*
  Basis Set:
  Basis Set: 6-31G*
  Basis Set:
  @DF-RHF Final Energy:  -286.02640286954085
    Total Energy =                       -286.0264028695408456
  Basis Set: 6-31G*
  Basis Set:
  Basis Set: 6-31G*
  Basis Set:
  @DF-RHF Final Energy:  -286.02842217696764
    Total Energy =                       -286.0284221769676378
  Basis Set: 6-31G*
  Basis Set:
  Basis Set: 6-31G*
  Basis Set:
  @DF-RHF Final Energy:  -286.02850017251797
    Total Energy =                       -286.0285001725177381
  Basis Set: 6-31G*
  Basis Set:
  @DF-RHF Final Energy:  -286.02852498557831
    Total Energy =                       -286.0285249855780307
  Basis Set: 6-31G*
  Basis Set:
  @DF-RHF Final Energy:  -286.02853594528267
    Total Energy =                       -286.0285359452826697
  Basis Set: 6-31G*
  Basis Set:
  Basis Set: 6-31G*
  Basis Set:
  @DF-RHF Final Energy:  -286.02854069574187
    Total Energy =                       -286.0285406957419809
  Basis Set: 6-31G*
  Basis Set:
  Basis Set: 6-31G*
  Basis Set:
  @DF-RHF Final Energy:  -286.02854191240095
    Total Energy =                       -286.0285419124011810
  Basis Set: 6-31G*
  Basis Set:
  Charge       = 0
  Multiplicity = 1
  Basis Set: 6-31G*
  Basis Set:

    Orbital Energies (a.u.)
    -----------------------

    Doubly Occupied:

       1A    -20.516559     2A    -15.583015     3A    -11.342319
       4A    -11.265520     5A    -11.248499     6A    -11.229056
       7A     -1.385920     8A     -1.243727     9A     -1.014402
      10A     -0.971335    11A     -0.918696    12A     -0.737477
      13A     -0.681592    14A     -0.659638    15A     -0.650935
      16A     -0.588544    17A     -0.575475    18A     -0.569132
      19A     -0.562369    20A     -0.547586    21A     -0.528987
      22A     -0.504194    23A     -0.411709    24A     -0.367791

  @DF-RHF Final Energy:  -286.02854230342410

   => Energetics <=

    Nuclear Repulsion Energy =            252.5863477221705011
    One-Electron Energy =                -889.0208224972304833
    Two-Electron Energy =                 350.4059324716360493
    DFT Exchange-Correlation Energy =       0.0000000000000000
    Empirical Dispersion Energy =           0.0000000000000000
    PCM Polarization Energy =               0.0000000000000000
    EFP Energy =                            0.0000000000000000
    Total Energy =                       -286.0285423034238761
    Molecular point group: c1
  Basis Set: 6-31G*
  Basis Set:

  -Total Gradient:
     Atom            X                  Y                   Z
    ------   -----------------  -----------------  -----------------
       1        0.000020071150     0.000019932062     0.000005241281
       2       -0.000488262808     0.000207065400    -0.003930401610
       3        0.000335656787     0.000411224591     0.003688684365
       4        0.000335179022    -0.002337271223    -0.003335158918
       5       -0.000012226422     0.000004846894     0.000017271660
       6       -0.000006014009     0.000002440062     0.000007656156
       7        0.000017307678     0.000004947280     0.000007933395
       8       -0.000120225900     0.001675149034     0.003547600015
       9       -0.000064017035     0.000006859000     0.000004901755
      10       -0.000001739479    -0.000011456592    -0.000003106050
      11       -0.000008948600    -0.000006734671     0.000006723042
      12        0.000011349818     0.000003524982    -0.000006523894
      13       -0.000012950153    -0.000005655661     0.000009093455
      14       -0.000008122841     0.000017989503    -0.000007265558
      15        0.000002942792     0.000007139339    -0.000012649093

  **** Optimization is complete! (in 9 steps) ****
    Final optimized geometry and variables:
    Molecular point group: c1

    Geometry (in Angstrom), charge = 0, multiplicity = 1:

    O           -0.980000453791    -1.411997810074     0.166502647188
    C           -0.671614110594    -0.266394940633    -0.019026708663
    C           -1.734980896779     0.815165182913    -0.045730712128
    N            0.631672075168     0.116750867429    -0.177950945628
    H           -1.773928457502     1.321941699752    -1.003907708723
    H           -2.686235000128     0.339292286488     0.138031194870
    H           -1.551557513652     1.561299438637     0.719784762978
    C            1.667821696122    -0.793158114449     0.275001235532
    C            1.033965557303     1.506091505524    -0.241841969979
    H            2.536776122508    -0.703786204231    -0.366894583855
    H            1.300630230934    -1.803907257765     0.234217518857
    H            1.969637155908    -0.565491243297     1.295522168614
    H            1.992912085732     1.566699397675    -0.740993474265
    H            0.332914889404     2.093708090602    -0.814500964114
    H            1.140692287645     1.954607241421     0.744969837058

  Mulliken Charges: (a.u.)
   Center  Symbol    Alpha    Beta     Spin     Total
       1     O     4.30182  4.30182  0.00000 -0.60364
       2     C     2.62489  2.62489  0.00000  0.75023
       3     C     3.29852  3.29852  0.00000 -0.59704
       4     N     3.82056  3.82056  0.00000 -0.64113
       5     H     0.40602  0.40602  0.00000  0.18797
       6     H     0.39052  0.39052  0.00000  0.21896
       7     H     0.40777  0.40777  0.00000  0.18446
       8     C     3.14829  3.14829  0.00000 -0.29659
       9     C     3.14353  3.14353  0.00000 -0.28707
      10     H     0.41722  0.41722  0.00000  0.16556
      11     H     0.38419  0.38419  0.00000  0.23162
      12     H     0.42118  0.42118  0.00000  0.15765
      13     H     0.40869  0.40869  0.00000  0.18262
      14     H     0.40789  0.40789  0.00000  0.18422
      15     H     0.41891  0.41891  0.00000  0.16219

   Total alpha = 24.00000, Total beta = 24.00000, Total charge =  0.00000
