                              Psi4 1.0.54 Driver

  ==> Input File <==

--------------------------------------------------------------------------
set {
	reference rhf
	basis cc-pvtz
}

set_num_threads( 4 )
memory 2 gb

molecule MOL {
0 1

O	 0.342629	 0.952774	 -1.379201
C	 0.336113	 -0.037488	 -0.730211
C	 1.479668	 -1.014684	 -0.624250
O	 -0.695554	 -0.422406	 0.000602
C	 2.693673	 -0.616306	 -1.447937
H	 1.100789	 -1.985700	 -0.923465
H	 1.728308	 -1.104945	 0.427399
H	 2.444936	 -0.543572	 -2.498202
H	 3.479342	 -1.353030	 -1.332561
H	 3.078173	 0.345204	 -1.135071
C	 -1.852370	 0.402254	 0.000718
C	 -3.063338	 -0.501097	 -0.000437
H	 -1.831732	 1.039442	 -0.872158
H	 -1.832493	 1.038301	 0.874430
H	 -3.071944	 -1.133732	 -0.879113
H	 -3.966302	 0.097976	 -0.000483
H	 -3.072764	 -1.134834	 0.877435

	symmetry c1
}
set optking {
	frozen_dihedral = ("
		2 4 11 13
	")
}

ee,wfn = optimize('scf', return_wfn=True)
oeprop( wfn, 'DIPOLE', 'QUADRUPOLE', 'MULLIKEN_CHARGES')
f=open( 'psi4out.xyz', 'w' )
f.write( "17  " )
f.write( str(ee) + "\n" )
f.write( MOL.save_string_xyz() )
f.close()
--------------------------------------------------------------------------

    Molecular point group: c1
  Charge       = 0
  Multiplicity = 1
  Basis Set: CC-PVTZ
  Basis Set:
  @DF-RHF Final Energy:  -345.03856541828253
    Total Energy =                       -345.0385654182829285
    Molecular point group: c1
  Basis Set: CC-PVTZ
  Basis Set:
  Basis Set: CC-PVTZ
  Basis Set:
  @DF-RHF Final Energy:  -345.03875349959571
    Total Energy =                       -345.0387534995959413
  Basis Set: CC-PVTZ
  Basis Set:
  Basis Set: CC-PVTZ
  Basis Set:
  @DF-RHF Final Energy:  -345.03899561034319
    Total Energy =                       -345.0389956103429085
  Basis Set: CC-PVTZ
  Basis Set:
  Basis Set: CC-PVTZ
  Basis Set:
  @DF-RHF Final Energy:  -345.03860400638774
    Total Energy =                       -345.0386040063879136
  Basis Set: CC-PVTZ
  Basis Set:
  Basis Set: CC-PVTZ
  Basis Set:
  @DF-RHF Final Energy:  -345.03904970255809
    Total Energy =                       -345.0390497025582590
  Basis Set: CC-PVTZ
  Basis Set:
  Charge       = 0
  Multiplicity = 1
  Basis Set: CC-PVTZ
  Basis Set:

    Orbital Energies (a.u.)
    -----------------------

    Doubly Occupied:

       1A    -20.592639     2A    -20.532425     3A    -11.364547
       4A    -11.281562     5A    -11.235414     6A    -11.220440
       7A    -11.213441     8A     -1.468498     9A     -1.365335
      10A     -1.070576    11A     -1.032060    12A     -0.913151
      13A     -0.849129    14A     -0.772618    15A     -0.701883
      16A     -0.687347    17A     -0.665581    18A     -0.629036
      19A     -0.590991    20A     -0.571485    21A     -0.557536
      22A     -0.529333    23A     -0.520783    24A     -0.515589
      25A     -0.500600    26A     -0.494329    27A     -0.453078
      28A     -0.438887

  @DF-RHF Final Energy:  -345.03905122117465

   => Energetics <=

    Nuclear Repulsion Energy =            315.3216456864419115
    One-Electron Energy =               -1095.1848057600409447
    Two-Electron Energy =                 434.8241088524240467
    DFT Exchange-Correlation Energy =       0.0000000000000000
    Empirical Dispersion Energy =           0.0000000000000000
    PCM Polarization Energy =               0.0000000000000000
    EFP Energy =                            0.0000000000000000
    Total Energy =                       -345.0390512211749865
    Molecular point group: c1
  Basis Set: CC-PVTZ
  Basis Set:

  -Total Gradient:
     Atom            X                  Y                   Z
    ------   -----------------  -----------------  -----------------
       1        0.000062837549    -0.000008128430    -0.000026070909
       2       -0.000434141336    -0.000541341778    -0.000989932854
       3       -0.000061782273    -0.000016302864     0.000018062510
       4        0.000776843268     0.001024021950     0.001634147785
       5       -0.000029937738     0.000044759259    -0.000008381396
       6       -0.000011488154     0.000001392451     0.000003828419
       7       -0.000007510369     0.000006329484     0.000011056556
       8        0.000003981400    -0.000000766534    -0.000006979058
       9       -0.000020770615    -0.000003176327     0.000009470783
      10        0.000009113317     0.000005475231    -0.000001890376
      11       -0.000950336864    -0.001482898300    -0.001347557166
      12        0.000008385459    -0.000017281557    -0.000009640381
      13        0.000642212982     0.000968916347     0.000720770130
      14       -0.000003797565     0.000004287119    -0.000004960369
      15        0.000005269454     0.000005818800    -0.000000521494
      16        0.000005686805     0.000000331716     0.000001656499
      17        0.000005434682     0.000008563431    -0.000003058681

  **** Optimization is complete! (in 6 steps) ****
    Final optimized geometry and variables:
    Molecular point group: c1

    Geometry (in Angstrom), charge = 0, multiplicity = 1:

    O            0.515962395765     1.152772939682    -0.759498900251
    C            0.468154504706     0.150986599323    -0.130757680628
    C            1.588798712114    -0.852111266189    -0.017254896232
    O           -0.584323971947    -0.234495252582     0.571144529322
    C            2.831184941899    -0.462805135333    -0.801952699763
    H            1.197862302442    -1.808893994076    -0.345175698269
    H            1.808635222405    -0.968118602976     1.038265087344
    H            2.611040808215    -0.364065340895    -1.856471494198
    H            3.598301635219    -1.218117764359    -0.681876333385
    H            3.227272957452     0.483962983990    -0.459987468242
    C           -1.761492120139     0.563239061823     0.569768789653
    C           -2.963656623975    -0.353253030737     0.580005012539
    H           -1.753569822992     1.213737404723    -0.288852103426
    H           -1.739621508275     1.182773214265     1.457454884569
    H           -2.992466690398    -0.960430932761    -0.316295433756
    H           -3.872548743675     0.235546504786     0.623989537426
    H           -2.940645374562    -1.011681688156     1.439183690487

  Mulliken Charges: (a.u.)
   Center  Symbol    Alpha    Beta     Spin     Total
       1     O     4.19795  4.19795  0.00000 -0.39590
       2     C     2.80313  2.80313  0.00000  0.39375
       3     C     3.09524  3.09524  0.00000 -0.19048
       4     O     4.15469  4.15469  0.00000 -0.30939
       5     C     3.14013  3.14013  0.00000 -0.28025
       6     H     0.44213  0.44213  0.00000  0.11575
       7     H     0.44142  0.44142  0.00000  0.11716
       8     H     0.44862  0.44862  0.00000  0.10276
       9     H     0.45065  0.45065  0.00000  0.09870
      10     H     0.44840  0.44840  0.00000  0.10320
      11     C     2.98806  2.98806  0.00000  0.02388
      12     C     3.13298  3.13298  0.00000 -0.26596
      13     H     0.44342  0.44342  0.00000  0.11316
      14     H     0.45552  0.45552  0.00000  0.08896
      15     H     0.45200  0.45200  0.00000  0.09601
      16     H     0.45436  0.45436  0.00000  0.09127
      17     H     0.45131  0.45131  0.00000  0.09738

   Total alpha = 28.00000, Total beta = 28.00000, Total charge = -0.00000

*** Psi4 exiting successfully. Buy a developer a beer!
