                              Psi4 1.0.54 Driver

  ==> Input File <==

--------------------------------------------------------------------------
set {
	reference rhf
	basis cc-pvtz
}

set_num_threads( 4 )
memory 2 gb

molecule MOL {
0 1

H	 1.764538	 -3.300663	 4.166627
C	 1.643381	 -3.005616	 3.131071
C	 0.414360	 -2.121074	 2.952898
H	 2.546664	 -2.486357	 2.828602
H	 1.568522	 -3.910334	 2.537019
C	 0.205484	 -1.683442	 1.510741
H	 0.497821	 -1.237010	 3.575177
H	 -0.467654	 -2.657531	 3.294717
N	 -0.953580	 -0.827349	 1.378794
H	 1.075221	 -1.126134	 1.175874
H	 0.140612	 -2.567644	 0.869600
C	 -1.215959	 -0.382435	 0.027143
H	 -1.759016	 -1.292114	 1.742918
C	 -2.451944	 0.502410	 -0.038737
H	 -0.353145	 0.181215	 -0.314950
H	 -1.332255	 -1.219558	 -0.667679
C	 -3.752217	 -0.292550	 0.005776
H	 -2.407325	 1.093801	 -0.946480
H	 -2.431979	 1.206234	 0.790023
H	 -3.817783	 -0.982946	 -0.828547
H	 -4.612613	 0.364348	 -0.042306
H	 -3.830160	 -0.871666	 0.919868

	symmetry c1
}
set optking {
	frozen_dihedral = ("
		15 12 14 18
	")
}

ee,wfn = optimize('scf', return_wfn=True)
oeprop( wfn, 'DIPOLE', 'QUADRUPOLE', 'MULLIKEN_CHARGES')
f=open( 'psi4out.xyz', 'w' )
f.write( "22  " )
f.write( str(ee) + "\n" )
f.write( MOL.save_string_xyz() )
f.close()
--------------------------------------------------------------------------

    Molecular point group: c1
  Charge       = 0
  Multiplicity = 1
  Basis Set: CC-PVTZ
  Basis Set:
  @DF-RHF Final Energy:  -290.48795374355012
    Total Energy =                       -290.4879537435500652
    Molecular point group: c1
  Basis Set: CC-PVTZ
  Basis Set:
  Basis Set: CC-PVTZ
  Basis Set:
  @DF-RHF Final Energy:  -290.48818737044940
    Total Energy =                       -290.4881873704489408
  Basis Set: CC-PVTZ
  Basis Set:
  Basis Set: CC-PVTZ
  Basis Set:
  @DF-RHF Final Energy:  -290.48822232652384
    Total Energy =                       -290.4882223265243510
  Basis Set: CC-PVTZ
  Basis Set:
  Charge       = 0
  Multiplicity = 1
  Basis Set: CC-PVTZ
  Basis Set:

    Orbital Energies (a.u.)
    -----------------------

    Doubly Occupied:

       1A    -15.528191     2A    -11.236284     3A    -11.236218
       4A    -11.211866     5A    -11.211677     6A    -11.209049
       7A    -11.207580     8A     -1.207511     9A     -1.059870
      10A     -1.025296    11A     -0.929483    12A     -0.878303
      13A     -0.806763    14A     -0.791306    15A     -0.668227
      16A     -0.636247    17A     -0.621979    18A     -0.588994
      19A     -0.575978    20A     -0.571101    21A     -0.548807
      22A     -0.528222    23A     -0.507227    24A     -0.487690
      25A     -0.479765    26A     -0.471312    27A     -0.467674
      28A     -0.452420    29A     -0.361047

  @DF-RHF Final Energy:  -290.48822304887125

   => Energetics <=

    Nuclear Repulsion Energy =            317.0081508727581081
    One-Electron Energy =               -1019.9805697431875160
    Two-Electron Energy =                 412.4841958215585578
    DFT Exchange-Correlation Energy =       0.0000000000000000
    Empirical Dispersion Energy =           0.0000000000000000
    PCM Polarization Energy =               0.0000000000000000
    EFP Energy =                            0.0000000000000000
    Total Energy =                       -290.4882230488709070
    Molecular point group: c1
  Basis Set: CC-PVTZ
  Basis Set:

  -Total Gradient:
     Atom            X                  Y                   Z
    ------   -----------------  -----------------  -----------------
       1        0.000011953056    -0.000005855543     0.000002844550
       2        0.000006733206     0.000000044626     0.000029533817
       3        0.000038184517    -0.000020782689     0.000003000184
       4        0.000002751730    -0.000001207470    -0.000001035453
       5       -0.000004348988     0.000002127179     0.000000847543
       6       -0.000070593484    -0.000011081206     0.000016634548
       7        0.000001365902    -0.000004554310     0.000004294172
       8       -0.000002026705     0.000001537778    -0.000005733127
       9        0.000019004639    -0.000014137365    -0.000028264764
      10       -0.000011736139     0.000004083421     0.000000447106
      11        0.000013823457    -0.000001792544    -0.000008831906
      12        0.000840147466     0.001491372620     0.003261791160
      13        0.000000999078     0.000004199171    -0.000004892060
      14       -0.001651082734    -0.002486461433    -0.002139891964
      15       -0.000454745442    -0.000821774164    -0.002420114843
      16        0.000000374640    -0.000000070861     0.000032220775
      17       -0.000007433340    -0.000015432254     0.000025344340
      18        0.001242476448     0.001882179110     0.001239819200
      19       -0.000002976449    -0.000030485451    -0.000018501941
      20        0.000024504999     0.000016030208    -0.000012363950
      21        0.000002371649     0.000021639473     0.000007943426
      22        0.000000252493    -0.000009578298     0.000014909191

  **** Optimization is complete! (in 4 steps) ****
    Final optimized geometry and variables:
    Molecular point group: c1

    Geometry (in Angstrom), charge = 0, multiplicity = 1:

    H            2.693521604541    -2.180968436622     2.844731928272
    C            2.558704800058    -1.877260523094     1.813354677169
    C            1.318217210794    -1.004863858767     1.656038738657
    H            3.453055718046    -1.344982682551     1.507001130037
    H            2.487796832153    -2.776925799679     1.211203739718
    C            1.091032055260    -0.554135017348     0.220636239721
    H            1.397626326016    -0.126669764769     2.287060422679
    H            0.445511454282    -1.555022013372     2.000046686581
    N           -0.077714905303     0.292055152434     0.108797705283
    H            1.951874674683     0.015375687373    -0.116679658506
    H            1.028628454005    -1.432057189885    -0.429226955314
    C           -0.350369955497     0.750085283266    -1.237132317938
    H           -0.872221499663    -0.188985474821     0.473556822300
    C           -1.594174521398     1.630390123085    -1.312142087589
    H            0.506700802239     1.315967418992    -1.585966984313
    H           -0.459606990158    -0.083318909492    -1.938885799386
    C           -2.913005057637     0.865104502081    -1.252089288016
    H           -1.551335120324     2.211790510714    -2.227607514202
    H           -1.549775661971     2.346707477030    -0.498380888611
    H           -2.990272298912     0.154384930253    -2.068199253847
    H           -3.756578355458     1.541959956815    -1.321667111870
    H           -3.019695667565     0.315215734587    -0.323024672044

  Mulliken Charges: (a.u.)
   Center  Symbol    Alpha    Beta     Spin     Total
       1     H     0.44771  0.44771  0.00000  0.10459
       2     C     3.15329  3.15329  0.00000 -0.30658
       3     C     3.08052  3.08052  0.00000 -0.16104
       4     H     0.45465  0.45465  0.00000  0.09070
       5     H     0.45610  0.45610  0.00000  0.08781
       6     C     3.02186  3.02186  0.00000 -0.04372
       7     H     0.44916  0.44916  0.00000  0.10167
       8     H     0.45986  0.45986  0.00000  0.08028
       9     N     3.63714  3.63714  0.00000 -0.27429
      10     H     0.45924  0.45924  0.00000  0.08152
      11     H     0.47457  0.47457  0.00000  0.05086
      12     C     3.03305  3.03305  0.00000 -0.06610
      13     H     0.44440  0.44440  0.00000  0.11120
      14     C     3.08817  3.08817  0.00000 -0.17635
      15     H     0.45415  0.45415  0.00000  0.09169
      16     H     0.47369  0.47369  0.00000  0.05263
      17     C     3.14922  3.14922  0.00000 -0.29844
      18     H     0.45252  0.45252  0.00000  0.09497
      19     H     0.45079  0.45079  0.00000  0.09842
      20     H     0.45458  0.45458  0.00000  0.09083
      21     H     0.44648  0.44648  0.00000  0.10703
      22     H     0.45885  0.45885  0.00000  0.08230

   Total alpha = 29.00000, Total beta = 29.00000, Total charge = -0.00000

*** Psi4 exiting successfully. Buy a developer a beer!
