                              Psi4 1.0.54 Driver

  ==> Input File <==

--------------------------------------------------------------------------
set {
	reference rhf
	basis cc-pvtz
}

set_num_threads( 4 )
memory 2 gb

molecule MOL {
0 1

H	 -3.162190	 0.493205	 -0.000107
C	 -2.363908	 -0.234727	 0.000005
O	 -1.158738	 0.454634	 -0.000087
H	 -2.464314	 -0.863616	 -0.882153
H	 -2.464327	 -0.863359	 0.882345
C	 -0.028611	 -0.359694	 0.000037
C	 0.536842	 -0.429062	 -1.404187
H	 -0.287896	 -1.359002	 0.350455
H	 0.718819	 0.038171	 0.686837
C	 1.781423	 -1.305603	 -1.488122
H	 -0.232392	 -0.807975	 -2.067987
H	 0.766364	 0.578077	 -1.734249
H	 1.568094	 -2.325231	 -1.184915
H	 2.163833	 -1.337480	 -2.500923
H	 2.573616	 -0.929756	 -0.849187

	symmetry c1
}
set optking {
	frozen_dihedral = ("
		8 6 3 2
	")
}

ee,wfn = optimize('scf', return_wfn=True)
oeprop( wfn, 'DIPOLE', 'QUADRUPOLE', 'MULLIKEN_CHARGES')
f=open( 'psi4out.xyz', 'w' )
f.write( "15  " )
f.write( str(ee) + "\n" )
f.write( MOL.save_string_xyz() )
f.close()
--------------------------------------------------------------------------

    Molecular point group: c1
  Charge       = 0
  Multiplicity = 1
  Basis Set: CC-PVTZ
  Basis Set:
  @DF-RHF Final Energy:  -232.22395329222957
    Total Energy =                       -232.2239532922296235
    Molecular point group: c1
  Basis Set: CC-PVTZ
  Basis Set:
  Basis Set: CC-PVTZ
  Basis Set:
  @DF-RHF Final Energy:  -232.22458900148067
    Total Energy =                       -232.2245890014805809
  Basis Set: CC-PVTZ
  Basis Set:
  Basis Set: CC-PVTZ
  Basis Set:
  @DF-RHF Final Energy:  -232.22475180409080
    Total Energy =                       -232.2247518040909995
  Basis Set: CC-PVTZ
  Basis Set:
  Charge       = 0
  Multiplicity = 1
  Basis Set: CC-PVTZ
  Basis Set:

    Orbital Energies (a.u.)
    -----------------------

    Doubly Occupied:

       1A    -20.544615     2A    -11.264107     3A    -11.262285
       4A    -11.213367     5A    -11.211550     6A     -1.377247
       7A     -1.057099     8A     -0.958033     9A     -0.880715
      10A     -0.807917    11A     -0.670766    12A     -0.655691
      13A     -0.638314    14A     -0.599809    15A     -0.568720
      16A     -0.536047    17A     -0.511892    18A     -0.496131
      19A     -0.483427    20A     -0.462100    21A     -0.406882

  @DF-RHF Final Energy:  -232.22475355618170

   => Energetics <=

    Nuclear Repulsion Energy =            190.8876322911445129
    One-Electron Energy =                -693.0113438123964897
    Two-Electron Energy =                 269.8989579650704513
    DFT Exchange-Correlation Energy =       0.0000000000000000
    Empirical Dispersion Energy =           0.0000000000000000
    PCM Polarization Energy =               0.0000000000000000
    EFP Energy =                            0.0000000000000000
    Total Energy =                       -232.2247535561814971
    Molecular point group: c1
  Basis Set: CC-PVTZ
  Basis Set:

  -Total Gradient:
     Atom            X                  Y                   Z
    ------   -----------------  -----------------  -----------------
       1        0.000010414272     0.000010570814    -0.000005644321
       2        0.000008887672    -0.000018807460     0.000953866584
       3       -0.000087422683    -0.000093120760    -0.001617497720
       4        0.000029128908     0.000015612548     0.000006880578
       5        0.000003351931    -0.000003126484    -0.000002436509
       6        0.000230661053     0.000408500709     0.001657138584
       7        0.000084114860     0.000000096310     0.000082096358
       8       -0.000267985443    -0.000335866614    -0.001023012052
       9       -0.000006885890     0.000005098273    -0.000017229631
      10       -0.000017211864    -0.000002761161    -0.000035694563
      11       -0.000003684526     0.000002735324     0.000027056701
      12       -0.000010207607     0.000020492639    -0.000009465254
      13        0.000014052708     0.000011478619     0.000004057823
      14        0.000017598551    -0.000011963590    -0.000015149528
      15       -0.000004811942    -0.000008939168    -0.000004967049

  **** Optimization is complete! (in 4 steps) ****
    Final optimized geometry and variables:
    Molecular point group: c1

    Geometry (in Angstrom), charge = 0, multiplicity = 1:

    H           -2.899952000928     0.912709789495     0.603294739606
    C           -2.120502586751     0.164313299419     0.612615877325
    O           -0.899173367327     0.826316846393     0.573929309064
    H           -2.258504284413    -0.487192299464    -0.247235143346
    H           -2.221723619209    -0.432328744352     1.516096922790
    C            0.236736035102     0.011077054823     0.535055792591
    C            0.827008056949    -0.065825110074    -0.864515936391
    H           -0.001033185480    -0.989526126052     0.889615472322
    H            0.964674990412     0.433450973757     1.218941675092
    C            2.090906190102    -0.917275836929    -0.917260666123
    H            0.082068957152    -0.468569857688    -1.543888393309
    H            1.041409714936     0.942600846539    -1.201156025680
    H            1.892677365611    -1.939066554152    -0.610303884619
    H            2.497440374323    -0.948835856384    -1.920804371057
    H            2.860056098316    -0.520218513306    -0.263056816944

  Mulliken Charges: (a.u.)
   Center  Symbol    Alpha    Beta     Spin     Total
       1     H     0.44842  0.44842  0.00000  0.10316
       2     C     3.03185  3.03185  0.00000 -0.06370
       3     O     4.18016  4.18016  0.00000 -0.36031
       4     H     0.47303  0.47303  0.00000  0.05394
       5     H     0.46917  0.46917  0.00000  0.06167
       6     C     2.97349  2.97349  0.00000  0.05302
       7     C     3.07965  3.07965  0.00000 -0.15929
       8     H     0.47395  0.47395  0.00000  0.05211
       9     H     0.45137  0.45137  0.00000  0.09726
      10     C     3.15423  3.15423  0.00000 -0.30845
      11     H     0.45669  0.45669  0.00000  0.08663
      12     H     0.45097  0.45097  0.00000  0.09806
      13     H     0.45575  0.45575  0.00000  0.08850
      14     H     0.44670  0.44670  0.00000  0.10660
      15     H     0.45458  0.45458  0.00000  0.09084

   Total alpha = 21.00000, Total beta = 21.00000, Total charge = -0.00000

*** Psi4 exiting successfully. Buy a developer a beer!
