                              Psi4 1.0.54 Driver

  ==> Input File <==

--------------------------------------------------------------------------
set {
	reference rhf
	basis cc-pvtz
}

set_num_threads( 4 )
memory 2 gb

molecule MOL {
0 1

H	 -3.162190	 0.493205	 -0.000107
C	 -2.363908	 -0.234727	 0.000005
O	 -1.158738	 0.454634	 -0.000087
H	 -2.464314	 -0.863616	 -0.882153
H	 -2.464327	 -0.863359	 0.882345
C	 -1.145082	 1.592060	 -0.804072
C	 0.217825	 2.248757	 -0.716746
H	 -1.919036	 2.288233	 -0.480070
H	 -1.366791	 1.322502	 -1.836945
C	 0.314057	 3.506604	 -1.572849
H	 0.420504	 2.487136	 0.321532
H	 0.968339	 1.529101	 -1.024604
H	 -0.413186	 4.250707	 -1.265417
H	 1.296685	 3.954806	 -1.491739
H	 0.138610	 3.286228	 -2.620571

	symmetry c1
}
set optking {
	frozen_dihedral = ("
		6 3 2 4
	")
}

ee,wfn = optimize('scf', return_wfn=True)
oeprop( wfn, 'DIPOLE', 'QUADRUPOLE', 'MULLIKEN_CHARGES')
f=open( 'psi4out.xyz', 'w' )
f.write( "15  " )
f.write( str(ee) + "\n" )
f.write( MOL.save_string_xyz() )
f.close()
--------------------------------------------------------------------------

    Molecular point group: c1
  Charge       = 0
  Multiplicity = 1
  Basis Set: CC-PVTZ
  Basis Set:
  @DF-RHF Final Energy:  -232.22623066843747
    Total Energy =                       -232.2262306684375517
    Molecular point group: c1
  Basis Set: CC-PVTZ
  Basis Set:
  Basis Set: CC-PVTZ
  Basis Set:
  @DF-RHF Final Energy:  -232.22714719215915
    Total Energy =                       -232.2271471921593502
  Basis Set: CC-PVTZ
  Basis Set:
  Basis Set: CC-PVTZ
  Basis Set:
  @DF-RHF Final Energy:  -232.22738581355384
    Total Energy =                       -232.2273858135539513
  Basis Set: CC-PVTZ
  Basis Set:
  Charge       = 0
  Multiplicity = 1
  Basis Set: CC-PVTZ
  Basis Set:

    Orbital Energies (a.u.)
    -----------------------

    Doubly Occupied:

       1A    -20.546794     2A    -11.264510     3A    -11.261575
       4A    -11.212645     5A    -11.210668     6A     -1.380783
       7A     -1.058398     8A     -0.956222     9A     -0.877250
      10A     -0.809450    11A     -0.676350    12A     -0.655335
      13A     -0.632117    14A     -0.608629    15A     -0.564705
      16A     -0.542301    17A     -0.503542    18A     -0.489823
      19A     -0.478659    20A     -0.462732    21A     -0.415513

  @DF-RHF Final Energy:  -232.22738679221530

   => Energetics <=

    Nuclear Repulsion Energy =            189.9236646115866449
    One-Electron Energy =                -691.0861024854185644
    Two-Electron Energy =                 268.9350510816165638
    DFT Exchange-Correlation Energy =       0.0000000000000000
    Empirical Dispersion Energy =           0.0000000000000000
    PCM Polarization Energy =               0.0000000000000000
    EFP Energy =                            0.0000000000000000
    Total Energy =                       -232.2273867922153272
    Molecular point group: c1
  Basis Set: CC-PVTZ
  Basis Set:

  -Total Gradient:
     Atom            X                  Y                   Z
    ------   -----------------  -----------------  -----------------
       1       -0.000021327202     0.000001710044    -0.000006348074
       2       -0.001573653796     0.002875684815    -0.000895962139
       3        0.001144765109    -0.002071417871    -0.001736092950
       4        0.001121240809    -0.001754593393     0.001192333039
       5        0.000014249986    -0.000017498560     0.000003569102
       6       -0.000665274446     0.001043533635     0.001333051359
       7        0.000016916052    -0.000037136386     0.000047903397
       8       -0.000001374220    -0.000033172050     0.000040082241
       9       -0.000008142764     0.000006651700    -0.000003394071
      10       -0.000036708565    -0.000013092723     0.000000822439
      11        0.000019808411     0.000011438427     0.000009717869
      12       -0.000003721744    -0.000003945271     0.000002027639
      13       -0.000001715475     0.000008923214    -0.000001977042
      14       -0.000004694922    -0.000014980550     0.000012753786
      15       -0.000000367231    -0.000002105030     0.000001513405

  **** Optimization is complete! (in 4 steps) ****
    Final optimized geometry and variables:
    Molecular point group: c1

    Geometry (in Angstrom), charge = 0, multiplicity = 1:

    H           -2.356042117024    -1.088636573827     0.661313391700
    C           -1.490543540512    -1.745194151523     0.627601990084
    O           -0.299056512584    -1.030447004546     0.626411351204
    H           -1.567871107244    -2.388864404666    -0.245814646745
    H           -1.500375654244    -2.372753878954     1.508127819322
    C           -0.292550430734     0.096326972050    -0.192970819141
    C            1.064622000966     0.765193011159    -0.108663869675
    H           -1.073187568825     0.788706207114     0.121534323927
    H           -0.507797844786    -0.185005516431    -1.224376026112
    C            1.150367637517     2.018628860025    -0.972420990073
    H            1.264013042883     1.011725645659     0.928461406183
    H            1.822076167420     0.050555840103    -0.411278627563
    H            0.416354572533     2.758204867978    -0.669996058288
    H            2.129000537436     2.476026343500    -0.893436853983
    H            0.977566127499     1.790272130678    -2.018924123013

  Mulliken Charges: (a.u.)
   Center  Symbol    Alpha    Beta     Spin     Total
       1     H     0.47402  0.47402  0.00000  0.05196
       2     C     3.03270  3.03270  0.00000 -0.06539
       3     O     4.17264  4.17264  0.00000 -0.34529
       4     H     0.46770  0.46770  0.00000  0.06460
       5     H     0.44883  0.44883  0.00000  0.10234
       6     C     2.95609  2.95609  0.00000  0.08781
       7     C     3.08062  3.08062  0.00000 -0.16124
       8     H     0.47448  0.47448  0.00000  0.05105
       9     H     0.47690  0.47690  0.00000  0.04620
      10     C     3.15581  3.15581  0.00000 -0.31162
      11     H     0.45119  0.45119  0.00000  0.09761
      12     H     0.45101  0.45101  0.00000  0.09797
      13     H     0.45591  0.45591  0.00000  0.08818
      14     H     0.44627  0.44627  0.00000  0.10746
      15     H     0.45582  0.45582  0.00000  0.08835

   Total alpha = 21.00000, Total beta = 21.00000, Total charge =  0.00000

*** Psi4 exiting successfully. Buy a developer a beer!
