  ==> Input File <==

--------------------------------------------------------------------------
set {
	reference rhf
	basis cc-pvtz
}

set_num_threads( 4 )
memory 2 gb

molecule MOL {
0 1

H	 -2.003178	 0.116911	 0.257054
N	 -1.173824	 -0.310545	 -0.096857
C	 -0.022588	 0.563366	 0.065815
H	 -1.045591	 -1.165168	 0.403932
C	 1.270420	 -0.230572	 -0.014245
H	 -0.045354	 1.293678	 -0.735129
H	 -0.043155	 1.123061	 1.001180
H	 1.336273	 -0.754933	 -0.959364
H	 2.130728	 0.422015	 0.082222
H	 1.323344	 -0.967006	 0.781773

	symmetry c1
}
set optking {
	frozen_dihedral = ("
		1 2 3 6
	")
}

ee = optimize('scf')
oeprop('DIPOLE', 'QUADRUPOLE', 'MULLIKEN_CHARGES')
f=open( 'psi4out.xyz', 'w' )
f.write( "10  " )
f.write( str(ee) + "\n" )
f.write( MOL.save_string_xyz() )
f.close()
--------------------------------------------------------------------------

    Molecular point group: c1
  Charge       = 0
  Multiplicity = 1
  Basis Set: CC-PVTZ
  Basis Set:
  @DF-RHF Final Energy:  -134.30365245462659
    Total Energy =                       -134.3036524546265582
    Molecular point group: c1
  Basis Set: CC-PVTZ
  Basis Set:
  Basis Set: CC-PVTZ
  Basis Set:
  @DF-RHF Final Energy:  -134.30376343358392
    Total Energy =                       -134.3037634335839812
  Basis Set: CC-PVTZ
  Basis Set:
  Basis Set: CC-PVTZ
  Basis Set:
  @DF-RHF Final Energy:  -134.30377159661776
    Total Energy =                       -134.3037715966176506
  Basis Set: CC-PVTZ
  Basis Set:
  Charge       = 0
  Multiplicity = 1
  Basis Set: CC-PVTZ
  Basis Set:

    Orbital Energies (a.u.)
    -----------------------

    Doubly Occupied:

       1A    -15.527095     2A    -11.240880     3A    -11.208338
       4A     -1.178195     5A     -0.989732     6A     -0.826700
       7A     -0.658049     8A     -0.632799     9A     -0.588236
      10A     -0.519978    11A     -0.503274    12A     -0.492361
      13A     -0.386375

  @DF-RHF Final Energy:  -134.30377206265365

   => Energetics <=

    Nuclear Repulsion Energy =             83.5288718449546366
    One-Electron Energy =                -346.1612660313513743
    Two-Electron Energy =                 128.3286221237431164
    DFT Exchange-Correlation Energy =       0.0000000000000000
    Empirical Dispersion Energy =           0.0000000000000000
    PCM Polarization Energy =               0.0000000000000000
    EFP Energy =                            0.0000000000000000
    Total Energy =                       -134.3037720626535929
    Molecular point group: c1
  Basis Set: CC-PVTZ
  Basis Set:

  -Total Gradient:
     Atom            X                  Y                   Z
    ------   -----------------  -----------------  -----------------
       1        0.000437418934    -0.001135164297     0.002547532488
       2       -0.000218466106     0.001103507062    -0.003537955066
       3       -0.001720533860     0.001617140141     0.002440682124
       4        0.000001493809    -0.000029101282     0.000012821078
       5        0.000017053503     0.000007622761     0.000016712058
       6        0.001429205416    -0.001576736474    -0.001448608223
       7        0.000023541662     0.000017910240    -0.000006047013
       8        0.000006180415    -0.000002103756    -0.000010870620
       9        0.000019216058    -0.000000371958    -0.000006654299
      10        0.000004890169    -0.000002702437    -0.000007612527

  **** Optimization is complete! (in 4 steps) ****
    Final optimized geometry and variables:
    Molecular point group: c1

    Geometry (in Angstrom), charge = 0, multiplicity = 1:

    H           -2.012672053160     0.120566830282     0.233826210741
    N           -1.177943262540    -0.306721817758    -0.108798765596
    C           -0.028216018634     0.569878785560     0.072584051732
    H           -1.058795187418    -1.145632304710     0.421051708038
    C            1.266375300397    -0.222140451751    -0.015723130700
    H           -0.033194065849     1.304838895302    -0.724824260686
    H           -0.053813682557     1.111819080772     1.016574019304
    H            1.322075154441    -0.755077877851    -0.957472247844
    H            2.125517983048     0.434113079522     0.057868454872
    H            1.335087686371    -0.949388099866     0.787631028008

  Mulliken Charges: (a.u.)
   Center  Symbol    Alpha    Beta     Spin     Total
       1     H     0.43145  0.43145  0.00000  0.13711
       2     N     3.68641  3.68641  0.00000 -0.37281
       3     C     3.01472  3.01472  0.00000 -0.02943
       4     H     0.43202  0.43202  0.00000  0.13597
       5     C     3.14337  3.14337  0.00000 -0.28675
       6     H     0.46008  0.46008  0.00000  0.07984
       7     H     0.46943  0.46943  0.00000  0.06113
       8     H     0.44881  0.44881  0.00000  0.10239
       9     H     0.45292  0.45292  0.00000  0.09417
      10     H     0.46081  0.46081  0.00000  0.07839

   Total alpha = 13.00000, Total beta = 13.00000, Total charge = -0.00000
