                              Psi4 1.0.54 Driver

  ==> Input File <==

--------------------------------------------------------------------------
set {
	reference rhf
	basis cc-pvtz
}

set_num_threads( 4 )
memory 2 gb

molecule MOL {
0 1

O	 -2.081319	 -0.951530	 -0.502732
N	 -1.613558	 0.006676	 0.014756
C	 -0.329345	 -0.171618	 0.743966
O	 -2.068523	 1.100482	 -0.024385
C	 0.835904	 0.041968	 -0.213982
H	 -0.346048	 -1.174374	 1.137184
H	 -0.333613	 0.555559	 1.538590
C	 1.839054	 1.047182	 0.345840
H	 1.324114	 -0.909120	 -0.391861
H	 0.450387	 0.393117	 -1.164145
C	 3.012844	 1.284871	 -0.597664
H	 2.210438	 0.691917	 1.302553
H	 1.335410	 1.989408	 0.540671
H	 3.556294	 0.365410	 -0.784616
H	 2.674480	 1.670406	 -1.552959
H	 3.707906	 2.001698	 -0.177889

	symmetry c1
}
set optking {
	frozen_dihedral = ("
		9 5 3 2
	")
}

ee,wfn = optimize('scf', return_wfn=True)
oeprop( wfn, 'DIPOLE', 'QUADRUPOLE', 'MULLIKEN_CHARGES')
f=open( 'psi4out.xyz', 'w' )
f.write( "16  " )
f.write( str(ee) + "\n" )
f.write( MOL.save_string_xyz() )
f.close()
--------------------------------------------------------------------------

    Molecular point group: c1
  Charge       = 0
  Multiplicity = 1
  Basis Set: CC-PVTZ
  Basis Set:
  @DF-RHF Final Energy:  -360.90414106976357
    Total Energy =                       -360.9041410697636252
    Molecular point group: c1
  Basis Set: CC-PVTZ
  Basis Set:
  Basis Set: CC-PVTZ
  Basis Set:
  @DF-RHF Final Energy:  -360.90114016922411
    Total Energy =                       -360.9011401692242771
  Basis Set: CC-PVTZ
  Basis Set:
  Basis Set: CC-PVTZ
  Basis Set:
  @DF-RHF Final Energy:  -360.89970005061008
    Total Energy =                       -360.8997000506100221
  Basis Set: CC-PVTZ
  Basis Set:
  Basis Set: CC-PVTZ
  Basis Set:
  @DF-RHF Final Energy:  -360.90440314664409
    Total Energy =                       -360.9044031466438582
  Basis Set: CC-PVTZ
  Basis Set:
  @DF-RHF Final Energy:  -360.90440173328454
    Total Energy =                       -360.9044017332846579
  @DF-RHF Final Energy:  -360.90452072533458
    Total Energy =                       -360.9045207253346916
  @DF-RHF Final Energy:  -360.90452652697138
    Total Energy =                       -360.9045265269714946
  Basis Set: CC-PVTZ
  Basis Set:
  @DF-RHF Final Energy:  -360.90453016883032
    Total Energy =                       -360.9045301688304335
  Basis Set: CC-PVTZ
  Basis Set:
  Basis Set: CC-PVTZ
  Basis Set:
  @DF-RHF Final Energy:  -360.90453356554173
    Total Energy =                       -360.9045335655414419
  Basis Set: CC-PVTZ
  Basis Set:
  Basis Set: CC-PVTZ
  Basis Set:
  @DF-RHF Final Energy:  -360.90453498061919
    Total Energy =                       -360.9045349806191325
  Basis Set: CC-PVTZ
  Basis Set:
  Charge       = 0
  Multiplicity = 1
  Basis Set: CC-PVTZ
  Basis Set:

    Orbital Energies (a.u.)
    -----------------------

    Doubly Occupied:

       1A    -20.591117     2A    -20.588440     3A    -15.836306
       4A    -11.296478     5A    -11.251627     6A    -11.238694
       7A    -11.224002     8A     -1.635403     9A     -1.419602
      10A     -1.133820    11A     -1.058998    12A     -0.948015
      13A     -0.844992    14A     -0.827871    15A     -0.760927
      16A     -0.736607    17A     -0.727846    18A     -0.665516
      19A     -0.625904    20A     -0.605373    21A     -0.562019
      22A     -0.549839    23A     -0.512303    24A     -0.501395
      25A     -0.495847    26A     -0.482037    27A     -0.470534
      28A     -0.453246

  @DF-RHF Final Energy:  -360.90453541994623

   => Energetics <=

    Nuclear Repulsion Energy =            314.2196130007336023
    One-Electron Energy =               -1114.1587779350907113
    Two-Electron Energy =                 439.0346295144108808
    DFT Exchange-Correlation Energy =       0.0000000000000000
    Empirical Dispersion Energy =           0.0000000000000000
    PCM Polarization Energy =               0.0000000000000000
    EFP Energy =                            0.0000000000000000
    Total Energy =                       -360.9045354199462281
    Molecular point group: c1
  Basis Set: CC-PVTZ
  Basis Set:

  -Total Gradient:
     Atom            X                  Y                   Z
    ------   -----------------  -----------------  -----------------
       1       -0.000015440025     0.000000182786    -0.000005062265
       2        0.000084272357     0.001231617098     0.000488428487
       3        0.000140305692    -0.001536468430    -0.000309081707
       4       -0.000014525171    -0.000060297227    -0.000014724415
       5       -0.001177368427     0.000338855425    -0.001534951795
       6        0.000018762859    -0.000002937638     0.000001918051
       7        0.000004162127    -0.000002426534    -0.000012016083
       8       -0.000005134643    -0.000009628898     0.000016160580
       9        0.000973277860     0.000040659963     0.001370023623
      10       -0.000007031603    -0.000005924456     0.000004989765
      11       -0.000001538246     0.000004357709    -0.000007620497
      12       -0.000000022853     0.000003734632     0.000005935275
      13        0.000003361566     0.000001631740    -0.000002753390
      14        0.000000573864    -0.000000214749     0.000001080246
      15        0.000003198351     0.000002101745    -0.000002578595
      16       -0.000006853711    -0.000005243168     0.000000252719

  **** Optimization is complete! (in 11 steps) ****
    Final optimized geometry and variables:
    Molecular point group: c1

    Geometry (in Angstrom), charge = 0, multiplicity = 1:

    O           -2.113424055652    -1.159075321486    -0.568141637494
    N           -1.542789701016    -0.272414407761    -0.027986437294
    C           -0.285674941933    -0.601618531413     0.694600703720
    O           -1.875230406472     0.866062183288    -0.038002123198
    C            0.932941177150    -0.284316481583    -0.190067567980
    H           -0.352964069847    -1.643515451566     0.952217349908
    H           -0.302084016305     0.009561097243     1.581483411216
    C            1.963363575602     0.583301283264     0.529674149019
    H            1.396066168712    -1.214428243446    -0.494507814585
    H            0.606057383515     0.218944345998    -1.090909927921
    C            3.193096033741     0.861276930027    -0.326280093087
    H            2.266621554010     0.093178592721     1.450910517395
    H            1.497413241753     1.520562830236     0.816173284031
    H            3.696131166990    -0.059268833760    -0.602018119138
    H            2.923435590757     1.378347459463    -1.240575406652
    H            3.904254927551     1.480301659065     0.206853626379

  Mulliken Charges: (a.u.)
   Center  Symbol    Alpha    Beta     Spin     Total
       1     O     4.17066  4.17066  0.00000 -0.34132
       2     N     3.27846  3.27846  0.00000  0.44308
       3     C     3.04300  3.04300  0.00000 -0.08600
       4     O     4.17548  4.17548  0.00000 -0.35095
       5     C     3.09437  3.09437  0.00000 -0.18874
       6     H     0.43044  0.43044  0.00000  0.13911
       7     H     0.43596  0.43596  0.00000  0.12808
       8     C     3.09211  3.09211  0.00000 -0.18422
       9     H     0.44298  0.44298  0.00000  0.11405
      10     H     0.43939  0.43939  0.00000  0.12122
      11     C     3.15009  3.15009  0.00000 -0.30019
      12     H     0.45166  0.45166  0.00000  0.09669
      13     H     0.44531  0.44531  0.00000  0.10939
      14     H     0.45381  0.45381  0.00000  0.09237
      15     H     0.45115  0.45115  0.00000  0.09770
      16     H     0.44514  0.44514  0.00000  0.10972

   Total alpha = 28.00000, Total beta = 28.00000, Total charge = -0.00000

*** Psi4 exiting successfully. Buy a developer a beer!
