                              Psi4 1.0.54 Driver

  ==> Input File <==

--------------------------------------------------------------------------
set {
	reference rhf
	basis cc-pvtz
}

set_num_threads( 4 )
memory 2 gb

molecule MOL {
0 1

H	 -4.159661	 0.310927	 0.747545
O	 -3.445876	 -0.243197	 0.491317
C	 -2.302264	 0.528872	 0.237390
C	 -1.175688	 -0.398187	 -0.171891
H	 -2.496844	 1.248099	 -0.555468
H	 -2.016594	 1.089449	 1.125070
C	 0.196029	 0.106276	 0.266738
H	 -1.201873	 -0.515469	 -1.250677
H	 -1.365975	 -1.378728	 0.252664
C	 1.330220	 -0.826136	 -0.155230
H	 0.359542	 1.097229	 -0.145561
H	 0.212134	 0.218135	 1.348778
C	 2.719700	 -0.407669	 0.328325
H	 1.339388	 -0.911200	 -1.239363
H	 1.119001	 -1.821953	 0.224128
C	 3.241564	 0.893452	 -0.276737
H	 3.418299	 -1.204729	 0.093035
H	 2.711776	 -0.323368	 1.411960
H	 3.254204	 0.841071	 -1.360784
H	 2.634460	 1.745075	 0.005842
H	 4.254264	 1.092401	 0.054971

	symmetry c1
}
set optking {
	frozen_dihedral = ("
		2 3 4 8
	")
}

ee,wfn = optimize('scf', return_wfn=True)
oeprop( wfn, 'DIPOLE', 'QUADRUPOLE', 'MULLIKEN_CHARGES')
f=open( 'psi4out.xyz', 'w' )
f.write( "21  " )
f.write( str(ee) + "\n" )
f.write( MOL.save_string_xyz() )
f.close()
--------------------------------------------------------------------------

    Molecular point group: c1
  Charge       = 0
  Multiplicity = 1
  Basis Set: CC-PVTZ
  Basis Set:
  @DF-RHF Final Energy:  -310.32965604013384
    Total Energy =                       -310.3296560401338411
    Molecular point group: c1
  Basis Set: CC-PVTZ
  Basis Set:
  Basis Set: CC-PVTZ
  Basis Set:
  @DF-RHF Final Energy:  -310.32996882875517
    Total Energy =                       -310.3299688287554545
  Basis Set: CC-PVTZ
  Basis Set:
  Basis Set: CC-PVTZ
  Basis Set:
  @DF-RHF Final Energy:  -310.33002250293657
    Total Energy =                       -310.3300225029366857
  Basis Set: CC-PVTZ
  Basis Set:
  Charge       = 0
  Multiplicity = 1
  Basis Set: CC-PVTZ
  Basis Set:

    Orbital Energies (a.u.)
    -----------------------

    Doubly Occupied:

       1A    -20.545269     2A    -11.265161     3A    -11.212803
       4A    -11.212518     5A    -11.210758     6A    -11.209076
       7A    -11.206000     8A     -1.362621     9A     -1.086754
      10A     -1.033442    11A     -0.954663    12A     -0.876192
      13A     -0.807854    14A     -0.778960    15A     -0.700665
      16A     -0.653522    17A     -0.627773    18A     -0.604449
      19A     -0.586742    20A     -0.574568    21A     -0.536279
      22A     -0.522867    23A     -0.510439    24A     -0.485679
      25A     -0.483322    26A     -0.461023    27A     -0.455414
      28A     -0.444689    29A     -0.433161

  @DF-RHF Final Energy:  -310.33002154609750

   => Energetics <=

    Nuclear Repulsion Energy =            312.8724643688993297
    One-Electron Energy =               -1040.7196371191521393
    Two-Electron Energy =                 417.5171512041554251
    DFT Exchange-Correlation Energy =       0.0000000000000000
    Empirical Dispersion Energy =           0.0000000000000000
    PCM Polarization Energy =               0.0000000000000000
    EFP Energy =                            0.0000000000000000
    Total Energy =                       -310.3300215460974414
    Molecular point group: c1
  Basis Set: CC-PVTZ
  Basis Set:

  -Total Gradient:
     Atom            X                  Y                   Z
    ------   -----------------  -----------------  -----------------
       1       -0.000013220664     0.000015923465     0.000013293010
       2        0.000967692357    -0.000287258191     0.003272611313
       3       -0.000582632676     0.001234712446    -0.004436911551
       4       -0.003174171540    -0.004650268656     0.001579259235
       5       -0.000011595951    -0.000041743645    -0.000008041295
       6        0.000080368906    -0.000019689191     0.000008924490
       7       -0.000068605579     0.000005312101     0.000090758233
       8        0.002755609873     0.003603178671    -0.000550007249
       9       -0.000024811538     0.000077857003     0.000053899843
      10       -0.000002533844     0.000057586153    -0.000100032187
      11       -0.000070719735    -0.000090124685     0.000007096591
      12        0.000055197791     0.000064149461     0.000059947403
      13       -0.000054326130     0.000068637220     0.000091243912
      14       -0.000006810938     0.000025435238    -0.000022219434
      15        0.000040668013    -0.000015406799    -0.000038795725
      16        0.000046210745    -0.000018234901    -0.000021733688
      17        0.000002439078    -0.000014512925     0.000033037548
      18       -0.000026310031     0.000034661258     0.000001401137
      19       -0.000019426032     0.000017453777    -0.000026372766
      20        0.000098504847    -0.000042591654     0.000018494297
      21        0.000008473049    -0.000025076149    -0.000025853118

  **** Optimization is complete! (in 4 steps) ****
    Final optimized geometry and variables:
    Molecular point group: c1

    Geometry (in Angstrom), charge = 0, multiplicity = 1:

    H           -4.197614101428     0.329909925817     0.590879607679
    O           -3.468318062563    -0.236417720755     0.418103985738
    C           -2.318949409522     0.525461881040     0.151710901768
    C           -1.182887244282    -0.413913781291    -0.233899922888
    H           -2.505962681137     1.242075826932    -0.643602992362
    H           -2.040913999650     1.089331788557     1.039378846427
    C            0.188786006617     0.129090854846     0.164850414413
    H           -1.187533812370    -0.566334254858    -1.308464488996
    H           -1.357940413596    -1.371745206850     0.240121217938
    C            1.335860902222    -0.767470227533    -0.296424675904
    H            0.310524097797     1.126789874137    -0.247512601453
    H            0.231545465221     0.237897632224     1.246021590534
    C            2.724548205285    -0.326325813401     0.169092261858
    H            1.326923280053    -0.832792686936    -1.382034621803
    H            1.154555021210    -1.774883343534     0.067907933842
    C            3.210220312633     0.991442907405    -0.429866609913
    H            3.435058116964    -1.106386108082    -0.086576413631
    H            2.732854927761    -0.254016416056     1.253485470357
    H            3.199647772823     0.953455811065    -1.514575199413
    H            2.594913566401     1.828384713793    -0.122422745305
    H            4.226454857462     1.203887655473    -0.117980995748

  Mulliken Charges: (a.u.)
   Center  Symbol    Alpha    Beta     Spin     Total
       1     H     0.39608  0.39608  0.00000  0.20784
       2     O     4.19622  4.19622  0.00000 -0.39245
       3     C     2.96362  2.96362  0.00000  0.07276
       4     C     3.08568  3.08568  0.00000 -0.17136
       5     H     0.47247  0.47247  0.00000  0.05505
       6     H     0.47665  0.47665  0.00000  0.04669
       7     C     3.10174  3.10174  0.00000 -0.20349
       8     H     0.45515  0.45515  0.00000  0.08971
       9     H     0.44528  0.44528  0.00000  0.10943
      10     C     3.09580  3.09580  0.00000 -0.19160
      11     H     0.45408  0.45408  0.00000  0.09184
      12     H     0.45395  0.45395  0.00000  0.09209
      13     C     3.08984  3.08984  0.00000 -0.17968
      14     H     0.45378  0.45378  0.00000  0.09243
      15     H     0.44842  0.44842  0.00000  0.10316
      16     C     3.15229  3.15229  0.00000 -0.30457
      17     H     0.44851  0.44851  0.00000  0.10298
      18     H     0.45468  0.45468  0.00000  0.09064
      19     H     0.45502  0.45502  0.00000  0.08995
      20     H     0.45423  0.45423  0.00000  0.09153
      21     H     0.44649  0.44649  0.00000  0.10702

   Total alpha = 29.00000, Total beta = 29.00000, Total charge = -0.00000

*** Psi4 exiting successfully. Buy a developer a beer!
