  ==> Input File <==

--------------------------------------------------------------------------
set {
	reference rhf
	basis cc-pvtz
}

set_num_threads( 4 )
memory 2 gb

molecule MOL {
0 1

H	 2.342730	 0.877684	 -1.045694
C	 2.360424	 0.000000	 -0.411793
C	 1.173749	 0.000000	 0.526870
H	 3.286567	 0.000000	 0.151574
H	 2.342730	 -0.877684	 -1.045694
O	 -0.000000	 0.000000	 -0.223739
H	 1.203779	 0.876757	 1.172538
H	 1.203779	 -0.876757	 1.172538
C	 -1.173749	 0.000000	 0.526870
C	 -1.709860	 -1.412687	 0.605512
H	 -1.910464	 0.657797	 0.067473
H	 -0.977265	 0.384886	 1.526744
H	 -1.920660	 -1.794202	 -0.385691
H	 -2.624928	 -1.436737	 1.186198
H	 -0.986474	 -2.067402	 1.075123

	symmetry c1
}
set optking {
	frozen_dihedral = ("
		11 9 6 3
	")
}

ee = optimize('scf')
oeprop('DIPOLE', 'QUADRUPOLE', 'MULLIKEN_CHARGES')
f=open( 'psi4out.xyz', 'w' )
f.write( "15  " )
f.write( str(ee) + "\n" )
f.write( MOL.save_string_xyz() )
f.close()
--------------------------------------------------------------------------

    Molecular point group: c1
  Charge       = 0
  Multiplicity = 1
  Basis Set: CC-PVTZ
  Basis Set:
  @DF-RHF Final Energy:  -232.22935789598895
    Total Energy =                       -232.2293578959888691
    Molecular point group: c1
  Basis Set: CC-PVTZ
  Basis Set:
  Basis Set: CC-PVTZ
  Basis Set:
  @DF-RHF Final Energy:  -232.23013629262647
    Total Energy =                       -232.2301362926266393
  Basis Set: CC-PVTZ
  Basis Set:
  Basis Set: CC-PVTZ
  Basis Set:
  @DF-RHF Final Energy:  -232.23028650997219
    Total Energy =                       -232.2302865099721885
  Basis Set: CC-PVTZ
  Basis Set:
  Charge       = 0
  Multiplicity = 1
  Basis Set: CC-PVTZ
  Basis Set:

    Orbital Energies (a.u.)
    -----------------------

    Doubly Occupied:

       1A    -20.542707     2A    -11.266620     3A    -11.265895
       4A    -11.208184     5A    -11.206838     6A     -1.377149
       7A     -1.042321     8A     -0.985617     9A     -0.857834
      10A     -0.818514    11A     -0.672898    12A     -0.654689
      13A     -0.639086    14A     -0.572685    15A     -0.554419
      16A     -0.542279    17A     -0.523451    18A     -0.501387
      19A     -0.487517    20A     -0.461230    21A     -0.408458

  @DF-RHF Final Energy:  -232.23028813001829

   => Energetics <=

    Nuclear Repulsion Energy =            192.2740281698846445
    One-Electron Energy =                -695.8290776807764360
    Two-Electron Energy =                 271.3247613808736673
    DFT Exchange-Correlation Energy =       0.0000000000000000
    Empirical Dispersion Energy =           0.0000000000000000
    PCM Polarization Energy =               0.0000000000000000
    EFP Energy =                            0.0000000000000000
    Total Energy =                       -232.2302881300180957
    Molecular point group: c1
  Basis Set: CC-PVTZ
  Basis Set:

  -Total Gradient:
     Atom            X                  Y                   Z
    ------   -----------------  -----------------  -----------------
       1       -0.000006572813    -0.000009324033     0.000012687951
       2        0.000006585036    -0.000010203888     0.000011804211
       3       -0.000010150906     0.001018890743    -0.000002236353
       4        0.000025622457    -0.000000157904    -0.000000111725
       5       -0.000004493192     0.000002226741     0.000002768124
       6        0.000110251691    -0.001242631560     0.000051868403
       7        0.000003970872    -0.000002437582     0.000013480143
       8       -0.000010034655     0.000008941559    -0.000024928789
       9       -0.000394168318    -0.000675832116    -0.000736223186
      10       -0.000080225134     0.000015087977     0.000000509850
      11        0.000384440745     0.000828878418     0.000683393524
      12       -0.000051745780     0.000011045026     0.000027748489
      13        0.000008246247     0.000000261298    -0.000025062584
      14        0.000005753796    -0.000002699615    -0.000005960910
      15        0.000012519954     0.000057954936    -0.000009737148

  **** Optimization is complete! (in 4 steps) ****
    Final optimized geometry and variables:
    Molecular point group: c1

    Geometry (in Angstrom), charge = 0, multiplicity = 1:

    H            2.203704999804     1.167380960886    -1.276602393597
    C            2.235813938646     0.295648716118    -0.635018841069
    C            1.064138111916     0.300450555936     0.322202670259
    H            3.170874613039     0.304822010185    -0.086238674302
    H            2.211810511981    -0.587762409491    -1.260801175996
    O           -0.120239025322     0.303394426074    -0.414796440549
    H            1.105421460163     1.180318386420     0.961987325966
    H            1.109266517280    -0.573027203819     0.970419328059
    C           -1.305966023958     0.260844847466     0.325700265931
    C           -1.881464211056    -1.142510278278     0.395760448766
    H           -2.008657854741     0.929704980517    -0.156597549181
    H           -1.139004931911     0.648601936880     1.327715107992
    H           -2.070861063891    -1.521247121720    -0.600995996941
    H           -2.815906397236    -1.141585243106     0.946844994005
    H           -1.198145248216    -1.822108676278     0.891728979272

  Mulliken Charges: (a.u.)
   Center  Symbol    Alpha    Beta     Spin     Total
       1     H     0.45128  0.45128  0.00000  0.09744
       2     C     3.13673  3.13673  0.00000 -0.27346
       3     C     2.96676  2.96676  0.00000  0.06649
       4     H     0.45925  0.45925  0.00000  0.08150
       5     H     0.45171  0.45171  0.00000  0.09658
       6     O     4.18542  4.18542  0.00000 -0.37084
       7     H     0.47024  0.47024  0.00000  0.05953
       8     H     0.47391  0.47391  0.00000  0.05217
       9     C     2.98012  2.98012  0.00000  0.03975
      10     C     3.13783  3.13783  0.00000 -0.27567
      11     H     0.45196  0.45196  0.00000  0.09607
      12     H     0.47168  0.47168  0.00000  0.05663
      13     H     0.45090  0.45090  0.00000  0.09819
      14     H     0.45562  0.45562  0.00000  0.08876
      15     H     0.45658  0.45658  0.00000  0.08684

   Total alpha = 21.00000, Total beta = 21.00000, Total charge =  0.00000
