  ==> Input File <==

--------------------------------------------------------------------------
set {
	reference rhf
	basis 6-31G*
}

set_num_threads( 4 )
memory 2 gb

molecule MOL {
0 1

O	 1.089699	 0.644252	 0.941550
C	 0.576249	 0.131685	 -0.000108
C	 -0.766779	 -0.556801	 -0.000461
O	 1.133909	 0.098916	 -1.203688
C	 -1.945214	 0.412366	 0.000161
H	 -0.796911	 -1.211249	 -0.867467
H	 -0.796854	 -1.212390	 0.865687
C	 -3.287791	 -0.317055	 0.000105
H	 -1.876087	 1.060580	 -0.866812
H	 -1.875822	 1.059691	 0.867761
H	 -3.394745	 -0.949193	 -0.877058
H	 -4.111778	 0.388953	 0.000015
H	 -3.394954	 -0.949187	 0.877259
C	 2.402555	 0.712805	 -1.341117
H	 2.344329	 1.763998	 -1.097918
H	 2.682617	 0.583066	 -2.374847
H	 3.126495	 0.238139	 -0.694499

	symmetry c1
}
set optking {
	frozen_dihedral = ("
		1 2 3 6
	")
}

ee = optimize('scf')
oeprop('DIPOLE', 'QUADRUPOLE', 'MULLIKEN_CHARGES')
f=open( 'psi4out.xyz', 'w' )
f.write( "17  " )
f.write( str(ee) + "\n" )
f.write( MOL.save_string_xyz() )
f.close()
--------------------------------------------------------------------------

    Molecular point group: c1
  Charge       = 0
  Multiplicity = 1
  Basis Set: 6-31G*
  Basis Set:
  @DF-RHF Final Energy:  -344.90449295579850
    Total Energy =                       -344.9044929557985597
    Molecular point group: c1
  Basis Set: 6-31G*
  Basis Set:
  Basis Set: 6-31G*
  Basis Set:
  @DF-RHF Final Energy:  -344.90496025310676
    Total Energy =                       -344.9049602531067649
  Basis Set: 6-31G*
  Basis Set:
  Basis Set: 6-31G*
  Basis Set:
  @DF-RHF Final Energy:  -344.90387785408853
    Total Energy =                       -344.9038778540885914
  Basis Set: 6-31G*
  Basis Set:
  Basis Set: 6-31G*
  Basis Set:
  @DF-RHF Final Energy:  -344.90527522843314
    Total Energy =                       -344.9052752284331405
  Basis Set: 6-31G*
  Basis Set:
  Basis Set: 6-31G*
  Basis Set:
  @DF-RHF Final Energy:  -344.90528078738402
    Total Energy =                       -344.9052807873838447
  Basis Set: 6-31G*
  Basis Set:
  Charge       = 0
  Multiplicity = 1
  Basis Set: 6-31G*
  Basis Set:

    Orbital Energies (a.u.)
    -----------------------

    Doubly Occupied:

       1A    -20.605576     2A    -20.542519     3A    -11.371185
       4A    -11.280856     5A    -11.234042     6A    -11.231873
       7A    -11.218450     8A     -1.469327     9A     -1.361359
      10A     -1.083697    11A     -1.000078    12A     -0.941752
      13A     -0.829711    14A     -0.773388    15A     -0.697867
      16A     -0.679589    17A     -0.673141    18A     -0.636191
      19A     -0.594979    20A     -0.582879    21A     -0.556292
      22A     -0.539791    23A     -0.526040    24A     -0.505383
      25A     -0.486502    26A     -0.484241    27A     -0.453831
      28A     -0.432960

  @DF-RHF Final Energy:  -344.90528112190560

   => Energetics <=

    Nuclear Repulsion Energy =            313.5775099292483787
    One-Electron Energy =               -1091.3785813787369534
    Two-Electron Energy =                 432.8957903275830290
    DFT Exchange-Correlation Energy =       0.0000000000000000
    Empirical Dispersion Energy =           0.0000000000000000
    PCM Polarization Energy =               0.0000000000000000
    EFP Energy =                            0.0000000000000000
    Total Energy =                       -344.9052811219054888
    Molecular point group: c1
  Basis Set: 6-31G*
  Basis Set:

  -Total Gradient:
     Atom            X                  Y                   Z
    ------   -----------------  -----------------  -----------------
       1       -0.000097559748     0.000221904623    -0.000068451253
       2        0.000127234501    -0.000267666622     0.000025069330
       3        0.000080302552    -0.000120085035     0.000196934423
       4       -0.000035104280    -0.000022942217     0.000076087499
       5        0.000019642150     0.000014592943    -0.000058962124
       6       -0.000096084394     0.000177750448    -0.000147899716
       7       -0.000007397019    -0.000015054495    -0.000037008992
       8        0.000003582226    -0.000016370741     0.000030606800
       9       -0.000001438471    -0.000014008807     0.000011935358
      10        0.000009902293     0.000011069859    -0.000026923218
      11        0.000006663059     0.000016600563    -0.000003594357
      12        0.000000544077     0.000007969507     0.000013694197
      13        0.000002055091    -0.000014230362    -0.000006186034
      14       -0.000034645620     0.000036684586    -0.000008974809
      15        0.000013897536    -0.000003250294    -0.000003460692
      16        0.000008967439    -0.000002611954     0.000000280759
      17       -0.000000561393    -0.000010352004     0.000006852832

  **** Optimization is complete! (in 6 steps) ****
    Final optimized geometry and variables:
    Molecular point group: c1

    Geometry (in Angstrom), charge = 0, multiplicity = 1:

    O            1.156371680549     0.427911858206     1.190804741821
    C            0.663562377502    -0.082764155026     0.235992304653
    C           -0.673925330710    -0.780051715119     0.239465521939
    O            1.220903921953    -0.063889033533    -0.966722965704
    C           -1.820151801854     0.242524646980     0.208958427837
    H           -0.740835608601    -1.445222376161    -0.612482554816
    H           -0.732176806024    -1.368362312441     1.147850714617
    C           -3.191072751671    -0.429396742269     0.249195179188
    H           -1.736692990050     0.847216691956    -0.690113741817
    H           -1.712730258908     0.915216114095     1.053519334949
    H           -3.331547737715    -1.088150469506    -0.602734994472
    H           -3.985060096065     0.310000938998     0.231097431068
    H           -3.310304841484    -1.022177355234     1.151296423597
    C            2.461112030403     0.609224598571    -1.088104478275
    H            2.355255243303     1.651020112271    -0.821821148700
    H            2.748239147354     0.514504684317    -2.123713623785
    H            3.203907835535     0.153169429962    -0.449716024176

  Mulliken Charges: (a.u.)
   Center  Symbol    Alpha    Beta     Spin     Total
       1     O     4.28644  4.28644  0.00000 -0.57287
       2     C     2.61531  2.61531  0.00000  0.76938
       3     C     3.19475  3.19475  0.00000 -0.38950
       4     O     4.30254  4.30254  0.00000 -0.60509
       5     C     3.16477  3.16477  0.00000 -0.32953
       6     H     0.40296  0.40296  0.00000  0.19408
       7     H     0.40107  0.40107  0.00000  0.19786
       8     C     3.24093  3.24093  0.00000 -0.48186
       9     H     0.41367  0.41367  0.00000  0.17265
      10     H     0.40578  0.40578  0.00000  0.18845
      11     H     0.41940  0.41940  0.00000  0.16120
      12     H     0.41507  0.41507  0.00000  0.16987
      13     H     0.41833  0.41833  0.00000  0.16335
      14     C     3.09320  3.09320  0.00000 -0.18641
      15     H     0.40892  0.40892  0.00000  0.18216
      16     H     0.40857  0.40857  0.00000  0.18285
      17     H     0.40830  0.40830  0.00000  0.18341

   Total alpha = 28.00000, Total beta = 28.00000, Total charge =  0.00000
