                              Psi4 1.0.54 Driver

  ==> Input File <==

--------------------------------------------------------------------------
set {
	reference rhf
	basis cc-pvtz
}

set_num_threads( 4 )
memory 2 gb

molecule MOL {
0 1

O	 -2.817697	 1.304178	 0.001046
C	 -2.664672	 0.129869	 0.003507
C	 -3.797908	 -0.860100	 -0.001145
O	 -1.481217	 -0.452708	 0.001092
H	 -4.408836	 -0.679689	 -0.875387
H	 -3.443486	 -1.878443	 -0.002770
H	 -4.412123	 -0.683688	 0.871605
C	 -0.332055	 0.384012	 -0.000250
C	 0.892252	 -0.506059	 -0.000295
H	 -0.360822	 1.020205	 -0.874146
H	 -0.359817	 1.021310	 0.872861
C	 2.188199	 0.299473	 -0.001416
H	 0.857046	 -1.152781	 -0.871031
H	 0.857910	 -1.151798	 0.871202
C	 3.235944	 -0.252550	 0.961199
H	 2.602017	 0.319138	 -1.006575
H	 1.973012	 1.332754	 0.259349
C	 4.530695	 0.552824	 0.961254
H	 3.453111	 -1.284517	 0.700546
H	 2.823606	 -0.272534	 1.966020
H	 4.985598	 0.562672	 -0.023535
H	 5.251966	 0.135400	 1.654097
H	 4.351155	 1.582589	 1.251432

	symmetry c1
}
set optking {
	frozen_dihedral = ("
		16 12 9 13
	")
}

ee,wfn = optimize('scf', return_wfn=True)
oeprop( wfn, 'DIPOLE', 'QUADRUPOLE', 'MULLIKEN_CHARGES')
f=open( 'psi4out.xyz', 'w' )
f.write( "23  " )
f.write( str(ee) + "\n" )
f.write( MOL.save_string_xyz() )
f.close()
--------------------------------------------------------------------------

    Molecular point group: c1
  Charge       = 0
  Multiplicity = 1
  Basis Set: CC-PVTZ
  Basis Set:
  @DF-RHF Final Energy:  -423.13063884208856
    Total Energy =                       -423.1306388420882740
    Molecular point group: c1
  Basis Set: CC-PVTZ
  Basis Set:
  Basis Set: CC-PVTZ
  Basis Set:
  @DF-RHF Final Energy:  -423.13067366702143
    Total Energy =                       -423.1306736670209148
  Basis Set: CC-PVTZ
  Basis Set:
  Basis Set: CC-PVTZ
  Basis Set:
  @DF-RHF Final Energy:  -423.13079282178654
    Total Energy =                       -423.1307928217865992
  Basis Set: CC-PVTZ
  Basis Set:
  Basis Set: CC-PVTZ
  Basis Set:
  @DF-RHF Final Energy:  -423.13091207172494
    Total Energy =                       -423.1309120717246515
  Basis Set: CC-PVTZ
  Basis Set:
  Basis Set: CC-PVTZ
  Basis Set:
  @DF-RHF Final Energy:  -423.13093495878178
    Total Energy =                       -423.1309349587814950
  Basis Set: CC-PVTZ
  Basis Set:
  Basis Set: CC-PVTZ
  Basis Set:
  @DF-RHF Final Energy:  -423.13093723646750
    Total Energy =                       -423.1309372364676165
  Basis Set: CC-PVTZ
  Basis Set:
  Charge       = 0
  Multiplicity = 1
  Basis Set: CC-PVTZ
  Basis Set:

    Orbital Energies (a.u.)
    -----------------------

    Doubly Occupied:

       1A    -20.595821     2A    -20.529560     3A    -11.366455
       4A    -11.279637     5A    -11.230677     6A    -11.222205
       7A    -11.221397     8A    -11.219552     9A    -11.210649
      10A     -1.471177    11A     -1.364048    12A     -1.093833
      13A     -1.043115    14A     -1.003793    15A     -0.930969
      16A     -0.843348    17A     -0.802449    18A     -0.777446
      19A     -0.692992    20A     -0.688197    21A     -0.673179
      22A     -0.642590    23A     -0.611328    24A     -0.587276
      25A     -0.582869    26A     -0.570341    27A     -0.559376
      28A     -0.536671    29A     -0.526267    30A     -0.503257
      31A     -0.494555    32A     -0.478399    33A     -0.468623
      34A     -0.465259    35A     -0.454412    36A     -0.438762

  @DF-RHF Final Energy:  -423.13093742359598

   => Energetics <=

    Nuclear Repulsion Energy =            451.0748428142341595
    One-Electron Energy =               -1470.0505891733189401
    Two-Electron Energy =                 595.8448089354884587
    DFT Exchange-Correlation Energy =       0.0000000000000000
    Empirical Dispersion Energy =           0.0000000000000000
    PCM Polarization Energy =               0.0000000000000000
    EFP Energy =                            0.0000000000000000
    Total Energy =                       -423.1309374235962650
    Molecular point group: c1
  Basis Set: CC-PVTZ
  Basis Set:

  -Total Gradient:
     Atom            X                  Y                   Z
    ------   -----------------  -----------------  -----------------
       1       -0.000011621505     0.000010607684     0.000008193421
       2        0.000013056685    -0.000015312077    -0.000017903475
       3       -0.000002972216     0.000003246546     0.000004794801
       4       -0.000010724077     0.000001783314     0.000007950276
       5       -0.000000032119    -0.000000648293    -0.000000525627
       6        0.000001492933     0.000001369952    -0.000000279277
       7       -0.000000055117     0.000000948391     0.000000187229
       8        0.000004044216     0.000003762839    -0.000005127311
       9        0.002281667685    -0.003498133154     0.002224026208
      10       -0.000000777567    -0.000000396731     0.000002026332
      11       -0.000003352846    -0.000002927583    -0.000000859805
      12       -0.002466482929     0.003827656210    -0.001168127946
      13       -0.001498884255     0.002323252726    -0.001660006693
      14       -0.000002234503    -0.000002906739     0.000002268291
      15        0.000001005540    -0.000009492809    -0.000005323504
      16        0.001699803272    -0.002648808477     0.000610947235
      17       -0.000002366963    -0.000001985202    -0.000003413617
      18       -0.000003139661     0.000014877353     0.000010195537
      19       -0.000001397475    -0.000008077023    -0.000005193822
      20        0.000003309566    -0.000002042699    -0.000005742184
      21       -0.000004571233    -0.000004137805     0.000003043570
      22       -0.000001396476     0.000000190983     0.000000095077
      23        0.000005629040     0.000007172596    -0.000001224717

  **** Optimization is complete! (in 7 steps) ****
    Final optimized geometry and variables:
    Molecular point group: c1

    Geometry (in Angstrom), charge = 0, multiplicity = 1:

    O           -2.784102889611     1.224231701891    -0.227246986863
    C           -2.629303813378     0.050136496656    -0.234030686836
    C           -3.760840872139    -0.941374365918    -0.268638891910
    O           -1.445052558682    -0.530480390001    -0.211896310332
    H           -4.353791019957    -0.755802787380    -1.154174686608
    H           -3.404912881266    -1.959228020732    -0.269807202567
    H           -4.393244124206    -0.771672526538     0.592453325784
    C           -0.297870522313     0.307143134543    -0.177587643035
    C            0.930327397075    -0.579758465953    -0.154721540313
    H           -0.304560473969     0.951357984892    -1.046504641200
    H           -0.346777065243     0.937300179882     0.699952184081
    C            2.227298115799     0.246342719065    -0.174214604349
    H            0.884003673561    -1.229928353531    -1.020438137650
    H            0.889046920794    -1.209696688575     0.726248245617
    C            3.307484191167    -0.310264979421     0.752025549243
    H            2.626921954684     0.269057252740    -1.182824108299
    H            2.022143561634     1.275996108211     0.104854005592
    C            4.609776926389     0.480025687026     0.695279233304
    H            3.501723991269    -1.347098162251     0.490959542170
    H            2.933375548849    -0.318723780273     1.772013654196
    H            5.028774478293     0.473350406415    -0.305439482224
    H            5.351298836680     0.062786160435     1.366610791532
    H            4.452036099484     1.515293921398     0.979101738563

  Mulliken Charges: (a.u.)
   Center  Symbol    Alpha    Beta     Spin     Total
       1     O     4.20236  4.20236  0.00000 -0.40472
       2     C     2.81476  2.81476  0.00000  0.37048
       3     C     3.13989  3.13989  0.00000 -0.27978
       4     O     4.14595  4.14595  0.00000 -0.29190
       5     H     0.44211  0.44211  0.00000  0.11578
       6     H     0.44181  0.44181  0.00000  0.11638
       7     H     0.44216  0.44216  0.00000  0.11567
       8     C     2.97861  2.97861  0.00000  0.04277
       9     C     3.08436  3.08436  0.00000 -0.16873
      10     H     0.45272  0.45272  0.00000  0.09455
      11     H     0.45444  0.45444  0.00000  0.09111
      12     C     3.10064  3.10064  0.00000 -0.20127
      13     H     0.44860  0.44860  0.00000  0.10280
      14     H     0.45046  0.45046  0.00000  0.09909
      15     C     3.08456  3.08456  0.00000 -0.16911
      16     H     0.45030  0.45030  0.00000  0.09939
      17     H     0.45319  0.45319  0.00000  0.09362
      18     C     3.14968  3.14968  0.00000 -0.29935
      19     H     0.45250  0.45250  0.00000  0.09500
      20     H     0.45397  0.45397  0.00000  0.09207
      21     H     0.45476  0.45476  0.00000  0.09048
      22     H     0.44775  0.44775  0.00000  0.10450
      23     H     0.45442  0.45442  0.00000  0.09116

   Total alpha = 36.00000, Total beta = 36.00000, Total charge = -0.00000

*** Psi4 exiting successfully. Buy a developer a beer!
