                              Psi4 1.0.54 Driver

  ==> Input File <==

--------------------------------------------------------------------------
set {
	reference rhf
	basis cc-pvtz
}

set_num_threads( 4 )
memory 2 gb

molecule MOL {
0 1

H	 -2.362939	 -1.309000	 -0.383250
C	 -1.359344	 -1.272457	 0.020748
C	 -0.684082	 0.000127	 -0.464918
H	 -0.825835	 -2.151141	 -0.318537
H	 -1.416276	 -1.292399	 1.099455
C	 -1.359089	 1.272668	 0.021259
N	 0.742439	 -0.000109	 0.007333
H	 -0.596914	 0.000345	 -1.538146
H	 -2.362696	 1.309620	 -0.382686
H	 -0.825392	 2.151374	 -0.317674
H	 -1.415983	 1.292181	 1.099973
O	 1.471810	 0.806051	 -0.463590
O	 1.048733	 -0.806338	 0.821255

	symmetry c1
}
set optking {
	frozen_dihedral = ("
		12 7 3 8
	")
}

ee,wfn = optimize('scf', return_wfn=True)
oeprop( wfn, 'DIPOLE', 'QUADRUPOLE', 'MULLIKEN_CHARGES')
f=open( 'psi4out.xyz', 'w' )
f.write( "13  " )
f.write( str(ee) + "\n" )
f.write( MOL.save_string_xyz() )
f.close()
--------------------------------------------------------------------------

    Molecular point group: c1
  Charge       = 0
  Multiplicity = 1
  Basis Set: CC-PVTZ
  Basis Set:
  @DF-RHF Final Energy:  -321.86268561558722
    Total Energy =                       -321.8626856155872247
    Molecular point group: c1
  Basis Set: CC-PVTZ
  Basis Set:
  Basis Set: CC-PVTZ
  Basis Set:
  @DF-RHF Final Energy:  -321.86014784251478
    Total Energy =                       -321.8601478425146638
  Basis Set: CC-PVTZ
  Basis Set:
  Basis Set: CC-PVTZ
  Basis Set:
  @DF-RHF Final Energy:  -321.85972508447082
    Total Energy =                       -321.8597250844709379
  Basis Set: CC-PVTZ
  Basis Set:
  Basis Set: CC-PVTZ
  Basis Set:
  @DF-RHF Final Energy:  -321.86300392778458
    Total Energy =                       -321.8630039277846890
  Basis Set: CC-PVTZ
  Basis Set:
  Basis Set: CC-PVTZ
  Basis Set:
  @DF-RHF Final Energy:  -321.86328132276816
    Total Energy =                       -321.8632813227679890
  Basis Set: CC-PVTZ
  Basis Set:
  Basis Set: CC-PVTZ
  Basis Set:
  @DF-RHF Final Energy:  -321.86350880759051
    Total Energy =                       -321.8635088075903923
  Basis Set: CC-PVTZ
  Basis Set:
  Charge       = 0
  Multiplicity = 1
  Basis Set: CC-PVTZ
  Basis Set:

    Orbital Energies (a.u.)
    -----------------------

    Doubly Occupied:

       1A    -20.591550     2A    -20.585855     3A    -15.833334
       4A    -11.305574     5A    -11.243648     6A    -11.237707
       7A     -1.634247     8A     -1.418405     9A     -1.141227
      10A     -0.970743    11A     -0.957681    12A     -0.815603
      13A     -0.760041    14A     -0.730644    15A     -0.725067
      16A     -0.645009    17A     -0.593125    18A     -0.587853
      19A     -0.570847    20A     -0.526788    21A     -0.521651
      22A     -0.484775    23A     -0.471953    24A     -0.451467

  @DF-RHF Final Energy:  -321.86350971010688

   => Energetics <=

    Nuclear Repulsion Energy =            257.3965255235967788
    One-Electron Energy =                -948.9104845214507122
    Two-Electron Energy =                 369.6504492877471648
    DFT Exchange-Correlation Energy =       0.0000000000000000
    Empirical Dispersion Energy =           0.0000000000000000
    PCM Polarization Energy =               0.0000000000000000
    EFP Energy =                            0.0000000000000000
    Total Energy =                       -321.8635097101067686
    Molecular point group: c1
  Basis Set: CC-PVTZ
  Basis Set:

  -Total Gradient:
     Atom            X                  Y                   Z
    ------   -----------------  -----------------  -----------------
       1       -0.000004024337    -0.000001692081    -0.000003702390
       2       -0.000004929814    -0.000070842119     0.000031781868
       3       -0.000123324435     0.001824865673     0.000383936019
       4       -0.000008265223    -0.000001696017     0.000008695081
       5        0.000001858928    -0.000001863364    -0.000007848853
       6        0.000089540617    -0.000029288484     0.000006501034
       7        0.000576574155    -0.001255553225    -0.001206208128
       8        0.000030898952    -0.001280288218    -0.000016842292
       9        0.000008908097    -0.000019345944    -0.000021105328
      10        0.000012825083     0.000036430677     0.000004683230
      11        0.000011341828    -0.000011061342    -0.000020954490
      12       -0.000431363168     0.000918816296     0.000821855027
      13       -0.000160040682    -0.000108481855     0.000019209222

  **** Optimization is complete! (in 7 steps) ****
    Final optimized geometry and variables:
    Molecular point group: c1

    Geometry (in Angstrom), charge = 0, multiplicity = 1:

    H           -2.411028482172    -1.231092169145    -0.455157961425
    C           -1.419784199718    -1.253447261546    -0.019052353251
    C           -0.683833767892    -0.002591184740    -0.455861940104
    H           -0.916857556930    -2.147794936943    -0.357201063439
    H           -1.515277834906    -1.301513784944     1.055983301655
    C           -1.320841530562     1.287282488240     0.043771370777
    N            0.748956270511    -0.018760128699     0.012682747223
    H           -0.588076399534     0.023087780435    -1.530973287952
    H           -2.336258532131     1.341678669603    -0.326062930502
    H           -0.776576881836     2.151241081310    -0.305677327732
    H           -1.352574023135     1.302899857195     1.126469691946
    O            1.461212567966     0.806301787882    -0.455692390575
    O            1.075838499387    -0.822045501070     0.817991259428

  Mulliken Charges: (a.u.)
   Center  Symbol    Alpha    Beta     Spin     Total
       1     H     0.45023  0.45023  0.00000  0.09955
       2     C     3.14273  3.14273  0.00000 -0.28546
       3     C     3.00724  3.00724  0.00000 -0.01449
       4     H     0.43846  0.43846  0.00000  0.12307
       5     H     0.44150  0.44150  0.00000  0.11700
       6     C     3.14384  3.14384  0.00000 -0.28767
       7     N     3.27456  3.27456  0.00000  0.45088
       8     H     0.42835  0.42835  0.00000  0.14331
       9     H     0.44910  0.44910  0.00000  0.10180
      10     H     0.43247  0.43247  0.00000  0.13507
      11     H     0.44538  0.44538  0.00000  0.10924
      12     O     4.17619  4.17619  0.00000 -0.35239
      13     O     4.16996  4.16996  0.00000 -0.33992

   Total alpha = 24.00000, Total beta = 24.00000, Total charge = -0.00000

*** Psi4 exiting successfully. Buy a developer a beer!
