  ==> Input File <==

--------------------------------------------------------------------------
set {
	reference rhf
	basis 6-31G*
}

set_num_threads( 1 )
memory 2 gb

molecule MOL {
0 1

O	 3.225979	 0.970355	 -0.599647
C	 2.701189	 0.057885	 -0.047330
C	 1.245376	 -0.013843	 0.345420
O	 3.347903	 -1.046386	 0.304773
C	 0.455112	 1.231400	 -0.050772
H	 0.838542	 -0.913825	 -0.103701
H	 1.208210	 -0.175333	 1.419774
C	 -0.998893	 1.219485	 0.433193
H	 0.482531	 1.345121	 -1.130325
H	 0.957290	 2.103070	 0.354729
C	 -1.795862	 -0.031242	 0.051574
H	 -1.499485	 2.090700	 0.017122
H	 -1.022124	 1.346442	 1.514558
C	 -3.267711	 0.053297	 0.460857
H	 -1.730181	 -0.182611	 -1.024805
H	 -1.353655	 -0.912098	 0.511486
C	 -4.072746	 -1.193262	 0.089182
H	 -3.721513	 0.925628	 -0.006409
H	 -3.333878	 0.215393	 1.535588
C	 -5.542368	 -1.099206	 0.497918
H	 -4.006872	 -1.357286	 -0.984316
H	 -3.623224	 -2.065684	 0.558853
H	 -6.086262	 -1.997131	 0.221299
H	 -6.029866	 -0.255949	 0.016817
H	 -5.643129	 -0.969190	 1.571798
C	 4.728119	 -1.109107	 -0.004993
H	 4.882018	 -1.033965	 -1.071845
H	 5.068212	 -2.067527	 0.355250
H	 5.265056	 -0.311663	 0.488280

	symmetry c1
}
set optking {
	frozen_dihedral = ("
		21 17 14 11,
		17 14 11 15,
		15 11 8 5,
		6 3 5 9,
		2 4 26 27,
		1 2 4 26,
		6 3 2 1
	")
}

ee = energy('scf')
oeprop('DIPOLE', 'QUADRUPOLE', 'MULLIKEN_CHARGES')
f=open( 'psi4out.xyz', 'w' )
f.write( "29  " )
f.write( str(ee) + "\n" )
f.write( MOL.save_string_xyz() )
f.close()
--------------------------------------------------------------------------

    Molecular point group: c1

    Geometry (in Angstrom), charge = 0, multiplicity = 1:

       Center              X                  Y                   Z               Mass
    ------------   -----------------  -----------------  -----------------  -----------------
           O          3.181234096516     1.072043824632    -0.731572488489    15.994914619560
           C          2.656444096516     0.159573824632    -0.179255488489    12.000000000000
           C          1.200631096516     0.087845824632     0.213494511511    12.000000000000
           O          3.303158096516    -0.944697175368     0.172847511511    15.994914619560
           C          0.410367096516     1.333088824632    -0.182697488489    12.000000000000
           H          0.793797096516    -0.812136175368    -0.235626488489     1.007825032070
           H          1.163465096516    -0.073644175368     1.287848511511     1.007825032070
           C         -1.043637903484     1.321173824632     0.301267511511    12.000000000000
           H          0.437786096516     1.446809824632    -1.262250488489     1.007825032070
           H          0.912545096516     2.204758824632     0.222803511511     1.007825032070
           C         -1.840606903484     0.070446824632    -0.080351488489    12.000000000000
           H         -1.544229903484     2.192388824632    -0.114803488489     1.007825032070
           H         -1.066868903484     1.448130824632     1.382632511511     1.007825032070
           C         -3.312455903484     0.154985824632     0.328931511511    12.000000000000
           H         -1.774925903484    -0.080922175368    -1.156730488489     1.007825032070
           H         -1.398399903484    -0.810409175368     0.379560511511     1.007825032070
           C         -4.117490903484    -1.091573175368    -0.042743488489    12.000000000000
           H         -3.766257903484     1.027316824632    -0.138334488489     1.007825032070
           H         -3.378622903484     0.317081824632     1.403662511511     1.007825032070
           C         -5.587112903484    -0.997517175368     0.365992511511    12.000000000000
           H         -4.051616903484    -1.255597175368    -1.116241488489     1.007825032070
           H         -3.667968903484    -1.963995175368     0.426927511511     1.007825032070
           H         -6.131006903484    -1.895442175368     0.089373511511     1.007825032070
           H         -6.074610903484    -0.154260175368    -0.115108488489     1.007825032070
           H         -5.687873903484    -0.867501175368     1.439872511511     1.007825032070
           C          4.683374096516    -1.007418175368    -0.136918488489    12.000000000000
           H          4.837273096516    -0.932276175368    -1.203770488489     1.007825032070
           H          5.023467096516    -1.965838175368     0.223324511511     1.007825032070
           H          5.220311096516    -0.209974175368     0.356354511511     1.007825032070

  Charge       = 0
  Multiplicity = 1
  Basis Set: 6-31G*
  Basis Set:

    Orbital Energies (a.u.)
    -----------------------

    Doubly Occupied:

       1A    -20.603305     2A    -20.545024     3A    -11.371825
       4A    -11.280611     5A    -11.234523     6A    -11.219086
       7A    -11.217622     8A    -11.216256     9A    -11.216044
      10A    -11.214630    11A    -11.209197    12A     -1.468958
      13A     -1.362381    14A     -1.098670    15A     -1.066649
      16A     -1.019169    17A     -0.977064    18A     -0.928831
      19A     -0.862910    20A     -0.799076    21A     -0.790914
      22A     -0.762168    23A     -0.700633    24A     -0.682439
      25A     -0.671766    26A     -0.652464    27A     -0.629233
      28A     -0.604339    29A     -0.594009    30A     -0.580491
      31A     -0.567556    32A     -0.550625    33A     -0.531062
      34A     -0.529624    35A     -0.517451    36A     -0.512973
      37A     -0.495968    38A     -0.478579    39A     -0.469033
      40A     -0.461854    41A     -0.458954    42A     -0.455409
      43A     -0.440552    44A     -0.436146

  @DF-RHF Final Energy:  -501.04332886504631

   => Energetics <=

    Nuclear Repulsion Energy =            612.0574515824835089
    One-Electron Energy =               -1895.2293486071901043
    Two-Electron Energy =                 782.1285681596588120
    DFT Exchange-Correlation Energy =       0.0000000000000000
    Empirical Dispersion Energy =           0.0000000000000000
    PCM Polarization Energy =               0.0000000000000000
    EFP Energy =                            0.0000000000000000
    Total Energy =                       -501.0433288650477834

  Mulliken Charges: (a.u.)
   Center  Symbol    Alpha    Beta     Spin     Total
       1     O     4.28602  4.28602  0.00000 -0.57203
       2     C     2.60437  2.60437  0.00000  0.79126
       3     C     3.21165  3.21165  0.00000 -0.42331
       4     O     4.30746  4.30746  0.00000 -0.61493
       5     C     3.15309  3.15309  0.00000 -0.30618
       6     H     0.39802  0.39802  0.00000  0.20396
       7     H     0.40140  0.40140  0.00000  0.19719
       8     C     3.15564  3.15564  0.00000 -0.31129
       9     H     0.41315  0.41315  0.00000  0.17370
      10     H     0.40871  0.40871  0.00000  0.18258
      11     C     3.15732  3.15732  0.00000 -0.31464
      12     H     0.41832  0.41832  0.00000  0.16337
      13     H     0.42321  0.42321  0.00000  0.15358
      14     C     3.14995  3.14995  0.00000 -0.29990
      15     H     0.42310  0.42310  0.00000  0.15381
      16     H     0.42256  0.42256  0.00000  0.15488
      17     C     3.15146  3.15146  0.00000 -0.30293
      18     H     0.42336  0.42336  0.00000  0.15329
      19     H     0.42384  0.42384  0.00000  0.15233
      20     C     3.23936  3.23936  0.00000 -0.47871
      21     H     0.42292  0.42292  0.00000  0.15416
      22     H     0.42342  0.42342  0.00000  0.15317
      23     H     0.41922  0.41922  0.00000  0.16156
      24     H     0.42153  0.42153  0.00000  0.15694
      25     H     0.42178  0.42178  0.00000  0.15644
      26     C     3.09239  3.09239  0.00000 -0.18478
      27     H     0.40909  0.40909  0.00000  0.18182
      28     H     0.40853  0.40853  0.00000  0.18294
      29     H     0.40914  0.40914  0.00000  0.18173

   Total alpha = 44.00000, Total beta = 44.00000, Total charge = -0.00000
