                              Psi4 1.0.54 Driver

  ==> Input File <==

--------------------------------------------------------------------------
set {
	reference rhf
	basis cc-pvtz
}

set_num_threads( 4 )
memory 2 gb

molecule MOL {
0 1

H	 2.848245	 -0.421459	 0.000186
O	 2.012539	 -0.863422	 0.000222
C	 1.050606	 0.054895	 0.000135
C	 -0.317919	 -0.570494	 0.000144
O	 1.286551	 1.213471	 -0.000040
C	 -1.454652	 0.441648	 -0.000560
H	 -0.371381	 -1.223628	 -0.864985
H	 -0.371688	 -1.222740	 0.865929
C	 -2.822345	 -0.232168	 0.000063
H	 -1.359528	 1.084722	 -0.867077
H	 -1.359409	 1.086014	 0.864983
H	 -2.954120	 -0.858967	 -0.875745
H	 -3.615654	 0.505370	 0.000019
H	 -2.953646	 -0.858341	 0.876394

	symmetry c1
}
ee,wfn = energy('scf', return_wfn=True)
oeprop( wfn, 'DIPOLE', 'QUADRUPOLE', 'MULLIKEN_CHARGES')
oeprop( wfn, 'GRID_ESP')
f=open( 'psi4out.xyz', 'w' )
f.write( "14  " )
f.write( str(ee) + "\n" )
f.write( MOL.save_string_xyz() )
f.close()
--------------------------------------------------------------------------

    Molecular point group: c1

    Geometry (in Angstrom), charge = 0, multiplicity = 1:

       Center              X                  Y                   Z               Mass
    ------------   -----------------  -----------------  -----------------  -----------------
           H          2.848012887088    -0.421477269280     0.000186036816     1.007825032070
           O          2.012306887088    -0.863440269280     0.000222036816    15.994914619560
           C          1.050373887088     0.054876730720     0.000135036816    12.000000000000
           C         -0.318151112912    -0.570512269280     0.000144036816    12.000000000000
           O          1.286318887088     1.213452730720    -0.000039963184    15.994914619560
           C         -1.454884112912     0.441629730720    -0.000559963184    12.000000000000
           H         -0.371613112912    -1.223646269280    -0.864984963184     1.007825032070
           H         -0.371920112912    -1.222758269280     0.865929036816     1.007825032070
           C         -2.822577112912    -0.232186269280     0.000063036816    12.000000000000
           H         -1.359760112912     1.084703730720    -0.867076963184     1.007825032070
           H         -1.359641112912     1.085995730720     0.864983036816     1.007825032070
           H         -2.954352112912    -0.858985269280    -0.875744963184     1.007825032070
           H         -3.615886112912     0.505351730720     0.000019036816     1.007825032070
           H         -2.953878112912    -0.858359269280     0.876394036816     1.007825032070

  Charge       = 0
  Multiplicity = 1
  Basis Set: CC-PVTZ
  Basis Set:

    Orbital Energies (a.u.)
    -----------------------

    Doubly Occupied:

       1A    -20.604481     2A    -20.541046     3A    -11.374009
       4A    -11.239882     5A    -11.223917     6A    -11.215417
       7A     -1.478075     8A     -1.369612     9A     -1.084473
      10A     -0.981014    11A     -0.859291    12A     -0.792987
      13A     -0.704184    14A     -0.691930    15A     -0.670072
      16A     -0.617920    17A     -0.596887    18A     -0.574687
      19A     -0.546032    20A     -0.507073    21A     -0.492312
      22A     -0.485313    23A     -0.482028    24A     -0.447744

  @DF-RHF Final Energy:  -306.00105643735515

   => Energetics <=

    Nuclear Repulsion Energy =            240.4526653673842986
    One-Electron Energy =                -893.7464342503932357
    Two-Electron Energy =                 347.2927124456537058
    DFT Exchange-Correlation Energy =       0.0000000000000000
    Empirical Dispersion Energy =           0.0000000000000000
    PCM Polarization Energy =               0.0000000000000000
    EFP Energy =                            0.0000000000000000
    Total Energy =                       -306.0010564373552597

  Mulliken Charges: (a.u.)
   Center  Symbol    Alpha    Beta     Spin     Total
       1     H     0.38231  0.38231  0.00000  0.23539
       2     O     4.16006  4.16006  0.00000 -0.32012
       3     C     2.80527  2.80527  0.00000  0.38947
       4     C     3.10546  3.10546  0.00000 -0.21092
       5     O     4.19095  4.19095  0.00000 -0.38190
       6     C     3.07933  3.07933  0.00000 -0.15866
       7     H     0.43889  0.43889  0.00000  0.12221
       8     H     0.43891  0.43891  0.00000  0.12219
       9     C     3.15031  3.15031  0.00000 -0.30062
      10     H     0.44622  0.44622  0.00000  0.10756
      11     H     0.44621  0.44621  0.00000  0.10759
      12     H     0.45550  0.45550  0.00000  0.08900
      13     H     0.44509  0.44509  0.00000  0.10982
      14     H     0.45550  0.45550  0.00000  0.08899

   Total alpha = 24.00000, Total beta = 24.00000, Total charge = -0.00000

*** Psi4 exiting successfully. Buy a developer a beer!
