  ==> Input File <==

--------------------------------------------------------------------------
set {
	reference rhf
	basis cc-pvtz
}

set_num_threads( 4 )
memory 2 gb

molecule MOL {
0 1

O	 -0.694481	 1.313155	 -0.204815
C	 -0.862519	 0.151932	 -0.046791
C	 -2.171428	 -0.477048	 0.339095
O	 0.085519	 -0.757083	 -0.192238
H	 -2.467997	 -1.191667	 -0.417688
H	 -2.923379	 0.287970	 0.444097
H	 -2.053854	 -1.015120	 1.270901
C	 1.392036	 -0.330828	 -0.560749
C	 1.379905	 0.457568	 -1.853878
H	 2.038589	 -1.191142	 -0.635881
H	 1.721038	 0.285558	 0.262402
H	 2.378798	 0.821326	 -2.066817
H	 1.060299	 -0.161422	 -2.680973
H	 0.716449	 1.310405	 -1.775851

	symmetry c1
}
set optking {
	frozen_dihedral = ("
		10 8 4 2
	")
}

ee = optimize('scf')
oeprop('DIPOLE', 'QUADRUPOLE', 'MULLIKEN_CHARGES')
f=open( 'psi4out.xyz', 'w' )
f.write( "14  " )
f.write( str(ee) + "\n" )
f.write( MOL.save_string_xyz() )
f.close()
--------------------------------------------------------------------------

    Molecular point group: c1
  Charge       = 0
  Multiplicity = 1
  Basis Set: CC-PVTZ
  Basis Set:
  @DF-RHF Final Energy:  -305.98347001780019
    Total Energy =                       -305.9834700178000162
    Molecular point group: c1
  Basis Set: CC-PVTZ
  Basis Set:
  Basis Set: CC-PVTZ
  Basis Set:
  @DF-RHF Final Energy:  -305.98837903182971
    Total Energy =                       -305.9883790318297088
  Basis Set: CC-PVTZ
  Basis Set:
  Basis Set: CC-PVTZ
  Basis Set:
  @DF-RHF Final Energy:  -305.98740241450832
    Total Energy =                       -305.9874024145081535
  Basis Set: CC-PVTZ
  Basis Set:
  Basis Set: CC-PVTZ
  Basis Set:
  @DF-RHF Final Energy:  -305.98889737684544
    Total Energy =                       -305.9888973768453297
  Basis Set: CC-PVTZ
  Basis Set:
  @DF-RHF Final Energy:  -305.98897847770240
    Total Energy =                       -305.9889784777021191
  @DF-RHF Final Energy:  -305.98898011752249
    Total Energy =                       -305.9889801175226012
  @DF-RHF Final Energy:  -305.98898127464571
    Total Energy =                       -305.9889812746457665
  @DF-RHF Final Energy:  -305.98898008196659
    Total Energy =                       -305.9889800819668153
  @DF-RHF Final Energy:  -305.98898076284013
    Total Energy =                       -305.9889807628401286
  Basis Set: CC-PVTZ
  Basis Set:
  @DF-RHF Final Energy:  -305.98897980077334
    Total Energy =                       -305.9889798007735067
  Basis Set: CC-PVTZ
  Basis Set:
  Basis Set: CC-PVTZ
  Basis Set:
  @DF-RHF Final Energy:  -305.98897655577292
    Total Energy =                       -305.9889765557726946
  Basis Set: CC-PVTZ
  Basis Set:
  Basis Set: CC-PVTZ
  Basis Set:
  @DF-RHF Final Energy:  -305.98898094899334
    Total Energy =                       -305.9889809489934578
  Basis Set: CC-PVTZ
  Basis Set:
  Charge       = 0
  Multiplicity = 1
  Basis Set: CC-PVTZ
  Basis Set:

    Orbital Energies (a.u.)
    -----------------------

    Doubly Occupied:

       1A    -20.594076     2A    -20.532714     3A    -11.367766
       4A    -11.285716     5A    -11.231314     6A    -11.214456
       7A     -1.470004     8A     -1.365721     9A     -1.055470
      10A     -0.998950    11A     -0.887443    12A     -0.759590
      13A     -0.701118    14A     -0.684986    15A     -0.664000
      16A     -0.614551    17A     -0.588255    18A     -0.571284
      19A     -0.555124    20A     -0.531254    21A     -0.515201
      22A     -0.496706    23A     -0.455229    24A     -0.439094

  @DF-RHF Final Energy:  -305.98898107095488

   => Energetics <=

    Nuclear Repulsion Energy =            250.1399070147282373
    One-Electron Energy =                -913.0977315312088649
    Two-Electron Energy =                 356.9688434455262609
    DFT Exchange-Correlation Energy =       0.0000000000000000
    Empirical Dispersion Energy =           0.0000000000000000
    PCM Polarization Energy =               0.0000000000000000
    EFP Energy =                            0.0000000000000000
    Total Energy =                       -305.9889810709543667
    Molecular point group: c1
  Basis Set: CC-PVTZ
  Basis Set:

  -Total Gradient:
     Atom            X                  Y                   Z
    ------   -----------------  -----------------  -----------------
       1        0.000242774639    -0.000125842484     0.000022781990
       2       -0.001424282776    -0.000684891562    -0.004496789151
       3        0.000010935275    -0.000009969427    -0.000094429504
       4        0.001382635973     0.000982333908     0.005609317116
       5        0.000034202106    -0.000000588925     0.000046332627
       6       -0.000003338078     0.000022629128     0.000018736965
       7        0.000023849696     0.000021951205     0.000028793984
       8        0.000690282435     0.000038655267     0.003789676263
       9        0.000153188941     0.000086442946    -0.000151970462
      10       -0.001111313756    -0.000357681470    -0.004834655947
      11        0.000113990392     0.000009259060    -0.000123983301
      12       -0.000097639607     0.000000167849     0.000066659727
      13       -0.000011923006    -0.000010712399     0.000103236556
      14       -0.000003362230     0.000028246905     0.000016293136

  **** Optimization is complete! (in 13 steps) ****
    Final optimized geometry and variables:
    Molecular point group: c1

    Geometry (in Angstrom), charge = 0, multiplicity = 1:

    O           -0.592253275424     1.262642050332     0.377430329123
    C           -0.733669367611     0.087891384634     0.414625610994
    C           -2.037563668219    -0.606231559165     0.690342148651
    O            0.246326857357    -0.779776982087     0.240091771605
    H           -2.300464960830    -1.231947363691    -0.152840601702
    H           -2.808147397213     0.127317487898     0.863173122399
    H           -1.931307768914    -1.248142325514     1.555150921463
    C            1.534698047495    -0.325162191028    -0.159780161346
    C            1.551900618069     0.346904646742    -1.521340078853
    H            2.117394710337    -1.231438839892    -0.221844836014
    H            1.939588370292     0.321662480474     0.605099078479
    H            2.583051125555     0.520172934828    -1.808221563452
    H            1.101963466499    -0.299958167323    -2.265853258470
    H            1.033021215659     1.291818716281    -1.515037844379

  Mulliken Charges: (a.u.)
   Center  Symbol    Alpha    Beta     Spin     Total
       1     O     4.19971  4.19971  0.00000 -0.39942
       2     C     2.80073  2.80073  0.00000  0.39854
       3     C     3.13792  3.13792  0.00000 -0.27583
       4     O     4.15652  4.15652  0.00000 -0.31305
       5     H     0.44661  0.44661  0.00000  0.10679
       6     H     0.43838  0.43838  0.00000  0.12324
       7     H     0.44490  0.44490  0.00000  0.11021
       8     C     2.98222  2.98222  0.00000  0.03555
       9     C     3.15613  3.15613  0.00000 -0.31226
      10     H     0.44544  0.44544  0.00000  0.10913
      11     H     0.45239  0.45239  0.00000  0.09521
      12     H     0.45037  0.45037  0.00000  0.09926
      13     H     0.45374  0.45374  0.00000  0.09252
      14     H     0.43494  0.43494  0.00000  0.13011

   Total alpha = 24.00000, Total beta = 24.00000, Total charge =  0.00000
