  ==> Input File <==

--------------------------------------------------------------------------
set {
	reference rhf
	basis 6-31G*
}

set_num_threads( 4 )
memory 2 gb

molecule MOL {
0 1

H	 2.845955	 -0.323208	 0.022310
C	 1.900140	 0.071967	 -0.330070
C	 0.778463	 -0.508087	 0.517968
H	 1.782469	 -0.206877	 -1.370777
H	 1.922247	 1.149867	 -0.254252
N	 -0.540928	 0.005139	 0.058438
H	 0.716718	 -1.581298	 0.454712
H	 0.859711	 -0.198647	 1.550086
O	 -0.947306	 1.008985	 0.554848
O	 -1.103279	 -0.628480	 -0.782270

	symmetry c1
}
set optking {
	frozen_dihedral = ("
		9 6 3 2
	")
}

ee = optimize('scf')
oeprop('DIPOLE', 'QUADRUPOLE', 'MULLIKEN_CHARGES')
f=open( 'psi4out.xyz', 'w' )
f.write( "10  " )
f.write( str(ee) + "\n" )
f.write( MOL.save_string_xyz() )
f.close()
--------------------------------------------------------------------------

    Molecular point group: c1
  Charge       = 0
  Multiplicity = 1
  Basis Set: 6-31G*
  Basis Set:
  @DF-RHF Final Energy:  -282.70021905215197
    Total Energy =                       -282.7002190521520788
    Molecular point group: c1
  Basis Set: 6-31G*
  Basis Set:
  Basis Set: 6-31G*
  Basis Set:
  @DF-RHF Final Energy:  -282.69505775487289
    Total Energy =                       -282.6950577548727779
  Basis Set: 6-31G*
  Basis Set:
  Basis Set: 6-31G*
  Basis Set:
  @DF-RHF Final Energy:  -282.70032151812507
    Total Energy =                       -282.7003215181251790
  Basis Set: 6-31G*
  Basis Set:
  Basis Set: 6-31G*
  Basis Set:
  @DF-RHF Final Energy:  -282.70043337562095
    Total Energy =                       -282.7004333756210031
  Basis Set: 6-31G*
  Basis Set:
  Basis Set: 6-31G*
  Basis Set:
  @DF-RHF Final Energy:  -282.70044281983587
    Total Energy =                       -282.7004428198359278
  Basis Set: 6-31G*
  Basis Set:
  Charge       = 0
  Multiplicity = 1
  Basis Set: 6-31G*
  Basis Set:

    Orbital Energies (a.u.)
    -----------------------

    Doubly Occupied:

       1A    -20.602090     2A    -20.601802     3A    -15.848408
       4A    -11.303591     5A    -11.254158     6A     -1.632003
       7A     -1.417681     8A     -1.128260     9A     -0.967447
      10A     -0.838316    11A     -0.760211    12A     -0.734947
      13A     -0.725588    14A     -0.659550    15A     -0.590740
      16A     -0.560635    17A     -0.550881    18A     -0.484938
      19A     -0.477808    20A     -0.449488

  @DF-RHF Final Energy:  -282.70044586286269

   => Energetics <=

    Nuclear Repulsion Energy =            186.3064704144530879
    One-Electron Energy =                -754.8367483508163787
    Two-Electron Energy =                 285.8298320735006541
    DFT Exchange-Correlation Energy =       0.0000000000000000
    Empirical Dispersion Energy =           0.0000000000000000
    PCM Polarization Energy =               0.0000000000000000
    EFP Energy =                            0.0000000000000000
    Total Energy =                       -282.7004458628626367
    Molecular point group: c1
  Basis Set: 6-31G*
  Basis Set:

  -Total Gradient:
     Atom            X                  Y                   Z
    ------   -----------------  -----------------  -----------------
       1       -0.000005058050     0.000001781171     0.000006587354
       2       -0.000031545107     0.000017365696     0.000029504859
       3        0.000029074722    -0.000047571636    -0.000052872798
       4       -0.000009035905     0.000000612137     0.000003956155
       5        0.000020278151     0.000013422598    -0.000009448258
       6       -0.000026104316     0.000118507147     0.000052098925
       7       -0.000009677136    -0.000005791939     0.000016667789
       8       -0.000006786571     0.000012376136    -0.000002350256
       9        0.000049833334    -0.000043426216     0.000001219655
      10       -0.000010979116    -0.000067275096    -0.000045363426

  **** Optimization is complete! (in 6 steps) ****
    Final optimized geometry and variables:
    Molecular point group: c1

    Geometry (in Angstrom), charge = 0, multiplicity = 1:

    H            2.835049577350    -0.307857002843     0.023086336914
    C            1.880631696993     0.069278299241    -0.324735892720
    C            0.770111595081    -0.513617857076     0.540303979959
    H            1.751505615670    -0.220712401583    -1.359928860740
    H            1.891742373211     1.150003801993    -0.256875547458
    N           -0.539980007119     0.002999216014     0.064870228656
    H            0.714689588441    -1.586986489490     0.459367792508
    H            0.855518844036    -0.208226626730     1.570311355512
    O           -0.936706256038     1.015975148302     0.553185221732
    O           -1.086375835365    -0.611281520424    -0.799174165041

  Mulliken Charges: (a.u.)
   Center  Symbol    Alpha    Beta     Spin     Total
       1     H     0.40397  0.40397  0.00000  0.19207
       2     C     3.25808  3.25808  0.00000 -0.51615
       3     C     3.08905  3.08905  0.00000 -0.17810
       4     H     0.39717  0.39717  0.00000  0.20566
       5     H     0.39758  0.39758  0.00000  0.20484
       6     N     3.22038  3.22038  0.00000  0.55923
       7     H     0.38741  0.38741  0.00000  0.22517
       8     H     0.38732  0.38732  0.00000  0.22536
       9     O     4.22939  4.22939  0.00000 -0.45878
      10     O     4.22965  4.22965  0.00000 -0.45931

   Total alpha = 20.00000, Total beta = 20.00000, Total charge = -0.00000
