  ==> Input File <==

--------------------------------------------------------------------------
set {
	reference rhf
	basis 6-31G*
}

set_num_threads( 1 )
memory 2 gb

molecule MOL {
0 1

H	 -2.798360	 -0.862255	 -0.071053
N	 -1.863561	 -0.715187	 0.256814
C	 -1.344686	 0.554728	 -0.219830
H	 -1.300452	 -1.461917	 -0.101532
C	 0.081427	 0.741154	 0.254071
H	 -1.362155	 0.656231	 -1.305829
H	 -1.952773	 1.354456	 0.191809
O	 0.874168	 -0.245412	 -0.342030
H	 0.444037	 1.730782	 -0.023037
H	 0.121165	 0.653424	 1.337565
C	 1.515187	 -1.089709	 0.560093
H	 2.093401	 -1.802647	 -0.011820
H	 2.186960	 -0.536813	 1.214317
H	 0.799592	 -1.629462	 1.176860

	symmetry c1
}
set optking {
	frozen_dihedral = ("
		8 5 3 6,
		6 3 2 4,
		5 8 11 13
	")
}

ee = energy('scf')
oeprop('DIPOLE', 'QUADRUPOLE', 'MULLIKEN_CHARGES')
f=open( 'psi4out.xyz', 'w' )
f.write( "14  " )
f.write( str(ee) + "\n" )
f.write( MOL.save_string_xyz() )
f.close()
--------------------------------------------------------------------------

    Molecular point group: c1

    Geometry (in Angstrom), charge = 0, multiplicity = 1:

       Center              X                  Y                   Z               Mass
    ------------   -----------------  -----------------  -----------------  -----------------
           H         -2.653523740116    -0.684029055676    -0.173407231864     1.007825032070
           N         -1.718724740116    -0.536961055676     0.154459768136    14.003074004780
           C         -1.199849740116     0.732953944324    -0.322184231864    12.000000000000
           H         -1.155615740116    -1.283691055676    -0.203886231864     1.007825032070
           C          0.226263259884     0.919379944324     0.151716768136    12.000000000000
           H         -1.217318740116     0.834456944324    -1.408183231864     1.007825032070
           H         -1.807936740116     1.532681944324     0.089454768136     1.007825032070
           O          1.019004259884    -0.067186055676    -0.444384231864    15.994914619560
           H          0.588873259884     1.909007944324    -0.125391231864     1.007825032070
           H          0.266001259884     0.831649944324     1.235210768136     1.007825032070
           C          1.660023259884    -0.911483055676     0.457738768136    12.000000000000
           H          2.238237259884    -1.624421055676    -0.114174231864     1.007825032070
           H          2.331796259884    -0.358587055676     1.111962768136     1.007825032070
           H          0.944428259884    -1.451236055676     1.074505768136     1.007825032070

  Charge       = 0
  Multiplicity = 1
  Basis Set: 6-31G*
  Basis Set:

    Orbital Energies (a.u.)
    -----------------------

    Doubly Occupied:

       1A    -20.554782     2A    -15.532754     3A    -11.265060
       4A    -11.264917     5A    -11.239491     6A     -1.380923
       7A     -1.176383     8A     -0.999442     9A     -0.907416
      10A     -0.815716    11A     -0.689816    12A     -0.669221
      13A     -0.645204    14A     -0.614500    15A     -0.599060
      16A     -0.543070    17A     -0.531302    18A     -0.501446
      19A     -0.473516    20A     -0.413811    21A     -0.381197

  @DF-RHF Final Energy:  -248.12073243363565

   => Energetics <=

    Nuclear Repulsion Energy =            197.4688272899312267
    One-Electron Energy =                -728.7809161396332911
    Two-Electron Energy =                 283.1913564160660144
    DFT Exchange-Correlation Energy =       0.0000000000000000
    Empirical Dispersion Energy =           0.0000000000000000
    PCM Polarization Energy =               0.0000000000000000
    EFP Energy =                            0.0000000000000000
    Total Energy =                       -248.1207324336360216

  Mulliken Charges: (a.u.)
   Center  Symbol    Alpha    Beta     Spin     Total
       1     H     0.33102  0.33102  0.00000  0.33797
       2     N     3.92831  3.92831  0.00000 -0.85662
       3     C     3.06529  3.06529  0.00000 -0.13059
       4     H     0.32640  0.32640  0.00000  0.34720
       5     C     2.99693  2.99693  0.00000  0.00614
       6     H     0.42616  0.42616  0.00000  0.14769
       7     H     0.42280  0.42280  0.00000  0.15440
       8     O     4.30917  4.30917  0.00000 -0.61833
       9     H     0.42181  0.42181  0.00000  0.15639
      10     H     0.42116  0.42116  0.00000  0.15768
      11     C     3.08562  3.08562  0.00000 -0.17124
      12     H     0.41422  0.41422  0.00000  0.17155
      13     H     0.42742  0.42742  0.00000  0.14516
      14     H     0.42370  0.42370  0.00000  0.15260

   Total alpha = 21.00000, Total beta = 21.00000, Total charge =  0.00000
