  ==> Input File <==

--------------------------------------------------------------------------
set {
	reference rhf
	basis cc-pvtz
}

set_num_threads( 4 )
memory 2 gb

molecule MOL {
0 1

H	 2.614283	 2.028610	 0.296620
O	 3.358864	 1.662087	 -0.142800
C	 3.565468	 0.338079	 0.273842
C	 2.533667	 -0.637565	 -0.272227
H	 4.548038	 0.064914	 -0.086598
H	 3.593945	 0.282242	 1.360360
C	 1.114816	 -0.402372	 0.240993
H	 2.544552	 -0.580764	 -1.356576
H	 2.850574	 -1.642962	 -0.005497
C	 0.113298	 -1.420414	 -0.302504
H	 0.796373	 0.598427	 -0.031033
H	 1.113377	 -0.446476	 1.328807
C	 -1.143954	 -1.608006	 0.548603
H	 -0.175482	 -1.133721	 -1.310790
H	 0.612716	 -2.381041	 -0.393310
C	 -2.075111	 -0.398112	 0.601953
H	 -1.699586	 -2.454205	 0.153954
H	 -0.854232	 -1.883628	 1.560160
C	 -3.360649	 -0.667594	 1.379887
H	 -2.327797	 -0.096059	 -0.412139
H	 -1.564002	 0.447204	 1.052743
C	 -4.290937	 0.539487	 1.438302
H	 -3.885202	 -1.504469	 0.927049
H	 -3.109730	 -0.977672	 2.390804
H	 -4.586223	 0.854534	 0.442918
H	 -5.193550	 0.313582	 1.994507
H	 -3.808267	 1.383155	 1.920594

	symmetry c1
}
set optking {
	frozen_dihedral = ("
		14 10 7 4
	")
}

ee = optimize('scf')
oeprop('DIPOLE', 'QUADRUPOLE', 'MULLIKEN_CHARGES')
f=open( 'psi4out.xyz', 'w' )
f.write( "27  " )
f.write( str(ee) + "\n" )
f.write( MOL.save_string_xyz() )
f.close()
--------------------------------------------------------------------------

    Molecular point group: c1
  Charge       = 0
  Multiplicity = 1
  Basis Set: CC-PVTZ
  Basis Set:
  @DF-RHF Final Energy:  -388.42644340442286
    Total Energy =                       -388.4264434044234804
    Molecular point group: c1
  Basis Set: CC-PVTZ
  Basis Set:
  Basis Set: CC-PVTZ
  Basis Set:
  @DF-RHF Final Energy:  -388.42650536983848
    Total Energy =                       -388.4265053698386509
  Basis Set: CC-PVTZ
  Basis Set:
  Basis Set: CC-PVTZ
  Basis Set:
  @DF-RHF Final Energy:  -388.42664720695086
    Total Energy =                       -388.4266472069510883
  Basis Set: CC-PVTZ
  Basis Set:
  Basis Set: CC-PVTZ
  Basis Set:
  @DF-RHF Final Energy:  -388.42666975587099
    Total Energy =                       -388.4266697558713304
  Basis Set: CC-PVTZ
  Basis Set:
  Basis Set: CC-PVTZ
  Basis Set:
  @DF-RHF Final Energy:  -388.42667268312675
    Total Energy =                       -388.4266726831272081
  Basis Set: CC-PVTZ
  Basis Set:
  Charge       = 0
  Multiplicity = 1
  Basis Set: CC-PVTZ
  Basis Set:

    Orbital Energies (a.u.)
    -----------------------

    Doubly Occupied:

       1A    -20.545291     2A    -11.264950     3A    -11.217143
       4A    -11.214622     5A    -11.214085     6A    -11.213455
       7A    -11.213169     8A    -11.212115     9A    -11.207556
      10A     -1.363228    11A     -1.096354    12A     -1.062365
      13A     -1.012750    14A     -0.948919    15A     -0.888891
      16A     -0.820765    17A     -0.802986    18A     -0.777287
      19A     -0.695708    20A     -0.656183    21A     -0.637669
      22A     -0.616242    23A     -0.598150    24A     -0.586302
      25A     -0.580914    26A     -0.552273    27A     -0.543871
      28A     -0.532722    29A     -0.505194    30A     -0.495665
      31A     -0.486387    32A     -0.474741    33A     -0.467776
      34A     -0.460833    35A     -0.453625    36A     -0.442596
      37A     -0.425413

  @DF-RHF Final Energy:  -388.42667320489380

   => Energetics <=

    Nuclear Repulsion Energy =            460.0442876046947163
    One-Electron Energy =               -1438.3655418315781844
    Two-Electron Energy =                 589.8945810219895520
    DFT Exchange-Correlation Energy =       0.0000000000000000
    Empirical Dispersion Energy =           0.0000000000000000
    PCM Polarization Energy =               0.0000000000000000
    EFP Energy =                            0.0000000000000000
    Total Energy =                       -388.4266732048938593
    Molecular point group: c1
  Basis Set: CC-PVTZ
  Basis Set:

  -Total Gradient:
     Atom            X                  Y                   Z
    ------   -----------------  -----------------  -----------------
       1       -0.000013615650     0.000002604812     0.000004603157
       2       -0.000017855729    -0.000003502597     0.000003218068
       3        0.000014245585    -0.000003680575    -0.000034401695
       4        0.000437437109    -0.001378331304     0.001791881979
       5        0.000002948073    -0.000001163456    -0.000000209368
       6       -0.000003947757    -0.000004598957    -0.000004067440
       7       -0.001161303013     0.002238961840    -0.002201977277
       8        0.000012659630     0.000002394748     0.000009376031
       9        0.000001678708    -0.000004133743     0.000006986874
      10        0.003129567759    -0.002512131971    -0.000756961140
      11        0.000011642588     0.000005441800    -0.000015605192
      12       -0.000019718640    -0.000006728779     0.000011949217
      13        0.000009179694    -0.000002908043     0.000037020728
      14       -0.002389384152     0.001648708481     0.001152181837
      15        0.000015428668     0.000022284917    -0.000007437087
      16       -0.000015124575    -0.000015527837    -0.000023811149
      17        0.000004458588    -0.000000224632     0.000005950383
      18       -0.000008658476    -0.000004058315     0.000010224407
      19       -0.000001574260     0.000008274284     0.000005569551
      20       -0.000005226047     0.000008089218    -0.000001304201
      21       -0.000005339952    -0.000003706136     0.000001813866
      22       -0.000001874377     0.000000536221     0.000003979991
      23        0.000004499622     0.000004756641    -0.000002063966
      24        0.000000979608    -0.000002578360     0.000001952823
      25        0.000001166330    -0.000000153729    -0.000000296375
      26       -0.000001480062     0.000000873090     0.000000767532
      27       -0.000000789283     0.000000502391     0.000000658449

  **** Optimization is complete! (in 6 steps) ****
    Final optimized geometry and variables:
    Molecular point group: c1

    Geometry (in Angstrom), charge = 0, multiplicity = 1:

    H            2.508139325864     2.290132010264    -0.170972310221
    O            3.269322959397     1.934684170342    -0.590256212007
    C            3.509634641645     0.629072006426    -0.135760638777
    C            2.512493058300    -0.390624370715    -0.665002589312
    H            4.503467520161     0.375186321327    -0.478976194839
    H            3.528275802074     0.603328452611     0.952159952832
    C            1.084251068708    -0.192284343289    -0.161942898170
    H            2.530037335031    -0.358251897738    -1.750594745629
    H            2.856819957992    -1.379505202529    -0.373202035600
    C            0.103914545922    -1.226215789135    -0.724915639712
    H            0.738594609598     0.805677448258    -0.409851031073
    H            1.088201901318    -0.257988678210     0.924701390953
    C           -1.169761628975    -1.408450041024     0.103584351866
    H           -0.183481189012    -0.934583089990    -1.731725493007
    H            0.603801572615    -2.186251683840    -0.804600073553
    C           -2.060975386808    -0.170713197830     0.183259497119
    H           -1.745013320648    -2.224899582695    -0.324386477495
    H           -0.900792904493    -1.722646553947     1.109517763577
    C           -3.357033503042    -0.413215701552     0.952189806082
    H           -2.300256301705     0.163319561994    -0.824134959714
    H           -1.520557005900     0.645532966033     0.653939454074
    C           -4.246026591230     0.823100918031     1.035673077705
    H           -3.908336555955    -1.221517225194     0.479706799967
    H           -3.119595898184    -0.753998573663     1.956381356756
    H           -4.528375458314     1.169590752719     0.047025678631
    H           -5.156951405269     0.615949732111     1.585503271658
    H           -3.736066912534     1.639159505610     1.536981953125

  Mulliken Charges: (a.u.)
   Center  Symbol    Alpha    Beta     Spin     Total
       1     H     0.39250  0.39250  0.00000  0.21499
       2     O     4.20542  4.20542  0.00000 -0.41085
       3     C     2.98030  2.98030  0.00000  0.03940
       4     C     3.08874  3.08874  0.00000 -0.17748
       5     H     0.44834  0.44834  0.00000  0.10331
       6     H     0.46994  0.46994  0.00000  0.06012
       7     C     3.10529  3.10529  0.00000 -0.21058
       8     H     0.45097  0.45097  0.00000  0.09807
       9     H     0.45529  0.45529  0.00000  0.08942
      10     C     3.09831  3.09831  0.00000 -0.19661
      11     H     0.45482  0.45482  0.00000  0.09036
      12     H     0.45374  0.45374  0.00000  0.09252
      13     C     3.09805  3.09805  0.00000 -0.19610
      14     H     0.45114  0.45114  0.00000  0.09772
      15     H     0.44758  0.44758  0.00000  0.10484
      16     C     3.08695  3.08695  0.00000 -0.17389
      17     H     0.44818  0.44818  0.00000  0.10363
      18     H     0.45410  0.45410  0.00000  0.09180
      19     C     3.08444  3.08444  0.00000 -0.16889
      20     H     0.45448  0.45448  0.00000  0.09104
      21     H     0.45460  0.45460  0.00000  0.09081
      22     C     3.14966  3.14966  0.00000 -0.29933
      23     H     0.45356  0.45356  0.00000  0.09289
      24     H     0.45461  0.45461  0.00000  0.09077
      25     H     0.45496  0.45496  0.00000  0.09008
      26     H     0.44824  0.44824  0.00000  0.10352
      27     H     0.45579  0.45579  0.00000  0.08842

   Total alpha = 37.00000, Total beta = 37.00000, Total charge = -0.00000
