  ==> Input File <==

--------------------------------------------------------------------------
set {
	reference rhf
	basis 6-31G*
}

set_num_threads( 4 )
memory 2 gb

molecule MOL {
0 1

H	 -4.085688	 0.308737	 0.978125
O	 -3.369090	 -0.251683	 0.716742
C	 -2.306886	 0.532354	 0.237577
C	 -1.177863	 -0.397191	 -0.171080
H	 -2.625892	 1.129264	 -0.615794
H	 -1.962084	 1.221818	 1.007052
C	 0.198102	 0.111031	 0.262842
H	 -1.208843	 -0.518759	 -1.250427
H	 -1.368741	 -1.376554	 0.258909
C	 1.331804	 -0.827780	 -0.158768
H	 0.361943	 1.100838	 -0.156218
H	 0.217265	 0.229072	 1.345532
C	 2.723619	 -0.410569	 0.329459
H	 1.342964	 -0.912588	 -1.244120
H	 1.116806	 -1.824343	 0.220779
C	 3.243875	 0.895854	 -0.272975
H	 3.424222	 -1.207124	 0.091250
H	 2.714788	 -0.329854	 1.414619
H	 3.251977	 0.848779	 -1.358681
H	 2.637085	 1.747371	 0.016682
H	 4.259473	 1.094070	 0.055697

	symmetry c1
}
set optking {
	frozen_dihedral = ("
		2 3 4 8
	")
}

ee = optimize('scf')
oeprop('DIPOLE', 'QUADRUPOLE', 'MULLIKEN_CHARGES')
f=open( 'psi4out.xyz', 'w' )
f.write( "21  " )
f.write( str(ee) + "\n" )
f.write( MOL.save_string_xyz() )
f.close()
--------------------------------------------------------------------------

    Molecular point group: c1
  Charge       = 0
  Multiplicity = 1
  Basis Set: 6-31G*
  Basis Set:
  @DF-RHF Final Energy:  -310.20783080105070
    Total Energy =                       -310.2078308010503633
    Molecular point group: c1
  Basis Set: 6-31G*
  Basis Set:
  Basis Set: 6-31G*
  Basis Set:
  @DF-RHF Final Energy:  -310.20817711898934
    Total Energy =                       -310.2081771189895107
  Basis Set: 6-31G*
  Basis Set:
  Basis Set: 6-31G*
  Basis Set:
  @DF-RHF Final Energy:  -310.20827468576545
    Total Energy =                       -310.2082746857652751
  Basis Set: 6-31G*
  Basis Set:
  Basis Set: 6-31G*
  Basis Set:
  @DF-RHF Final Energy:  -310.20827315148580
    Total Energy =                       -310.2082731514860825
  Basis Set: 6-31G*
  Basis Set:
  Basis Set: 6-31G*
  Basis Set:
  @DF-RHF Final Energy:  -310.20827530094516
    Total Energy =                       -310.2082753009449334
  Basis Set: 6-31G*
  Basis Set:
  Basis Set: 6-31G*
  Basis Set:
  @DF-RHF Final Energy:  -310.20827647792828
    Total Energy =                       -310.2082764779282797
  Basis Set: 6-31G*
  Basis Set:
  Charge       = 0
  Multiplicity = 1
  Basis Set: 6-31G*
  Basis Set:

    Orbital Energies (a.u.)
    -----------------------

    Doubly Occupied:

       1A    -20.551449     2A    -11.267301     3A    -11.214579
       4A    -11.214398     5A    -11.212639     6A    -11.210714
       7A    -11.207894     8A     -1.357626     9A     -1.085050
      10A     -1.031394    11A     -0.952975    12A     -0.875492
      13A     -0.807564    14A     -0.778224    15A     -0.698313
      16A     -0.647778    17A     -0.628123    18A     -0.602401
      19A     -0.584824    20A     -0.572257    21A     -0.535211
      22A     -0.522149    23A     -0.508266    24A     -0.485038
      25A     -0.482675    26A     -0.460254    27A     -0.454846
      28A     -0.444349    29A     -0.427943

  @DF-RHF Final Energy:  -310.20827678768961

   => Energetics <=

    Nuclear Repulsion Energy =            312.5505548673193630
    One-Electron Energy =               -1039.8742106103688911
    Two-Electron Energy =                 417.1153789553600859
    DFT Exchange-Correlation Energy =       0.0000000000000000
    Empirical Dispersion Energy =           0.0000000000000000
    PCM Polarization Energy =               0.0000000000000000
    EFP Energy =                            0.0000000000000000
    Total Energy =                       -310.2082767876894991
    Molecular point group: c1
  Basis Set: 6-31G*
  Basis Set:

  -Total Gradient:
     Atom            X                  Y                   Z
    ------   -----------------  -----------------  -----------------
       1        0.000062662633     0.000013917580    -0.000018539764
       2        0.001076190679     0.000082463634     0.002808607113
       3       -0.000966558242     0.000557117984    -0.003665636988
       4       -0.002596076937    -0.003669225156     0.001366470307
       5        0.000056793219     0.000032219001    -0.000015399780
       6        0.000017747820     0.000012729349    -0.000011812762
       7       -0.000013980546    -0.000005420291    -0.000030162850
       8        0.002424467236     0.002981902506    -0.000428221009
       9       -0.000019069190    -0.000011903295    -0.000000232426
      10       -0.000003562892    -0.000011367796    -0.000014384106
      11        0.000012180426     0.000011908158     0.000007539504
      12       -0.000002338924    -0.000017828258    -0.000009153903
      13       -0.000018564585     0.000016925417     0.000013504907
      14        0.000004370854     0.000003364219    -0.000002694415
      15       -0.000017724829     0.000003261057     0.000003129686
      16       -0.000003663837     0.000002645323    -0.000002884957
      17       -0.000017739393    -0.000000872657    -0.000008088596
      18        0.000006624761    -0.000005228506     0.000006878959
      19        0.000002719098    -0.000000416450     0.000001545245
      20       -0.000003910688     0.000002661497    -0.000003560041
      21       -0.000000566670     0.000001146682     0.000003095874

  **** Optimization is complete! (in 7 steps) ****
    Final optimized geometry and variables:
    Molecular point group: c1

    Geometry (in Angstrom), charge = 0, multiplicity = 1:

    H           -4.141481835244     0.386229085498     0.766042094125
    O           -3.415886216376    -0.188876595924     0.568479365341
    C           -2.332025955398     0.569501010578     0.090787666032
    C           -1.198128766753    -0.384039453028    -0.294696194724
    H           -2.631299751826     1.175091502085    -0.761899371992
    H           -1.993640333150     1.253202527907     0.867823183406
    C            0.182089132927     0.132808476127     0.122205887120
    H           -1.194688351148    -0.536023024390    -1.370720887130
    H           -1.393371452848    -1.342633180132     0.172659449535
    C            1.316918021264    -0.795572447484    -0.316396979376
    H            0.333203574799     1.126020239213    -0.295270026798
    H            0.208985238453     0.247965759665     1.204548770833
    C            2.709780258293    -0.378032594985     0.168730352165
    H            1.323287245436    -0.869064597330    -1.402867073909
    H            1.107901101958    -1.797208147850     0.053474467890
    C            3.218970577734     0.939621153048    -0.418520950491
    H            3.413081222271    -1.167338930669    -0.085114931689
    H            2.707350033467    -0.312566459701     1.254867162226
    H            3.221001446239     0.907702872180    -1.504859971415
    H            2.608842919322     1.783347301113    -0.113468319817
    H            4.235327653828     1.139303014043    -0.093076761804

  Mulliken Charges: (a.u.)
   Center  Symbol    Alpha    Beta     Spin     Total
       1     H     0.28195  0.28195  0.00000  0.43609
       2     O     4.37142  4.37142  0.00000 -0.74284
       3     C     2.99350  2.99350  0.00000  0.01299
       4     C     3.16335  3.16335  0.00000 -0.32670
       5     H     0.43070  0.43070  0.00000  0.13861
       6     H     0.43030  0.43030  0.00000  0.13939
       7     C     3.16219  3.16219  0.00000 -0.32437
       8     H     0.41969  0.41969  0.00000  0.16061
       9     H     0.40490  0.40490  0.00000  0.19021
      10     C     3.15283  3.15283  0.00000 -0.30566
      11     H     0.42310  0.42310  0.00000  0.15380
      12     H     0.42159  0.42159  0.00000  0.15683
      13     C     3.15235  3.15235  0.00000 -0.30470
      14     H     0.42422  0.42422  0.00000  0.15157
      15     H     0.42058  0.42058  0.00000  0.15884
      16     C     3.24114  3.24114  0.00000 -0.48228
      17     H     0.42083  0.42083  0.00000  0.15834
      18     H     0.42308  0.42308  0.00000  0.15384
      19     H     0.42243  0.42243  0.00000  0.15515
      20     H     0.42060  0.42060  0.00000  0.15880
      21     H     0.41926  0.41926  0.00000  0.16148

   Total alpha = 29.00000, Total beta = 29.00000, Total charge =  0.00000
