                              Psi4 1.0.54 Driver

  ==> Input File <==

--------------------------------------------------------------------------
set {
	reference rhf
	basis cc-pvtz
}

set_num_threads( 4 )
memory 2 gb

molecule MOL {
0 1

H	 1.390908	 -1.485473	 0.449524
O	 1.583947	 -0.677544	 -0.001533
C	 0.489979	 0.078084	 0.002623
C	 -0.763662	 -0.754014	 0.000816
O	 0.539051	 1.259395	 -0.000088
C	 -2.038001	 0.074705	 -0.000833
H	 -0.712945	 -1.405886	 -0.864342
H	 -0.715137	 -1.405770	 0.866182
H	 -2.087267	 0.710831	 -0.874232
H	 -2.903419	 -0.576199	 -0.001922
H	 -2.089467	 0.710909	 0.872389

	symmetry c1
}
set optking {
	frozen_dihedral = ("
		1 2 3 5
	")
}

ee,wfn = optimize('scf', return_wfn=True)
oeprop( wfn, 'DIPOLE', 'QUADRUPOLE', 'MULLIKEN_CHARGES')
f=open( 'psi4out.xyz', 'w' )
f.write( "11  " )
f.write( str(ee) + "\n" )
f.write( MOL.save_string_xyz() )
f.close()
--------------------------------------------------------------------------

    Molecular point group: c1
  Charge       = 0
  Multiplicity = 1
  Basis Set: CC-PVTZ
  Basis Set:
  @DF-RHF Final Energy:  -266.93964896407817
    Total Energy =                       -266.9396489640781738
    Molecular point group: c1
  Basis Set: CC-PVTZ
  Basis Set:
  Basis Set: CC-PVTZ
  Basis Set:
  @DF-RHF Final Energy:  -265.69842360437212
    Total Energy =                       -265.6984236043721239
  Basis Set: CC-PVTZ
  Basis Set:
  Basis Set: CC-PVTZ
  Basis Set:
  @DF-RHF Final Energy:  -265.84976318146551
    Total Energy =                       -265.8497631814653914
  Basis Set: CC-PVTZ
  Basis Set:
  Basis Set: CC-PVTZ
  Basis Set:
  @DF-RHF Final Energy:  -266.08439606244622
    Total Energy =                       -266.0843960624462170
  Basis Set: CC-PVTZ
  Basis Set:
  @DF-RHF Final Energy:  -266.37722046677067
    Total Energy =                       -266.3772204667707797
  @DF-RHF Final Energy:  -266.57226599484454
    Total Energy =                       -266.5722659948444857
  @DF-RHF Final Energy:  -266.69280333697316
    Total Energy =                       -266.6928033369733271
  @DF-RHF Final Energy:  -266.65815082659481
    Total Energy =                       -266.6581508265949765
  @DF-RHF Final Energy:  -266.80888868650356
    Total Energy =                       -266.8088886865035647
  @DF-RHF Final Energy:  -266.89743912058861
    Total Energy =                       -266.8974391205885581
  @DF-RHF Final Energy:  -266.92515065222267
    Total Energy =                       -266.9251506522226691
  @DF-RHF Final Energy:  -266.94045243302503
    Total Energy =                       -266.9404524330249728
  @DF-RHF Final Energy:  -266.94081546795655
    Total Energy =                       -266.9408154679564404
  @DF-RHF Final Energy:  -266.94089536617520
    Total Energy =                       -266.9408953661750274
  @DF-RHF Final Energy:  -266.94105406885677
    Total Energy =                       -266.9410540688567153
  @DF-RHF Final Energy:  -266.94107668456638
    Total Energy =                       -266.9410766845664398
  @DF-RHF Final Energy:  -266.94108136961972
    Total Energy =                       -266.9410813696197238
  @DF-RHF Final Energy:  -266.94108257230363
    Total Energy =                       -266.9410825723035714
  @DF-RHF Final Energy:  -266.94107777078472
    Total Energy =                       -266.9410777707846592
  Basis Set: CC-PVTZ
  Basis Set:
  @DF-RHF Final Energy:  -266.94108337435443
    Total Energy =                       -266.9410833743542071
  Basis Set: CC-PVTZ
  Basis Set:
  Basis Set: CC-PVTZ
  Basis Set:
  @DF-RHF Final Energy:  -266.94105513733859
    Total Energy =                       -266.9410551373386511
  Basis Set: CC-PVTZ
  Basis Set:
  Basis Set: CC-PVTZ
  Basis Set:
  @DF-RHF Final Energy:  -266.94100416624451
    Total Energy =                       -266.9410041662446247
  Basis Set: CC-PVTZ
  Basis Set:
  Charge       = 0
  Multiplicity = 1
  Basis Set: CC-PVTZ
  Basis Set:

    Orbital Energies (a.u.)
    -----------------------

    Doubly Occupied:

       1A    -20.601260     2A    -20.540817     3A    -11.373908
       4A    -11.252764     5A    -11.223908     6A     -1.470381
       7A     -1.374676     8A     -1.069242     9A     -0.909450
      10A     -0.828833    11A     -0.719576    12A     -0.670976
      13A     -0.661879    14A     -0.616249    15A     -0.590176
      16A     -0.534693    17A     -0.527557    18A     -0.512748
      19A     -0.485303    20A     -0.446563

  @DF-RHF Final Energy:  -266.94108360765381

   => Energetics <=

    Nuclear Repulsion Energy =            179.9437113166418385
    One-Electron Energy =                -720.9476671486390842
    Two-Electron Energy =                 274.0628722243435504
    DFT Exchange-Correlation Energy =       0.0000000000000000
    Empirical Dispersion Energy =           0.0000000000000000
    PCM Polarization Energy =               0.0000000000000000
    EFP Energy =                            0.0000000000000000
    Total Energy =                       -266.9410836076536953
    Molecular point group: c1
  Basis Set: CC-PVTZ
  Basis Set:

  -Total Gradient:
     Atom            X                  Y                   Z
    ------   -----------------  -----------------  -----------------
       1        0.005640103045     0.002068504882     0.000946380690
       2       -0.005249944137    -0.002535098359     0.000079048910
       3       -0.004720436321     0.000611736063    -0.003821777668
       4       -0.000027383754     0.000033467226    -0.000106059970
       5        0.004297631682    -0.000183698634     0.002928523781
       6        0.000003842036     0.000006884390     0.000052426992
       7        0.000014654152    -0.000021796073    -0.000005618398
       8        0.000012385210     0.000006156144    -0.000016259008
       9       -0.000002289234    -0.000006101336    -0.000008843534
      10        0.000031471543     0.000012374249    -0.000052353767
      11       -0.000000034222     0.000007571449     0.000004531973

  **** Optimization is complete! (in 21 steps) ****
    Final optimized geometry and variables:
    Molecular point group: c1

    Geometry (in Angstrom), charge = 0, multiplicity = 1:

    H            0.917353018416    -1.844418095487    -0.635289799407
    O            0.746240361002    -1.081041695602    -1.158782962881
    C            0.267813332583    -0.066357248058    -0.424672059936
    C           -0.536958580319    -0.482881578662     0.785299176318
    O            0.482591486764     1.046028351866    -0.736372772164
    C           -1.043770972825     0.690245258022     1.608491462769
    H           -1.358592661148    -1.096512649618     0.429818505952
    H            0.086132318633    -1.135794893094     1.391963444877
    H           -1.680293416474     1.330688214436     1.013811780232
    H           -1.612376714402     0.331840568982     2.457539763200
    H           -0.222007196100     1.290944607608     1.973695521103

  Mulliken Charges: (a.u.)
   Center  Symbol    Alpha    Beta     Spin     Total
       1     H     0.38800  0.38800  0.00000  0.22401
       2     O     4.15111  4.15111  0.00000 -0.30223
       3     C     2.80621  2.80621  0.00000  0.38759
       4     C     3.11240  3.11240  0.00000 -0.22481
       5     O     4.17099  4.17099  0.00000 -0.34198
       6     C     3.14022  3.14022  0.00000 -0.28043
       7     H     0.43760  0.43760  0.00000  0.12479
       8     H     0.45234  0.45234  0.00000  0.09533
       9     H     0.44440  0.44440  0.00000  0.11119
      10     H     0.45036  0.45036  0.00000  0.09928
      11     H     0.44637  0.44637  0.00000  0.10726

   Total alpha = 20.00000, Total beta = 20.00000, Total charge = -0.00000

*** Psi4 exiting successfully. Buy a developer a beer!
