                              Psi4 1.0.54 Driver

  ==> Input File <==

--------------------------------------------------------------------------
set {
	reference rhf
	basis cc-pvtz
}

set_num_threads( 4 )
memory 2 gb

molecule MOL {
0 1

H	 -2.644180	 -0.653737	 1.272255
C	 -2.092774	 -0.380414	 0.391915
O	 -0.808934	 -0.154049	 0.752536
F	 -2.163230	 -1.351640	 -0.507133
F	 -2.627232	 0.691260	 -0.169301
C	 0.085006	 0.250800	 -0.215074
C	 1.370439	 -0.548013	 -0.012993
Cl	 0.421658	 1.987697	 -0.091007
H	 -0.272219	 0.063284	 -1.212508
F	 1.109318	 -1.829204	 0.045215
F	 1.918002	 -0.194995	 1.125809
F	 2.237259	 -0.340108	 -0.965699

	symmetry c1
}
set optking {
	frozen_dihedral = ("
		10 7 6 9
	")
}

ee,wfn = optimize('scf', return_wfn=True)
oeprop( wfn, 'DIPOLE', 'QUADRUPOLE', 'MULLIKEN_CHARGES')
f=open( 'psi4out.xyz', 'w' )
f.write( "12  " )
f.write( str(ee) + "\n" )
f.write( MOL.save_string_xyz() )
f.close()
--------------------------------------------------------------------------

    Molecular point group: c1
  Charge       = 0
  Multiplicity = 1
  Basis Set: CC-PVTZ
  Basis Set:
  @DF-RHF Final Energy: -1146.61908355360310
    Total Energy =                      -1146.6190835536021950
    Molecular point group: c1
  Basis Set: CC-PVTZ
  Basis Set:
  Basis Set: CC-PVTZ
  Basis Set:
  @DF-RHF Final Energy: -1146.61974367011771
    Total Energy =                      -1146.6197436701181687
  Basis Set: CC-PVTZ
  Basis Set:
  Basis Set: CC-PVTZ
  Basis Set:
  @DF-RHF Final Energy: -1146.61994622920679
    Total Energy =                      -1146.6199462292072440
  Basis Set: CC-PVTZ
  Basis Set:
  Basis Set: CC-PVTZ
  Basis Set:
  @DF-RHF Final Energy: -1146.61996483951179
    Total Energy =                      -1146.6199648395124768
  Basis Set: CC-PVTZ
  Basis Set:
  Basis Set: CC-PVTZ
  Basis Set:
  @DF-RHF Final Energy: -1146.61996629163878
    Total Energy =                      -1146.6199662916396846
  Basis Set: CC-PVTZ
  Basis Set:
  Charge       = 0
  Multiplicity = 1
  Basis Set: CC-PVTZ
  Basis Set:

    Orbital Energies (a.u.)
    -----------------------

    Doubly Occupied:

       1A   -104.855671     2A    -26.355911     3A    -26.353767
       4A    -26.352315     5A    -26.343753     6A    -26.343732
       7A    -20.641900     8A    -11.520373     9A    -11.484595
      10A    -11.401277    11A    -10.581205    12A     -8.047995
      13A     -8.046021    14A     -8.045935    15A     -1.767974
      16A     -1.725388    17A     -1.663422    18A     -1.660746
      19A     -1.645382    20A     -1.488491    21A     -1.177657
      22A     -1.052456    23A     -0.991641    24A     -0.924748
      25A     -0.864948    26A     -0.859375    27A     -0.851938
      28A     -0.830209    29A     -0.819058    30A     -0.794263
      31A     -0.734582    32A     -0.733310    33A     -0.712878
      34A     -0.708625    35A     -0.684929    36A     -0.681708
      37A     -0.665557    38A     -0.664046    39A     -0.649813
      40A     -0.638515    41A     -0.599265    42A     -0.581729
      43A     -0.524916    44A     -0.478012    45A     -0.469073

  @DF-RHF Final Energy: -1146.61996657977033

   => Energetics <=

    Nuclear Repulsion Energy =            738.1004472861195609
    One-Electron Energy =               -3059.4026184797990027
    Two-Electron Energy =                1174.6822046139091071
    DFT Exchange-Correlation Energy =       0.0000000000000000
    Empirical Dispersion Energy =           0.0000000000000000
    PCM Polarization Energy =               0.0000000000000000
    EFP Energy =                            0.0000000000000000
    Total Energy =                      -1146.6199665797703346
    Molecular point group: c1
  Basis Set: CC-PVTZ
  Basis Set:

  -Total Gradient:
     Atom            X                  Y                   Z
    ------   -----------------  -----------------  -----------------
       1        0.000004391298     0.000005002408    -0.000005601671
       2        0.000047269590     0.000043823396    -0.000052893431
       3        0.000031259349    -0.000002720045     0.000014359740
       4       -0.000028513894    -0.000049765956    -0.000003482351
       5        0.000013789332     0.000021432627     0.000024481915
       6       -0.002100944348    -0.002872985276     0.002017839700
       7        0.000682244595     0.000387898605    -0.003352748743
       8       -0.000038851661    -0.000036486360    -0.000010755259
       9        0.001639209472     0.002419683479    -0.001036547882
      10       -0.000248258141     0.000076595285     0.002560446607
      11       -0.000064204449    -0.000025480383    -0.000107341956
      12        0.000062608884     0.000033002308    -0.000047756672

  **** Optimization is complete! (in 6 steps) ****
    Final optimized geometry and variables:
    Molecular point group: c1

    Geometry (in Angstrom), charge = 0, multiplicity = 1:

    H           -2.631122317951    -0.620139228637     1.328791630850
    C           -2.091707520318    -0.360981818955     0.436818852829
    O           -0.800919322904    -0.138540749920     0.774695647009
    F           -2.181993182133    -1.342165967742    -0.449412557881
    F           -2.627407022542     0.707737707249    -0.128780782695
    C            0.077758788194     0.248521781382    -0.210736744940
    C            1.364590771575    -0.559366724992    -0.044025695881
    CL           0.441431408167     1.983649902196    -0.100510439344
    H           -0.294638997899     0.082201060008    -1.206303518063
    F            1.073180195930    -1.837207301248    -0.010642624134
    F            1.998710334808    -0.263985748781     1.058094111021
    F            2.164663326192    -0.346003199873    -1.057969701805

  Mulliken Charges: (a.u.)
   Center  Symbol    Alpha    Beta     Spin     Total
       1     H     0.45189  0.45189  0.00000  0.09622
       2     C     2.73974  2.73974  0.00000  0.52053
       3     O     4.15578  4.15578  0.00000 -0.31155
       4     F     4.61774  4.61774  0.00000 -0.23549
       5     F     4.61504  4.61504  0.00000 -0.23007
       6     C     2.93739  2.93739  0.00000  0.12521
       7     C     2.66871  2.66871  0.00000  0.66258
       8    CL     8.57502  8.57502  0.00000 -0.15004
       9     H     0.43111  0.43111  0.00000  0.13778
      10     F     4.60367  4.60367  0.00000 -0.20734
      11     F     4.60069  4.60069  0.00000 -0.20137
      12     F     4.60323  4.60323  0.00000 -0.20647

   Total alpha = 45.00000, Total beta = 45.00000, Total charge = -0.00000

*** Psi4 exiting successfully. Buy a developer a beer!
