  ==> Input File <==

--------------------------------------------------------------------------
set {
	reference rhf
	basis 6-31G*
}

set_num_threads( 1 )
memory 2 gb

molecule MOL {
0 1

H	 -2.837480	 -0.343631	 0.052191
N	 -1.886602	 -0.194313	 0.328794
C	 -1.245137	 0.778644	 -0.537798
H	 -1.412123	 -1.073112	 0.253353
C	 0.201022	 0.962092	 -0.127792
H	 -1.271408	 0.509797	 -1.594696
H	 -1.757771	 1.729725	 -0.430868
O	 0.874168	 -0.245412	 -0.342030
H	 0.661110	 1.756474	 -0.715085
H	 0.250844	 1.240631	 0.922526
C	 2.202317	 -0.244239	 0.074611
H	 2.711377	 -1.041390	 -0.449894
H	 2.692099	 0.699270	 -0.159667
H	 2.283185	 -0.418429	 1.145558

	symmetry c1
}
set optking {
	frozen_dihedral = ("
		8 5 3 6,
		6 3 2 4,
		11 8 5 3
	")
}

ee = energy('scf')
oeprop('DIPOLE', 'QUADRUPOLE', 'MULLIKEN_CHARGES')
f=open( 'psi4out.xyz', 'w' )
f.write( "14  " )
f.write( str(ee) + "\n" )
f.write( MOL.save_string_xyz() )
f.close()
--------------------------------------------------------------------------

    Molecular point group: c1

    Geometry (in Angstrom), charge = 0, multiplicity = 1:

       Center              X                  Y                   Z               Mass
    ------------   -----------------  -----------------  -----------------  -----------------
           H         -2.874680730501    -0.535388282970     0.171316811408     1.007825032070
           N         -1.923802730501    -0.386070282970     0.447919811408    14.003074004780
           C         -1.282337730501     0.586886717030    -0.418672188592    12.000000000000
           H         -1.449323730501    -1.264869282970     0.372478811408     1.007825032070
           C          0.163821269499     0.770334717030    -0.008666188592    12.000000000000
           H         -1.308608730501     0.318039717030    -1.475570188592     1.007825032070
           H         -1.794971730501     1.537967717030    -0.311742188592     1.007825032070
           O          0.836967269499    -0.437169282970    -0.222904188592    15.994914619560
           H          0.623909269499     1.564716717030    -0.595959188592     1.007825032070
           H          0.213643269499     1.048873717030     1.041651811408     1.007825032070
           C          2.165116269499    -0.435996282970     0.193736811408    12.000000000000
           H          2.674176269499    -1.233147282970    -0.330768188592     1.007825032070
           H          2.654898269499     0.507512717030    -0.040541188592     1.007825032070
           H          2.245984269499    -0.610186282970     1.264683811408     1.007825032070

  Charge       = 0
  Multiplicity = 1
  Basis Set: 6-31G*
  Basis Set:

    Orbital Energies (a.u.)
    -----------------------

    Doubly Occupied:

       1A    -20.556652     2A    -15.528393     3A    -11.265957
       4A    -11.265788     5A    -11.240722     6A     -1.381144
       7A     -1.173579     8A     -0.998869     9A     -0.907165
      10A     -0.815447    11A     -0.683975    12A     -0.673226
      13A     -0.644836    14A     -0.610105    15A     -0.605116
      16A     -0.540653    17A     -0.531514    18A     -0.496096
      19A     -0.473365    20A     -0.416046    21A     -0.380082

  @DF-RHF Final Energy:  -248.12420191802468

   => Energetics <=

    Nuclear Repulsion Energy =            194.6809137742419296
    One-Electron Energy =                -723.2327316075032968
    Two-Electron Energy =                 280.4276159152362879
    DFT Exchange-Correlation Energy =       0.0000000000000000
    Empirical Dispersion Energy =           0.0000000000000000
    PCM Polarization Energy =               0.0000000000000000
    EFP Energy =                            0.0000000000000000
    Total Energy =                       -248.1242019180250509

  Mulliken Charges: (a.u.)
   Center  Symbol    Alpha    Beta     Spin     Total
       1     H     0.33286  0.33286  0.00000  0.33429
       2     N     3.92524  3.92524  0.00000 -0.85049
       3     C     3.06893  3.06893  0.00000 -0.13786
       4     H     0.32370  0.32370  0.00000  0.35260
       5     C     2.99069  2.99069  0.00000  0.01863
       6     H     0.42665  0.42665  0.00000  0.14669
       7     H     0.42049  0.42049  0.00000  0.15902
       8     O     4.31013  4.31013  0.00000 -0.62027
       9     H     0.43048  0.43048  0.00000  0.13905
      10     H     0.42273  0.42273  0.00000  0.15453
      11     C     3.07819  3.07819  0.00000 -0.15638
      12     H     0.41385  0.41385  0.00000  0.17231
      13     H     0.43062  0.43062  0.00000  0.13877
      14     H     0.42544  0.42544  0.00000  0.14913

   Total alpha = 21.00000, Total beta = 21.00000, Total charge = -0.00000
