  ==> Input File <==

--------------------------------------------------------------------------
set {
	reference rhf
	basis 6-31G*
}

set_num_threads( 1 )
memory 2 gb

molecule MOL {
0 1

O	 0.749854	 1.307668	 -0.000040
C	 0.576249	 0.131685	 -0.000108
C	 -0.766779	 -0.556801	 -0.000461
O	 1.568443	 -0.749345	 -0.000005
C	 -1.945214	 0.412366	 0.000161
H	 -0.796911	 -1.211249	 -0.867467
H	 -0.796854	 -1.212390	 0.865687
C	 -3.287791	 -0.317055	 0.000105
H	 -1.876087	 1.060580	 -0.866812
H	 -1.875822	 1.059691	 0.867761
H	 -3.394745	 -0.949193	 -0.877058
H	 -4.111778	 0.388953	 0.000015
H	 -3.394954	 -0.949187	 0.877259
C	 2.836234	 -0.289456	 0.431752
H	 3.185811	 0.512343	 -0.202643
H	 3.498014	 -1.138464	 0.360345
H	 2.785844	 0.061380	 1.452480

	symmetry c1
}
set optking {
	frozen_dihedral = ("
		1 2 3 6,
		9 5 3 6
	")
}

ee = energy('scf')
oeprop('DIPOLE', 'QUADRUPOLE', 'MULLIKEN_CHARGES')
f=open( 'psi4out.xyz', 'w' )
f.write( "17  " )
f.write( str(ee) + "\n" )
f.write( MOL.save_string_xyz() )
f.close()
--------------------------------------------------------------------------

    Molecular point group: c1

    Geometry (in Angstrom), charge = 0, multiplicity = 1:

       Center              X                  Y                   Z               Mass
    ------------   -----------------  -----------------  -----------------  -----------------
           O          0.757664134566     1.316455699192    -0.066650738358    15.994914619560
           C          0.584059134566     0.140472699192    -0.066718738358    12.000000000000
           C         -0.758968865434    -0.548013300808    -0.067071738358    12.000000000000
           O          1.576253134566    -0.740557300808    -0.066615738358    15.994914619560
           C         -1.937403865434     0.421153699192    -0.066449738358    12.000000000000
           H         -0.789100865434    -1.202461300808    -0.934077738358     1.007825032070
           H         -0.789043865434    -1.203602300808     0.799076261642     1.007825032070
           C         -3.279980865434    -0.308267300808    -0.066505738358    12.000000000000
           H         -1.868276865434     1.069367699192    -0.933422738358     1.007825032070
           H         -1.868011865434     1.068478699192     0.801150261642     1.007825032070
           H         -3.386934865434    -0.940405300808    -0.943668738358     1.007825032070
           H         -4.103967865434     0.397740699192    -0.066595738358     1.007825032070
           H         -3.387143865434    -0.940399300808     0.810648261642     1.007825032070
           C          2.844044134566    -0.280668300808     0.365141261642    12.000000000000
           H          3.193621134566     0.521130699192    -0.269253738358     1.007825032070
           H          3.505824134566    -1.129676300808     0.293734261642     1.007825032070
           H          2.793654134566     0.070167699192     1.385869261642     1.007825032070

  Charge       = 0
  Multiplicity = 1
  Basis Set: 6-31G*
  Basis Set:

    Orbital Energies (a.u.)
    -----------------------

    Doubly Occupied:

       1A    -20.601855     2A    -20.546667     3A    -11.372917
       4A    -11.282167     5A    -11.236130     6A    -11.221953
       7A    -11.214643     8A     -1.469099     9A     -1.363426
      10A     -1.080539    11A     -1.001112    12A     -0.940671
      13A     -0.827674    14A     -0.767427    15A     -0.700405
      16A     -0.682876    17A     -0.672347    18A     -0.636853
      19A     -0.597306    20A     -0.575038    21A     -0.568684
      22A     -0.529204    23A     -0.520987    24A     -0.498422
      25A     -0.487434    26A     -0.478925    27A     -0.455672
      28A     -0.437257

  @DF-RHF Final Energy:  -344.90435362374615

   => Energetics <=

    Nuclear Repulsion Energy =            312.4926880564968315
    One-Electron Energy =               -1089.2585049922720373
    Two-Electron Energy =                 431.8614633120278086
    DFT Exchange-Correlation Energy =       0.0000000000000000
    Empirical Dispersion Energy =           0.0000000000000000
    PCM Polarization Energy =               0.0000000000000000
    EFP Energy =                            0.0000000000000000
    Total Energy =                       -344.9043536237473973

  Mulliken Charges: (a.u.)
   Center  Symbol    Alpha    Beta     Spin     Total
       1     O     4.28353  4.28353  0.00000 -0.56706
       2     C     2.60580  2.60580  0.00000  0.78839
       3     C     3.20664  3.20664  0.00000 -0.41328
       4     O     4.30760  4.30760  0.00000 -0.61519
       5     C     3.15211  3.15211  0.00000 -0.30422
       6     H     0.40023  0.40023  0.00000  0.19954
       7     H     0.40210  0.40210  0.00000  0.19579
       8     C     3.24273  3.24273  0.00000 -0.48546
       9     H     0.41054  0.41054  0.00000  0.17893
      10     H     0.41131  0.41131  0.00000  0.17738
      11     H     0.42117  0.42117  0.00000  0.15766
      12     H     0.41513  0.41513  0.00000  0.16975
      13     H     0.42159  0.42159  0.00000  0.15682
      14     C     3.09361  3.09361  0.00000 -0.18723
      15     H     0.40468  0.40468  0.00000  0.19065
      16     H     0.40786  0.40786  0.00000  0.18427
      17     H     0.41338  0.41338  0.00000  0.17325

   Total alpha = 28.00000, Total beta = 28.00000, Total charge =  0.00000
