  ==> Input File <==

--------------------------------------------------------------------------
set {
	reference rhf
	basis 6-31G*
}

set_num_threads( 1 )
memory 2 gb

molecule MOL {
0 1

H	 3.089270	 -1.380733	 0.000000
O	 2.178328	 -1.639175	 0.000000
C	 1.368216	 -0.558384	 0.000000
C	 0.921880	 0.037086	 1.172819
C	 0.983515	 -0.045144	 -1.226385
H	 1.222442	 -0.363902	 2.126185
C	 0.091952	 1.144313	 1.118618
H	 1.327557	 -0.504139	 -2.133046
C	 0.152448	 1.063603	 -1.271823
H	 -0.247020	 1.596545	 2.032927
C	 -0.297502	 1.663894	 -0.102650
C	 -0.264684	 1.620110	 -2.586042
H	 -0.942091	 2.523857	 -0.147081
O	 0.065513	 1.179585	 -3.640297
H	 -0.920061	 2.494465	 -2.529189

	symmetry c1
}
set optking {
	frozen_dihedral = ("
		11 9 12 14
	")
}

ee = energy('scf')
oeprop('DIPOLE', 'QUADRUPOLE', 'MULLIKEN_CHARGES')
f=open( 'psi4out.xyz', 'w' )
f.write( "15  " )
f.write( str(ee) + "\n" )
f.write( MOL.save_string_xyz() )
f.close()
--------------------------------------------------------------------------

    Molecular point group: c1

    Geometry (in Angstrom), charge = 0, multiplicity = 1:

       Center              X                  Y                   Z               Mass
    ------------   -----------------  -----------------  -----------------  -----------------
           H          2.475375847056    -1.840880270924     0.767203854511     1.007825032070
           O          1.564433847056    -2.099322270924     0.767203854511    15.994914619560
           C          0.754321847056    -1.018531270924     0.767203854511    12.000000000000
           C          0.307985847056    -0.423061270924     1.940022854511    12.000000000000
           C          0.369620847056    -0.505291270924    -0.459181145489    12.000000000000
           H          0.608547847056    -0.824049270924     2.893388854511     1.007825032070
           C         -0.521942152944     0.684165729076     1.885821854511    12.000000000000
           H          0.713662847056    -0.964286270924    -1.365842145489     1.007825032070
           C         -0.461446152944     0.603455729076    -0.504619145489    12.000000000000
           H         -0.860914152944     1.136397729076     2.800130854511     1.007825032070
           C         -0.911396152944     1.203746729076     0.664553854511    12.000000000000
           C         -0.878578152944     1.159962729076    -1.818838145489    12.000000000000
           H         -1.555985152944     2.063709729076     0.620122854511     1.007825032070
           O         -0.548381152944     0.719437729076    -2.873093145489    15.994914619560
           H         -1.533955152944     2.034317729076    -1.761985145489     1.007825032070

  Charge       = 0
  Multiplicity = 1
  Basis Set: 6-31G*
  Basis Set:

    Orbital Energies (a.u.)
    -----------------------

    Doubly Occupied:

       1A    -20.587229     2A    -20.564574     3A    -11.333059
       4A    -11.302973     5A    -11.252482     6A    -11.250471
       7A    -11.250011     8A    -11.248996     9A    -11.242237
      10A     -1.411088    11A     -1.405566    12A     -1.169347
      13A     -1.048174    14A     -1.025143    15A     -0.896520
      16A     -0.847298    17A     -0.801691    18A     -0.743907
      19A     -0.698661    20A     -0.680406    21A     -0.651397
      22A     -0.634551    23A     -0.619308    24A     -0.606901
      25A     -0.555410    26A     -0.545756    27A     -0.531604
      28A     -0.496025    29A     -0.485580    30A     -0.422587
      31A     -0.351771    32A     -0.340459

  @DF-RHF Final Energy:  -418.28181696134476

   => Energetics <=

    Nuclear Repulsion Energy =            403.2177931757640295
    One-Electron Energy =               -1368.9967951211669970
    Two-Electron Energy =                 547.4971849840575260
    DFT Exchange-Correlation Energy =       0.0000000000000000
    Empirical Dispersion Energy =           0.0000000000000000
    PCM Polarization Energy =               0.0000000000000000
    EFP Energy =                            0.0000000000000000
    Total Energy =                       -418.2818169613454984

  Mulliken Charges: (a.u.)
   Center  Symbol    Alpha    Beta     Spin     Total
       1     H     0.26827  0.26827  0.00000  0.46346
       2     O     4.38484  4.38484  0.00000 -0.76968
       3     C     2.81804  2.81804  0.00000  0.36392
       4     C     3.11056  3.11056  0.00000 -0.22112
       5     C     3.10962  3.10962  0.00000 -0.21923
       6     H     0.38921  0.38921  0.00000  0.22158
       7     C     3.10170  3.10170  0.00000 -0.20339
       8     H     0.37283  0.37283  0.00000  0.25435
       9     C     3.05180  3.05180  0.00000 -0.10359
      10     H     0.39308  0.39308  0.00000  0.21384
      11     C     3.10725  3.10725  0.00000 -0.21450
      12     C     2.83205  2.83205  0.00000  0.33590
      13     H     0.39175  0.39175  0.00000  0.21651
      14     O     4.24667  4.24667  0.00000 -0.49335
      15     H     0.42235  0.42235  0.00000  0.15530

   Total alpha = 32.00000, Total beta = 32.00000, Total charge = -0.00000
