  ==> Input File <==

--------------------------------------------------------------------------
set {
	reference rhf
	basis 6-31G*
}

set_num_threads( 1 )
memory 2 gb

molecule MOL {
0 1

O	 3.225979	 0.970355	 -0.599647
C	 2.701189	 0.057885	 -0.047330
C	 1.245376	 -0.013843	 0.345420
O	 3.347903	 -1.046386	 0.304773
C	 0.455112	 1.231400	 -0.050772
H	 0.838542	 -0.913825	 -0.103701
H	 1.208210	 -0.175333	 1.419774
C	 -0.998893	 1.219485	 0.433193
H	 0.482531	 1.345121	 -1.130325
H	 0.957290	 2.103070	 0.354729
C	 -1.883438	 0.145884	 -0.207175
H	 -1.431207	 2.195402	 0.224832
H	 -1.019646	 1.105716	 1.516076
C	 -3.347647	 0.245583	 0.225435
H	 -1.822183	 0.231698	 -1.291012
H	 -1.510341	 -0.844814	 0.042401
C	 -3.778665	 -0.878419	 1.169350
H	 -3.984949	 0.236679	 -0.657176
H	 -3.515002	 1.205576	 0.711340
C	 -5.243168	 -0.773684	 1.593571
H	 -3.611162	 -1.838476	 0.685745
H	 -3.145603	 -0.868403	 2.054173
H	 -5.518436	 -1.583746	 2.261877
H	 -5.904611	 -0.815931	 0.732813
H	 -5.435490	 0.161904	 2.111220
C	 4.728119	 -1.109107	 -0.004993
H	 4.882018	 -1.033965	 -1.071845
H	 5.068212	 -2.067527	 0.355250
H	 5.265056	 -0.311663	 0.488280

	symmetry c1
}
set optking {
	frozen_dihedral = ("
		21 17 14 11,
		15 11 8 5,
		6 3 5 9,
		11 8 5 9,
		2 4 26 27,
		1 2 4 26,
		6 3 2 1
	")
}

ee = energy('scf')
oeprop('DIPOLE', 'QUADRUPOLE', 'MULLIKEN_CHARGES')
f=open( 'psi4out.xyz', 'w' )
f.write( "29  " )
f.write( str(ee) + "\n" )
f.write( MOL.save_string_xyz() )
f.close()
--------------------------------------------------------------------------

    Molecular point group: c1

    Geometry (in Angstrom), charge = 0, multiplicity = 1:

       Center              X                  Y                   Z               Mass
    ------------   -----------------  -----------------  -----------------  -----------------
           O          3.141584624361     0.980454492146    -0.887614314171    15.994914619560
           C          2.616794624361     0.067984492146    -0.335297314171    12.000000000000
           C          1.160981624361    -0.003743507854     0.057452685829    12.000000000000
           O          3.263508624361    -1.036286507854     0.016805685829    15.994914619560
           C          0.370717624361     1.241499492146    -0.338739314171    12.000000000000
           H          0.754147624361    -0.903725507854    -0.391668314171     1.007825032070
           H          1.123815624361    -0.165233507854     1.131806685829     1.007825032070
           C         -1.083287375639     1.229584492146     0.145225685829    12.000000000000
           H          0.398136624361     1.355220492146    -1.418292314171     1.007825032070
           H          0.872895624361     2.113169492146     0.066761685829     1.007825032070
           C         -1.967832375639     0.155983492146    -0.495142314171    12.000000000000
           H         -1.515601375639     2.205501492146    -0.063135314171     1.007825032070
           H         -1.104040375639     1.115815492146     1.228108685829     1.007825032070
           C         -3.432041375639     0.255682492146    -0.062532314171    12.000000000000
           H         -1.906577375639     0.241797492146    -1.578979314171     1.007825032070
           H         -1.594735375639    -0.834714507854    -0.245566314171     1.007825032070
           C         -3.863059375639    -0.868319507854     0.881382685829    12.000000000000
           H         -4.069343375639     0.246778492146    -0.945143314171     1.007825032070
           H         -3.599396375639     1.215675492146     0.423372685829     1.007825032070
           C         -5.327562375639    -0.763584507854     1.305603685829    12.000000000000
           H         -3.695556375639    -1.828376507854     0.397777685829     1.007825032070
           H         -3.229997375639    -0.858303507854     1.766205685829     1.007825032070
           H         -5.602830375639    -1.573646507854     1.973909685829     1.007825032070
           H         -5.989005375639    -0.805831507854     0.444845685829     1.007825032070
           H         -5.519884375639     0.172003492146     1.823252685829     1.007825032070
           C          4.643724624361    -1.099007507854    -0.292960314171    12.000000000000
           H          4.797623624361    -1.023865507854    -1.359812314171     1.007825032070
           H          4.983817624361    -2.057427507854     0.067282685829     1.007825032070
           H          5.180661624361    -0.301563507854     0.200312685829     1.007825032070

  Charge       = 0
  Multiplicity = 1
  Basis Set: 6-31G*
  Basis Set:

    Orbital Energies (a.u.)
    -----------------------

    Doubly Occupied:

       1A    -20.603300     2A    -20.545117     3A    -11.371907
       4A    -11.280607     5A    -11.234637     6A    -11.218726
       7A    -11.217857     8A    -11.216396     9A    -11.214494
      10A    -11.212932    11A    -11.208832    12A     -1.468992
      13A     -1.362430    14A     -1.098408    15A     -1.066613
      16A     -1.018835    17A     -0.977117    18A     -0.928495
      19A     -0.861212    20A     -0.805553    21A     -0.787065
      22A     -0.763727    23A     -0.700341    24A     -0.682235
      25A     -0.671872    26A     -0.635127    27A     -0.634265
      28A     -0.612561    29A     -0.595716    30A     -0.580297
      31A     -0.562490    32A     -0.556699    33A     -0.538790
      34A     -0.525364    35A     -0.516039    36A     -0.509259
      37A     -0.495467    38A     -0.478892    39A     -0.474382
      40A     -0.460837    41A     -0.456287    42A     -0.449006
      43A     -0.442305    44A     -0.435408

  @DF-RHF Final Energy:  -501.03880134496205

   => Energetics <=

    Nuclear Repulsion Energy =            613.8997138459789085
    One-Electron Energy =               -1898.9230539442737609
    Two-Electron Energy =                 783.9845387533327994
    DFT Exchange-Correlation Energy =       0.0000000000000000
    Empirical Dispersion Energy =           0.0000000000000000
    PCM Polarization Energy =               0.0000000000000000
    EFP Energy =                            0.0000000000000000
    Total Energy =                       -501.0388013449619393

  Mulliken Charges: (a.u.)
   Center  Symbol    Alpha    Beta     Spin     Total
       1     O     4.28597  4.28597  0.00000 -0.57194
       2     C     2.60484  2.60484  0.00000  0.79032
       3     C     3.20962  3.20962  0.00000 -0.41924
       4     O     4.30746  4.30746  0.00000 -0.61492
       5     C     3.15418  3.15418  0.00000 -0.30836
       6     H     0.39879  0.39879  0.00000  0.20241
       7     H     0.40135  0.40135  0.00000  0.19731
       8     C     3.15877  3.15877  0.00000 -0.31755
       9     H     0.41305  0.41305  0.00000  0.17390
      10     H     0.40893  0.40893  0.00000  0.18214
      11     C     3.15817  3.15817  0.00000 -0.31634
      12     H     0.41751  0.41751  0.00000  0.16497
      13     H     0.42380  0.42380  0.00000  0.15241
      14     C     3.15312  3.15312  0.00000 -0.30624
      15     H     0.42023  0.42023  0.00000  0.15955
      16     H     0.42097  0.42097  0.00000  0.15805
      17     C     3.15350  3.15350  0.00000 -0.30699
      18     H     0.42081  0.42081  0.00000  0.15839
      19     H     0.42114  0.42114  0.00000  0.15771
      20     C     3.23984  3.23984  0.00000 -0.47968
      21     H     0.42263  0.42263  0.00000  0.15474
      22     H     0.42358  0.42358  0.00000  0.15284
      23     H     0.41948  0.41948  0.00000  0.16103
      24     H     0.42152  0.42152  0.00000  0.15697
      25     H     0.42158  0.42158  0.00000  0.15685
      26     C     3.09240  3.09240  0.00000 -0.18481
      27     H     0.40909  0.40909  0.00000  0.18182
      28     H     0.40853  0.40853  0.00000  0.18294
      29     H     0.40914  0.40914  0.00000  0.18173

   Total alpha = 44.00000, Total beta = 44.00000, Total charge = -0.00000
