  ==> Input File <==

--------------------------------------------------------------------------
set {
	reference rhf
	basis 6-31G*
}

set_num_threads( 4 )
memory 2 gb

molecule MOL {
0 1

O	 -2.042549	 -1.228399	 -0.269030
C	 -1.653912	 -0.146171	 0.050137
C	 -0.332303	 0.024011	 0.778412
C	 -2.438579	 1.106236	 -0.272369
C	 0.845713	 -0.001731	 -0.208243
H	 -0.323783	 0.953829	 1.340327
H	 -0.235459	 -0.796807	 1.480410
C	 2.200309	 0.136118	 0.488247
H	 0.733710	 0.800019	 -0.936072
H	 0.811185	 -0.933796	 -0.764304
C	 2.442277	 -0.953986	 1.531478
H	 2.993804	 0.108100	 -0.255397
H	 2.260206	 1.112141	 0.964021
H	 2.422193	 -1.941597	 1.079513
H	 1.682038	 -0.929771	 2.306652
H	 3.408069	 -0.829439	 2.010812
H	 -3.277823	 0.863061	 -0.908988
H	 -1.806773	 1.843019	 -0.759671
H	 -2.802853	 1.554979	 0.648059

	symmetry c1
}
set optking {
	frozen_dihedral = ("
		11 8 5 9
	")
}

ee = optimize('scf')
oeprop('DIPOLE', 'QUADRUPOLE', 'MULLIKEN_CHARGES')
f=open( 'psi4out.xyz', 'w' )
f.write( "19  " )
f.write( str(ee) + "\n" )
f.write( MOL.save_string_xyz() )
f.close()
--------------------------------------------------------------------------

    Molecular point group: c1
  Charge       = 0
  Multiplicity = 1
  Basis Set: 6-31G*
  Basis Set:
  @DF-RHF Final Energy:  -309.06250043404685
    Total Energy =                       -309.0625004340467967
    Molecular point group: c1
  Basis Set: 6-31G*
  Basis Set:
  Basis Set: 6-31G*
  Basis Set:
  @DF-RHF Final Energy:  -309.06298468682962
    Total Energy =                       -309.0629846868292816
  Basis Set: 6-31G*
  Basis Set:
  Basis Set: 6-31G*
  Basis Set:
  @DF-RHF Final Energy:  -309.06342826083073
    Total Energy =                       -309.0634282608305057
  Basis Set: 6-31G*
  Basis Set:
  Basis Set: 6-31G*
  Basis Set:
  @DF-RHF Final Energy:  -309.06283562079079
    Total Energy =                       -309.0628356207907927
  Basis Set: 6-31G*
  Basis Set:
  @DF-RHF Final Energy:  -309.06321781740098
    Total Energy =                       -309.0632178174009823
  Basis Set: 6-31G*
  Basis Set:
  @DF-RHF Final Energy:  -309.06343955546021
    Total Energy =                       -309.0634395554604339
  Basis Set: 6-31G*
  Basis Set:
  Basis Set: 6-31G*
  Basis Set:
  @DF-RHF Final Energy:  -309.06342091679016
    Total Energy =                       -309.0634209167902213
  Basis Set: 6-31G*
  Basis Set:
  Basis Set: 6-31G*
  Basis Set:
  @DF-RHF Final Energy:  -309.06350762948045
    Total Energy =                       -309.0635076294805117
  Basis Set: 6-31G*
  Basis Set:
  Charge       = 0
  Multiplicity = 1
  Basis Set: 6-31G*
  Basis Set:

    Orbital Energies (a.u.)
    -----------------------

    Doubly Occupied:

       1A    -20.547335     2A    -11.324516     3A    -11.230941
       4A    -11.228881     5A    -11.228260     6A    -11.225281
       7A    -11.214525     8A     -1.393169     9A     -1.091141
      10A     -1.027490    11A     -0.981135    12A     -0.900243
      13A     -0.797638    14A     -0.734850    15A     -0.658357
      16A     -0.650947    17A     -0.622098    18A     -0.600876
      19A     -0.593434    20A     -0.577001    21A     -0.548800
      22A     -0.543252    23A     -0.512689    24A     -0.501433
      25A     -0.480848    26A     -0.473896    27A     -0.462392
      28A     -0.397219

  @DF-RHF Final Energy:  -309.06350792826987

   => Energetics <=

    Nuclear Repulsion Energy =            304.6302982725269999
    One-Electron Energy =               -1022.2903196833710808
    Two-Electron Energy =                 408.5965134825743803
    DFT Exchange-Correlation Energy =       0.0000000000000000
    Empirical Dispersion Energy =           0.0000000000000000
    PCM Polarization Energy =               0.0000000000000000
    EFP Energy =                            0.0000000000000000
    Total Energy =                       -309.0635079282697575
    Molecular point group: c1
  Basis Set: 6-31G*
  Basis Set:

  -Total Gradient:
     Atom            X                  Y                   Z
    ------   -----------------  -----------------  -----------------
       1        0.000041964534     0.000083799530     0.000021714909
       2       -0.000030621683    -0.000070543891     0.000009957246
       3       -0.000011191284    -0.000018810546     0.000005397085
       4        0.000012900777    -0.000002443304    -0.000005685127
       5        0.000583425531    -0.000724263767    -0.000944730329
       6       -0.000011232701     0.000001126380    -0.000011379888
       7       -0.000024321815     0.000010009185    -0.000006010345
       8        0.000520518488    -0.000684740920    -0.000847462041
       9       -0.000596056437     0.000809913566     0.001016986167
      10        0.000003635965     0.000010181634     0.000002726167
      11       -0.000469035700     0.000599324908     0.000775764797
      12       -0.000036765964     0.000001198013    -0.000018053727
      13        0.000003483752     0.000000125511    -0.000004657862
      14        0.000012206056     0.000009428613     0.000002339097
      15        0.000013622433    -0.000017635984     0.000001631834
      16       -0.000025631396     0.000007934499    -0.000007005127
      17        0.000016612021    -0.000003464074     0.000006949622
      18       -0.000007104068    -0.000010436044     0.000003066807
      19        0.000003591493    -0.000000703311    -0.000001549285

  **** Optimization is complete! (in 9 steps) ****
    Final optimized geometry and variables:
    Molecular point group: c1

    Geometry (in Angstrom), charge = 0, multiplicity = 1:

    O           -1.940419666086    -1.037568075601    -0.656866570070
    C           -1.531058470224     0.018327290284    -0.280537097238
    C           -0.226237032440     0.118567365511     0.489417435312
    C           -2.272024459160     1.305356081001    -0.568422390654
    C            0.970691701986     0.101698166446    -0.477477527859
    H           -0.205276312779     1.026115585863     1.087168869222
    H           -0.180316668498    -0.731013515184     1.159190223093
    C            2.329354234564     0.289031864062     0.206334558658
    H            0.842951179232     0.899239898650    -1.206436697069
    H            0.956588796457    -0.834196413409    -1.027608621828
    C            2.661868035558    -0.761056809469     1.267324985468
    H            3.098557668812     0.274494016894    -0.561286088693
    H            2.369137442370     1.278529393836     0.657265512693
    H            2.593732243902    -1.766100141747     0.860249703255
    H            1.993667833795    -0.702716355622     2.119854177551
    H            3.672691703802    -0.622620322375     1.637547833119
    H           -3.097309339165     1.114491695495    -1.240129478808
    H           -1.606769876028     2.046212609697    -1.001917719058
    H           -2.652852238853     1.721306924383     0.360688449029

  Mulliken Charges: (a.u.)
   Center  Symbol    Alpha    Beta     Spin     Total
       1     O     4.26223  4.26223  0.00000 -0.52445
       2     C     2.73701  2.73701  0.00000  0.52599
       3     C     3.20221  3.20221  0.00000 -0.40442
       4     C     3.28951  3.28951  0.00000 -0.57902
       5     C     3.16202  3.16202  0.00000 -0.32405
       6     H     0.41760  0.41760  0.00000  0.16480
       7     H     0.39886  0.39886  0.00000  0.20229
       8     C     3.15235  3.15235  0.00000 -0.30471
       9     H     0.41956  0.41956  0.00000  0.16089
      10     H     0.40666  0.40666  0.00000  0.18668
      11     C     3.24322  3.24322  0.00000 -0.48645
      12     H     0.41731  0.41731  0.00000  0.16538
      13     H     0.42271  0.42271  0.00000  0.15458
      14     H     0.41828  0.41828  0.00000  0.16344
      15     H     0.41963  0.41963  0.00000  0.16074
      16     H     0.41716  0.41716  0.00000  0.16568
      17     H     0.39701  0.39701  0.00000  0.20599
      18     H     0.40995  0.40995  0.00000  0.18010
      19     H     0.40674  0.40674  0.00000  0.18653

   Total alpha = 28.00000, Total beta = 28.00000, Total charge =  0.00000
