                              Psi4 1.0.54 Driver

  ==> Input File <==

--------------------------------------------------------------------------
set {
	reference rhf
	basis cc-pvtz
}

set_num_threads( 4 )
memory 2 gb

molecule MOL {
0 1

H	 -2.266619	 1.169943	 0.000098
O	 -1.438073	 1.611259	 0.000041
C	 -0.408657	 0.734701	 0.000005
C	 0.580910	 0.933469	 0.944811
C	 -0.334919	 -0.321196	 -0.900971
H	 0.487615	 1.759535	 1.622190
C	 1.660300	 0.077550	 1.002134
C	 0.760730	 -1.165346	 -0.820408
C	 -1.415634	 -0.536758	 -1.931403
H	 2.424697	 0.238070	 1.738279
C	 1.756456	 -0.979254	 0.117628
H	 0.832420	 -1.986147	 -1.509694
H	 -1.512285	 0.315295	 -2.598475
H	 -1.193520	 -1.399616	 -2.542617
H	 -2.384082	 -0.708514	 -1.469956
H	 2.593217	 -1.649108	 0.156314

	symmetry c1
}
set optking {
	frozen_dihedral = ("
		4 3 2 1
	")
}

ee,wfn = optimize('scf', return_wfn=True)
oeprop( wfn, 'DIPOLE', 'QUADRUPOLE', 'MULLIKEN_CHARGES')
f=open( 'psi4out.xyz', 'w' )
f.write( "16  " )
f.write( str(ee) + "\n" )
f.write( MOL.save_string_xyz() )
f.close()
--------------------------------------------------------------------------

    Molecular point group: c1
  Charge       = 0
  Multiplicity = 1
  Basis Set: CC-PVTZ
  Basis Set:
  @DF-RHF Final Energy:  -344.71705623815262
    Total Energy =                       -344.7170562381523951
    Molecular point group: c1
  Basis Set: CC-PVTZ
  Basis Set:
  Basis Set: CC-PVTZ
  Basis Set:
  @DF-RHF Final Energy:  -344.71738783250998
    Total Energy =                       -344.7173878325100418
  Basis Set: CC-PVTZ
  Basis Set:
  Basis Set: CC-PVTZ
  Basis Set:
  @DF-RHF Final Energy:  -344.71743833656126
    Total Energy =                       -344.7174383365614858
  Basis Set: CC-PVTZ
  Basis Set:
  Basis Set: CC-PVTZ
  Basis Set:
  @DF-RHF Final Energy:  -344.71744571771120
    Total Energy =                       -344.7174457177110298
  Basis Set: CC-PVTZ
  Basis Set:
  Basis Set: CC-PVTZ
  Basis Set:
  @DF-RHF Final Energy:  -344.71744841243691
    Total Energy =                       -344.7174484124369656
  Basis Set: CC-PVTZ
  Basis Set:
  Charge       = 0
  Multiplicity = 1
  Basis Set: CC-PVTZ
  Basis Set:

    Orbital Energies (a.u.)
    -----------------------

    Doubly Occupied:

       1A    -20.574694     2A    -11.285912     3A    -11.234061
       4A    -11.227509     5A    -11.227010     6A    -11.226144
       7A    -11.220639     8A    -11.220209     9A     -1.402477
      10A     -1.153698    11A     -1.050219    12A     -1.007603
      13A     -0.940099    14A     -0.828922    15A     -0.817628
      16A     -0.731914    17A     -0.676749    18A     -0.651795
      19A     -0.623721    20A     -0.597160    21A     -0.575362
      22A     -0.572403    23A     -0.551678    24A     -0.533541
      25A     -0.504191    26A     -0.487836    27A     -0.472017
      28A     -0.333340    29A     -0.317386

  @DF-RHF Final Energy:  -344.71744884326381

   => Energetics <=

    Nuclear Repulsion Energy =            350.7423847707847244
    One-Electron Energy =               -1162.8278354453086649
    Two-Electron Energy =                 467.3680018312599032
    DFT Exchange-Correlation Energy =       0.0000000000000000
    Empirical Dispersion Energy =           0.0000000000000000
    PCM Polarization Energy =               0.0000000000000000
    EFP Energy =                            0.0000000000000000
    Total Energy =                       -344.7174488432640374
    Molecular point group: c1
  Basis Set: CC-PVTZ
  Basis Set:

  -Total Gradient:
     Atom            X                  Y                   Z
    ------   -----------------  -----------------  -----------------
       1       -0.000068595527     0.000041824481     0.001915984121
       2       -0.000312192717    -0.000378646873    -0.001979756973
       3        0.001134737436     0.001087152299    -0.000795025314
       4       -0.000764029835    -0.000739606070     0.000880871516
       5       -0.000019510357    -0.000002215811    -0.000011629549
       6       -0.000000523564    -0.000005706139    -0.000005482432
       7        0.000014987292    -0.000022441174    -0.000003331806
       8       -0.000009435304     0.000024167219    -0.000028120222
       9        0.000005898778    -0.000004636006     0.000016940616
      10        0.000003478935    -0.000001745386     0.000000993421
      11        0.000008860097     0.000009283120     0.000014059293
      12        0.000001077942    -0.000006431013    -0.000000775632
      13        0.000012421473    -0.000002736204    -0.000004644999
      14       -0.000003369477    -0.000013630148     0.000002399035
      15        0.000000360919     0.000016038673    -0.000001771532
      16       -0.000004166092    -0.000000670971    -0.000000709543

  **** Optimization is complete! (in 6 steps) ****
    Final optimized geometry and variables:
    Molecular point group: c1

    Geometry (in Angstrom), charge = 0, multiplicity = 1:

    H           -2.323133273758     1.124251801691     0.144738678074
    O           -1.489239158472     1.558817768378     0.164842462928
    C           -0.469054479788     0.656585046669     0.221059557618
    C            0.499559597349     0.837347625205     1.186355310715
    C           -0.392708955549    -0.394356999437    -0.685598274962
    H            0.401434114981     1.660401515785     1.866768225460
    C            1.573845804301    -0.028437238694     1.257404775889
    C            0.686715428306    -1.255636482593    -0.587122808212
    C           -1.453297728507    -0.575967371639    -1.740887608621
    H            2.327769631026     0.118816967676     2.006833026467
    C            1.667980305352    -1.081596659918     0.371193865298
    H            0.763986248038    -2.073786886671    -1.278781905534
    H           -1.582077305222     0.327244721210    -2.325037385645
    H           -1.190785949564    -1.380749229267    -2.413218198558
    H           -2.418023509178    -0.821262137958    -1.304823948399
    H            2.496531260845    -1.761368326667     0.420581671896

  Mulliken Charges: (a.u.)
   Center  Symbol    Alpha    Beta     Spin     Total
       1     H     0.38561  0.38561  0.00000  0.22878
       2     O     4.18518  4.18518  0.00000 -0.37037
       3     C     2.88141  2.88141  0.00000  0.23718
       4     C     3.10952  3.10952  0.00000 -0.21904
       5     C     3.00187  3.00187  0.00000 -0.00374
       6     H     0.41786  0.41786  0.00000  0.16429
       7     C     3.07162  3.07162  0.00000 -0.14323
       8     C     3.08996  3.08996  0.00000 -0.17993
       9     C     3.15453  3.15453  0.00000 -0.30905
      10     H     0.42229  0.42229  0.00000  0.15542
      11     C     3.08369  3.08369  0.00000 -0.16738
      12     H     0.42508  0.42508  0.00000  0.14984
      13     H     0.44014  0.44014  0.00000  0.11971
      14     H     0.44917  0.44917  0.00000  0.10167
      15     H     0.45767  0.45767  0.00000  0.08466
      16     H     0.42440  0.42440  0.00000  0.15119

   Total alpha = 29.00000, Total beta = 29.00000, Total charge =  0.00000

*** Psi4 exiting successfully. Buy a developer a beer!
