                              Psi4 1.0.54 Driver

  ==> Input File <==

--------------------------------------------------------------------------
set {
	reference rhf
	basis cc-pvtz
}

set_num_threads( 4 )
memory 2 gb

molecule MOL {
0 1

H	 -3.941973	 0.934228	 -0.390224
C	 -3.240162	 0.342701	 0.161016
C	 -2.105997	 -0.000418	 -0.398703
H	 -3.485368	 0.047206	 1.162193
O	 -1.186301	 -0.758877	 0.240613
H	 -1.849329	 0.291717	 -1.400654
C	 0.029746	 -0.988379	 -0.377188
C	 1.057802	 0.062391	 -0.011107
H	 -0.053220	 -1.010971	 -1.457179
H	 0.404373	 -1.941839	 -0.036588
F	 2.203574	 -0.221688	 -0.597268
F	 0.694164	 1.263740	 -0.406119
F	 1.269370	 0.115668	 1.281510

	symmetry c1
}
set optking {
	frozen_dihedral = ("
		6 3 2 1
	")
}

ee,wfn = optimize('scf', return_wfn=True)
oeprop( wfn, 'DIPOLE', 'QUADRUPOLE', 'MULLIKEN_CHARGES')
f=open( 'psi4out.xyz', 'w' )
f.write( "13  " )
f.write( str(ee) + "\n" )
f.write( MOL.save_string_xyz() )
f.close()
--------------------------------------------------------------------------

    Molecular point group: c1
  Charge       = 0
  Multiplicity = 1
  Basis Set: CC-PVTZ
  Basis Set:
  @DF-RHF Final Energy:  -527.74207908929043
    Total Energy =                       -527.7420790892908826
    Molecular point group: c1
  Basis Set: CC-PVTZ
  Basis Set:
  Basis Set: CC-PVTZ
  Basis Set:
  @DF-RHF Final Energy:  -527.74208058807289
    Total Energy =                       -527.7420805880731223
  Basis Set: CC-PVTZ
  Basis Set:
  Charge       = 0
  Multiplicity = 1
  Basis Set: CC-PVTZ
  Basis Set:

    Orbital Energies (a.u.)
    -----------------------

    Doubly Occupied:

       1A    -26.341867     2A    -26.340608     3A    -26.338072
       4A    -20.604133     5A    -11.497864     6A    -11.320177
       7A    -11.298703     8A    -11.213845     9A     -1.750512
      10A     -1.647009    11A     -1.645420    12A     -1.444720
      13A     -1.088255    14A     -1.020666    15A     -0.932312
      16A     -0.844003    17A     -0.839658    18A     -0.827144
      19A     -0.798304    20A     -0.728961    21A     -0.719283
      22A     -0.703952    23A     -0.681818    24A     -0.668172
      25A     -0.661620    26A     -0.650970    27A     -0.640696
      28A     -0.588061    29A     -0.566358    30A     -0.529080
      31A     -0.518557    32A     -0.356643

  @DF-RHF Final Energy:  -527.74208158305817

   => Energetics <=

    Nuclear Repulsion Energy =            413.5220820205375958
    One-Electron Energy =               -1550.9134464688045227
    Two-Electron Energy =                 609.6492828652089884
    DFT Exchange-Correlation Energy =       0.0000000000000000
    Empirical Dispersion Energy =           0.0000000000000000
    PCM Polarization Energy =               0.0000000000000000
    EFP Energy =                            0.0000000000000000
    Total Energy =                       -527.7420815830578249
    Molecular point group: c1
  Basis Set: CC-PVTZ
  Basis Set:

  -Total Gradient:
     Atom            X                  Y                   Z
    ------   -----------------  -----------------  -----------------
       1        0.000098394856     0.000197089377     0.000084404270
       2       -0.000194002664    -0.000384763235    -0.000165473873
       3        0.000114243149     0.000272057286     0.000111050537
       4        0.000023726266     0.000045792118     0.000020848406
       5        0.000007940245    -0.000005601005     0.000002198911
       6       -0.000067648674    -0.000141178076    -0.000060836651
       7        0.000006143261     0.000009517302     0.000009444333
       8       -0.000013169549     0.000014834303     0.000009810614
       9       -0.000001863550     0.000000933023    -0.000000074207
      10       -0.000000563689     0.000000027181    -0.000000169838
      11        0.000017462858    -0.000004483928    -0.000011994762
      12        0.000013219607    -0.000006078675     0.000005611122
      13       -0.000003882114     0.000001854332    -0.000004818861

  **** Optimization is complete! (in 3 steps) ****
    Final optimized geometry and variables:
    Molecular point group: c1

    Geometry (in Angstrom), charge = 0, multiplicity = 1:

    H           -3.944126633963     0.924871833634    -0.386833673124
    C           -3.242277276193     0.333861069127     0.164927213225
    C           -2.106439299724    -0.006367685372    -0.393262719406
    H           -3.486170549068     0.041590401835     1.167383503681
    O           -1.187631600988    -0.766209799161     0.245531240254
    H           -1.848739150368     0.287787431340    -1.394362494598
    C            0.027823828669    -0.997437926591    -0.372687981243
    C            1.057321000261     0.052232715563    -0.007320076782
    H           -0.055632665245    -1.020199431408    -1.452650916104
    H            0.401435483257    -1.951269623618    -0.032006979355
    F            2.202336347345    -0.232864227732    -0.594400313134
    F            0.694516004331     1.254003101436    -0.401920966225
    F            1.269922215739     0.105200991717     1.285175170942

  Mulliken Charges: (a.u.)
   Center  Symbol    Alpha    Beta     Spin     Total
       1     H     0.42515  0.42515  0.00000  0.14971
       2     C     3.19750  3.19750  0.00000 -0.39500
       3     C     2.95866  2.95866  0.00000  0.08269
       4     H     0.42476  0.42476  0.00000  0.15048
       5     O     4.14449  4.14449  0.00000 -0.28898
       6     H     0.43451  0.43451  0.00000  0.13099
       7     C     3.01921  3.01921  0.00000 -0.03842
       8     C     2.67548  2.67548  0.00000  0.64903
       9     H     0.45526  0.45526  0.00000  0.08949
      10     H     0.43520  0.43520  0.00000  0.12961
      11     F     4.61259  4.61259  0.00000 -0.22518
      12     F     4.61043  4.61043  0.00000 -0.22086
      13     F     4.60677  4.60677  0.00000 -0.21354

   Total alpha = 32.00000, Total beta = 32.00000, Total charge = -0.00000

*** Psi4 exiting successfully. Buy a developer a beer!
