  ==> Input File <==

--------------------------------------------------------------------------
set {
	reference rhf
	basis 6-31G*
}

set_num_threads( 4 )
memory 2 gb

molecule MOL {
0 1

H	 -3.178481	 -0.836424	 -0.684703
O	 -2.310168	 -0.871793	 -0.309793
C	 -2.026376	 0.340750	 0.341611
C	 -0.673256	 0.843270	 -0.132153
H	 -2.792215	 1.080697	 0.115987
H	 -2.013526	 0.200402	 1.421792
C	 0.486613	 -0.083066	 0.235839
H	 -0.715586	 0.970948	 -1.210718
H	 -0.508072	 1.829858	 0.297090
C	 1.840406	 0.433480	 -0.254303
H	 0.300215	 -1.068318	 -0.178947
H	 0.519509	 -0.203625	 1.318070
C	 3.000220	 -0.489290	 0.118523
H	 1.809207	 0.553576	 -1.335192
H	 2.021860	 1.424500	 0.157276
H	 2.864959	 -1.479103	 -0.307933
H	 3.946603	 -0.099227	 -0.243630
H	 3.080049	 -0.602997	 1.196117

	symmetry c1
}
set optking {
	frozen_dihedral = ("
		1 2 3 4
	")
}

ee = optimize('scf')
oeprop('DIPOLE', 'QUADRUPOLE', 'MULLIKEN_CHARGES')
f=open( 'psi4out.xyz', 'w' )
f.write( "18  " )
f.write( str(ee) + "\n" )
f.write( MOL.save_string_xyz() )
f.close()
--------------------------------------------------------------------------

    Molecular point group: c1
  Charge       = 0
  Multiplicity = 1
  Basis Set: 6-31G*
  Basis Set:
  @DF-RHF Final Energy:  -271.17765228239750
    Total Energy =                       -271.1776522823975597
    Molecular point group: c1
  Basis Set: 6-31G*
  Basis Set:
  Basis Set: 6-31G*
  Basis Set:
  @DF-RHF Final Energy:  -271.17787844907065
    Total Energy =                       -271.1778784490705902
  Basis Set: 6-31G*
  Basis Set:
  Basis Set: 6-31G*
  Basis Set:
  @DF-RHF Final Energy:  -271.17794218584311
    Total Energy =                       -271.1779421858431078
  Basis Set: 6-31G*
  Basis Set:
  Basis Set: 6-31G*
  Basis Set:
  @DF-RHF Final Energy:  -271.17794082434250
    Total Energy =                       -271.1779408243424996
  Basis Set: 6-31G*
  Basis Set:
  Basis Set: 6-31G*
  Basis Set:
  @DF-RHF Final Energy:  -271.17794335404744
    Total Energy =                       -271.1779433540472155
  Basis Set: 6-31G*
  Basis Set:
  Charge       = 0
  Multiplicity = 1
  Basis Set: 6-31G*
  Basis Set:

    Orbital Energies (a.u.)
    -----------------------

    Doubly Occupied:

       1A    -20.551482     2A    -11.268349     3A    -11.211561
       4A    -11.210609     5A    -11.205948     6A    -11.204165
       7A     -1.357934     8A     -1.074420     9A     -1.008302
      10A     -0.913047    11A     -0.819373    12A     -0.785492
      13A     -0.699509    14A     -0.648542    15A     -0.615202
      16A     -0.583472    17A     -0.574483    18A     -0.550943
      19A     -0.520351    20A     -0.509963    21A     -0.488939
      22A     -0.466609    23A     -0.457971    24A     -0.444188
      25A     -0.427002

  @DF-RHF Final Energy:  -271.17794338948357

   => Energetics <=

    Nuclear Repulsion Energy =            248.8247815627600517
    One-Electron Energy =                -860.8097341236685907
    Two-Electron Energy =                 340.8070091714247951
    DFT Exchange-Correlation Energy =       0.0000000000000000
    Empirical Dispersion Energy =           0.0000000000000000
    PCM Polarization Energy =               0.0000000000000000
    EFP Energy =                            0.0000000000000000
    Total Energy =                       -271.1779433894838007
    Molecular point group: c1
  Basis Set: 6-31G*
  Basis Set:

  -Total Gradient:
     Atom            X                  Y                   Z
    ------   -----------------  -----------------  -----------------
       1        0.000312164330     0.000277188367    -0.000705062261
       2       -0.000467148054    -0.000235788219     0.000731920857
       3        0.000375456378    -0.000278986692     0.000364999908
       4       -0.000223135195     0.000232417248    -0.000399203302
       5       -0.000003321936     0.000000091612    -0.000001311380
       6       -0.000000052074    -0.000006355522     0.000001901599
       7        0.000002529069     0.000000036560    -0.000002827038
       8        0.000001914619     0.000000310681     0.000000711952
       9        0.000003741001     0.000001699685    -0.000001786200
      10        0.000001000689     0.000007202400     0.000012461422
      11       -0.000000170936     0.000002422496    -0.000000457424
      12        0.000000133434     0.000002557494     0.000001299811
      13       -0.000002320804    -0.000004154883    -0.000006730704
      14       -0.000001692309     0.000001722771     0.000002885617
      15        0.000000998392     0.000000739310     0.000002633170
      16       -0.000000137073    -0.000002708984     0.000002781523
      17       -0.000000642137    -0.000001779335    -0.000003499808
      18        0.000000682614     0.000003385013    -0.000000717743

  **** Optimization is complete! (in 6 steps) ****
    Final optimized geometry and variables:
    Molecular point group: c1

    Geometry (in Angstrom), charge = 0, multiplicity = 1:

    H           -3.176425881648    -0.879595815963    -0.657219968348
    O           -2.313033572305    -0.897232720382    -0.274777491366
    C           -2.024947111786     0.340585936000     0.334553136903
    C           -0.669139802755     0.853434772088    -0.126873767571
    H           -2.791716556486     1.072188705669     0.092343382740
    H           -2.030315894031     0.213446535550     1.414186135827
    C            0.486774142613    -0.079335574408     0.236925208705
    H           -0.702105449498     0.994769462110    -1.204502136875
    H           -0.504194560129     1.833953423491     0.317494014744
    C            1.843988121113     0.433689759008    -0.247388138717
    H            0.296309245478    -1.061252707073    -0.184627026830
    H            0.516509753999    -0.207415372785     1.318241346513
    C            2.998348788237    -0.498093677942     0.119900851320
    H            1.815091118831     0.562243521171    -1.327421289949
    H            2.030035182706     1.420612384325     0.172005224443
    H            2.857465756385    -1.484478387256    -0.312685497874
    H            3.947097933349    -0.111205243180    -0.239471356108
    H            3.076989688942    -0.619050621544     1.196714108526

  Mulliken Charges: (a.u.)
   Center  Symbol    Alpha    Beta     Spin     Total
       1     H     0.27917  0.27917  0.00000  0.44167
       2     O     4.37243  4.37243  0.00000 -0.74486
       3     C     2.99941  2.99941  0.00000  0.00118
       4     C     3.15653  3.15653  0.00000 -0.31305
       5     H     0.42972  0.42972  0.00000  0.14056
       6     H     0.42552  0.42552  0.00000  0.14896
       7     C     3.15390  3.15390  0.00000 -0.30781
       8     H     0.42082  0.42082  0.00000  0.15835
       9     H     0.42601  0.42601  0.00000  0.14798
      10     C     3.15146  3.15146  0.00000 -0.30293
      11     H     0.40771  0.40771  0.00000  0.18457
      12     H     0.42612  0.42612  0.00000  0.14775
      13     C     3.23890  3.23890  0.00000 -0.47780
      14     H     0.42329  0.42329  0.00000  0.15342
      15     H     0.42534  0.42534  0.00000  0.14933
      16     H     0.42079  0.42079  0.00000  0.15842
      17     H     0.42059  0.42059  0.00000  0.15882
      18     H     0.42229  0.42229  0.00000  0.15543

   Total alpha = 25.00000, Total beta = 25.00000, Total charge = -0.00000
