                              Psi4 1.0.54 Driver

  ==> Input File <==

--------------------------------------------------------------------------
set {
	reference rhf
	basis cc-pvtz
}

set_num_threads( 4 )
memory 2 gb

molecule MOL {
0 1

H	 3.062882	 -1.243848	 0.772056
O	 2.157179	 -1.492060	 0.811029
C	 1.356045	 -0.487588	 0.405213
C	 1.856289	 0.737908	 -0.007819
C	 -0.005763	 -0.710028	 0.409579
H	 2.917414	 0.909479	 -0.010590
C	 0.995107	 1.736699	 -0.414927
H	 -0.395213	 -1.655424	 0.728010
C	 -0.861704	 0.296439	 0.000000
H	 1.393549	 2.680779	 -0.732386
C	 -0.368499	 1.522231	 -0.413528
C	 -2.330689	 0.069587	 0.000000
H	 -1.040619	 2.297002	 -0.729554
O	 -2.848621	 -0.993976	 0.000000
H	 -2.934306	 0.982410	 0.000000

	symmetry c1
}
set optking {
	frozen_dihedral = ("
		11 9 12 14
	")
}

ee,wfn = optimize('scf', return_wfn=True)
oeprop( wfn, 'DIPOLE', 'QUADRUPOLE', 'MULLIKEN_CHARGES')
f=open( 'psi4out.xyz', 'w' )
f.write( "15  " )
f.write( str(ee) + "\n" )
f.write( MOL.save_string_xyz() )
f.close()
--------------------------------------------------------------------------

    Molecular point group: c1
  Charge       = 0
  Multiplicity = 1
  Basis Set: CC-PVTZ
  Basis Set:
  @DF-RHF Final Energy:  -418.43760939497383
    Total Energy =                       -418.4376093949737196
    Molecular point group: c1
  Basis Set: CC-PVTZ
  Basis Set:
  Basis Set: CC-PVTZ
  Basis Set:
  @DF-RHF Final Energy:  -418.43648189510225
    Total Energy =                       -418.4364818951017924
  Basis Set: CC-PVTZ
  Basis Set:
  Basis Set: CC-PVTZ
  Basis Set:
  @DF-RHF Final Energy:  -418.43770969895638
    Total Energy =                       -418.4377096989563825
  Basis Set: CC-PVTZ
  Basis Set:
  Basis Set: CC-PVTZ
  Basis Set:
  @DF-RHF Final Energy:  -418.43780483586710
    Total Energy =                       -418.4378048358671549
  Basis Set: CC-PVTZ
  Basis Set:
  Charge       = 0
  Multiplicity = 1
  Basis Set: CC-PVTZ
  Basis Set:

    Orbital Energies (a.u.)
    -----------------------

    Doubly Occupied:

       1A    -20.595762     2A    -20.555275     3A    -11.327928
       4A    -11.311794     5A    -11.251170     6A    -11.250908
       7A    -11.246904     8A    -11.242665     9A    -11.237300
      10A     -1.427545    11A     -1.410906    12A     -1.174109
      13A     -1.051956    14A     -1.030683    15A     -0.902644
      16A     -0.849906    17A     -0.817274    18A     -0.740459
      19A     -0.706101    20A     -0.689577    21A     -0.645590
      22A     -0.641329    23A     -0.615180    24A     -0.608440
      25A     -0.580813    26A     -0.554805    27A     -0.545253
      28A     -0.516555    29A     -0.493043    30A     -0.426984
      31A     -0.358213    32A     -0.330554

  @DF-RHF Final Energy:  -418.43780537492933

   => Energetics <=

    Nuclear Repulsion Energy =            404.0838715113333137
    One-Electron Energy =               -1370.7681027729963716
    Two-Electron Energy =                 548.2464258867335047
    DFT Exchange-Correlation Energy =       0.0000000000000000
    Empirical Dispersion Energy =           0.0000000000000000
    PCM Polarization Energy =               0.0000000000000000
    EFP Energy =                            0.0000000000000000
    Total Energy =                       -418.4378053749295532
    Molecular point group: c1
  Basis Set: CC-PVTZ
  Basis Set:

  -Total Gradient:
     Atom            X                  Y                   Z
    ------   -----------------  -----------------  -----------------
       1       -0.000002019054     0.000011271624     0.000021807756
       2       -0.000010058034    -0.000002706450    -0.000017505366
       3        0.000018722455     0.000012191076    -0.000048449596
       4       -0.000007951949     0.000009293769     0.000070939437
       5       -0.000023731372    -0.000007530027    -0.000011028697
       6       -0.000000574515     0.000008975144    -0.000007592342
       7       -0.000000181458    -0.000016835466    -0.000079898564
       8       -0.000005052578     0.000019668963     0.000012185097
       9       -0.000309524986     0.001356506661     0.002157634368
      10        0.000011954638     0.000003014878     0.000011737578
      11        0.000312146268    -0.000919382156    -0.002505886619
      12       -0.000118801974    -0.000422666523     0.003761751831
      13        0.000003182241    -0.000005869442     0.000007156735
      14        0.000102156228     0.000041991008    -0.003383682776
      15        0.000029734086    -0.000087923065     0.000010831158

  **** Optimization is complete! (in 5 steps) ****
    Final optimized geometry and variables:
    Molecular point group: c1

    Geometry (in Angstrom), charge = 0, multiplicity = 1:

    H            3.062113241926    -1.253765634324     0.688661603336
    O            2.156706261806    -1.504389909073     0.722259753629
    C            1.356039032049    -0.499911652498     0.316676512258
    C            1.855568546707     0.729736715418    -0.084616767812
    C           -0.004965265395    -0.728331637105     0.304049594768
    H            2.916254800321     0.904200208383    -0.079298898361
    C            0.993914232645     1.728174018791    -0.491280758507
    H           -0.391733379771    -1.683203765965     0.597007669816
    C           -0.861666979636     0.283043076116    -0.090723827975
    H            1.391724462238     2.673864942729    -0.804853235288
    C           -0.369804848666     1.513374891029    -0.491734918613
    C           -2.327122531291     0.035404178008    -0.151645988386
    H           -1.042177888178     2.290796986685    -0.800923031540
    O           -2.826962610302    -1.036293585294    -0.166136247639
    H           -2.942460367888     0.937965984506    -0.219584632299

  Mulliken Charges: (a.u.)
   Center  Symbol    Alpha    Beta     Spin     Total
       1     H     0.38725  0.38725  0.00000  0.22551
       2     O     4.16978  4.16978  0.00000 -0.33955
       3     C     2.84118  2.84118  0.00000  0.31765
       4     C     3.12771  3.12771  0.00000 -0.25542
       5     C     3.11996  3.11996  0.00000 -0.23991
       6     H     0.43138  0.43138  0.00000  0.13724
       7     C     3.06262  3.06262  0.00000 -0.12525
       8     H     0.40624  0.40624  0.00000  0.18753
       9     C     2.96401  2.96401  0.00000  0.07197
      10     H     0.41937  0.41937  0.00000  0.16127
      11     C     3.11057  3.11057  0.00000 -0.22115
      12     C     2.91270  2.91270  0.00000  0.17461
      13     H     0.42351  0.42351  0.00000  0.15297
      14     O     4.16696  4.16696  0.00000 -0.33392
      15     H     0.45677  0.45677  0.00000  0.08646

   Total alpha = 32.00000, Total beta = 32.00000, Total charge =  0.00000

*** Psi4 exiting successfully. Buy a developer a beer!
