  ==> Input File <==

--------------------------------------------------------------------------
set {
	reference rhf
	basis 6-31G*
}

set_num_threads( 1 )
memory 2 gb

molecule MOL {
0 1

O	 -2.140631	 0.381937	 1.942870
C	 -2.307600	 -0.361788	 1.029848
C	 -3.480437	 -1.301313	 0.915766
O	 -1.481751	 -0.454642	 0.000584
H	 -4.394895	 -0.720737	 0.939439
H	 -3.440724	 -1.887213	 0.009354
H	 -3.486138	 -1.956989	 1.778283
C	 -0.334255	 0.388708	 0.000906
C	 0.891947	 -0.504646	 0.000751
H	 -0.365390	 1.025305	 -0.873475
H	 -0.365484	 1.024911	 0.875569
C	 2.191998	 0.301789	 0.000897
H	 0.855148	 -1.151283	 -0.871571
H	 0.855132	 -1.151660	 0.872805
C	 3.441114	 -0.581407	 0.000108
H	 2.215074	 0.954890	 -0.869742
H	 2.215465	 0.953923	 0.872248
C	 4.739576	 0.224112	 -0.001102
H	 3.419457	 -1.233487	 -0.870178
H	 3.420834	 -1.233096	 0.870717
H	 4.804918	 0.861552	 -0.878265
H	 5.606527	 -0.429058	 -0.001824
H	 4.806469	 0.861674	 0.875853

	symmetry c1
}
set optking {
	frozen_dihedral = ("
		13 9 8 10,
		16 12 9 13,
		19 15 12 16,
		1 2 4 8
	")
}

ee = energy('scf')
oeprop('DIPOLE', 'QUADRUPOLE', 'MULLIKEN_CHARGES')
f=open( 'psi4out.xyz', 'w' )
f.write( "23  " )
f.write( str(ee) + "\n" )
f.write( MOL.save_string_xyz() )
f.close()
--------------------------------------------------------------------------

    Molecular point group: c1

    Geometry (in Angstrom), charge = 0, multiplicity = 1:

       Center              X                  Y                   Z               Mass
    ------------   -----------------  -----------------  -----------------  -----------------
           O         -2.294676040658     0.591704751282     1.503190440317    15.994914619560
           C         -2.461645040658    -0.152020248718     0.590168440317    12.000000000000
           C         -3.634482040658    -1.091545248718     0.476086440317    12.000000000000
           O         -1.635796040658    -0.244874248718    -0.439095559683    15.994914619560
           H         -4.548940040658    -0.510969248718     0.499759440317     1.007825032070
           H         -3.594769040658    -1.677445248718    -0.430325559683     1.007825032070
           H         -3.640183040658    -1.747221248718     1.338603440317     1.007825032070
           C         -0.488300040658     0.598475751282    -0.438773559683    12.000000000000
           C          0.737901959342    -0.294878248718    -0.438928559683    12.000000000000
           H         -0.519435040658     1.235072751282    -1.313154559683     1.007825032070
           H         -0.519529040658     1.234678751282     0.435889440317     1.007825032070
           C          2.037952959342     0.511556751282    -0.438782559683    12.000000000000
           H          0.701102959342    -0.941515248718    -1.311250559683     1.007825032070
           H          0.701086959342    -0.941892248718     0.433125440317     1.007825032070
           C          3.287068959342    -0.371639248718    -0.439571559683    12.000000000000
           H          2.061028959342     1.164657751282    -1.309421559683     1.007825032070
           H          2.061419959342     1.163690751282     0.432568440317     1.007825032070
           C          4.585530959342     0.433879751282    -0.440781559683    12.000000000000
           H          3.265411959342    -1.023719248718    -1.309857559683     1.007825032070
           H          3.266788959342    -1.023328248718     0.431037440317     1.007825032070
           H          4.650872959342     1.071319751282    -1.317944559683     1.007825032070
           H          5.452481959342    -0.219290248718    -0.441503559683     1.007825032070
           H          4.652423959342     1.071441751282     0.436173440317     1.007825032070

  Charge       = 0
  Multiplicity = 1
  Basis Set: 6-31G*
  Basis Set:

    Orbital Energies (a.u.)
    -----------------------

    Doubly Occupied:

       1A    -20.603275     2A    -20.540307     3A    -11.376048
       4A    -11.277131     5A    -11.233295     6A    -11.222003
       7A    -11.221376     8A    -11.220025     9A    -11.211645
      10A     -1.469039    11A     -1.361564    12A     -1.092069
      13A     -1.041518    14A     -1.002898    15A     -0.930155
      16A     -0.844589    17A     -0.799966    18A     -0.772685
      19A     -0.699960    20A     -0.681024    21A     -0.659762
      22A     -0.647688    23A     -0.604200    24A     -0.587117
      25A     -0.585134    26A     -0.571979    27A     -0.550320
      28A     -0.539574    29A     -0.522214    30A     -0.508982
      31A     -0.487146    32A     -0.477817    33A     -0.473043
      34A     -0.469162    35A     -0.441081    36A     -0.433959

  @DF-RHF Final Energy:  -422.97666450664161

   => Energetics <=

    Nuclear Repulsion Energy =            453.6063080436827590
    One-Electron Energy =               -1474.8466546897932403
    Two-Electron Energy =                 598.2636821394687558
    DFT Exchange-Correlation Energy =       0.0000000000000000
    Empirical Dispersion Energy =           0.0000000000000000
    PCM Polarization Energy =               0.0000000000000000
    EFP Energy =                            0.0000000000000000
    Total Energy =                       -422.9766645066417823

  Mulliken Charges: (a.u.)
   Center  Symbol    Alpha    Beta     Spin     Total
       1     O     4.28479  4.28479  0.00000 -0.56957
       2     C     2.61514  2.61514  0.00000  0.76973
       3     C     3.28883  3.28883  0.00000 -0.57766
       4     O     4.31059  4.31059  0.00000 -0.62117
       5     H     0.39702  0.39702  0.00000  0.20596
       6     H     0.39948  0.39948  0.00000  0.20104
       7     H     0.39743  0.39743  0.00000  0.20514
       8     C     3.01313  3.01313  0.00000 -0.02625
       9     C     3.16112  3.16112  0.00000 -0.32225
      10     H     0.41403  0.41403  0.00000  0.17195
      11     H     0.39016  0.39016  0.00000  0.21967
      12     C     3.16129  3.16129  0.00000 -0.32259
      13     H     0.41520  0.41520  0.00000  0.16960
      14     H     0.41551  0.41551  0.00000  0.16898
      15     C     3.15132  3.15132  0.00000 -0.30264
      16     H     0.42252  0.42252  0.00000  0.15495
      17     H     0.41932  0.41932  0.00000  0.16136
      18     C     3.23982  3.23982  0.00000 -0.47963
      19     H     0.42190  0.42190  0.00000  0.15621
      20     H     0.42107  0.42107  0.00000  0.15786
      21     H     0.42146  0.42146  0.00000  0.15709
      22     H     0.41827  0.41827  0.00000  0.16346
      23     H     0.42062  0.42062  0.00000  0.15877

   Total alpha = 36.00000, Total beta = 36.00000, Total charge =  0.00000
