  ==> Input File <==

--------------------------------------------------------------------------
set {
	reference rhf
	basis 6-31G*
}

set_num_threads( 4 )
memory 2 gb

molecule MOL {
0 1

H	 1.615969	 -1.714168	 0.157505
O	 2.016064	 -0.864478	 0.000222
C	 1.050492	 0.053836	 0.000068
C	 -0.318135	 -0.576402	 0.000164
O	 1.285279	 1.218255	 -0.000078
C	 -1.454360	 0.441875	 -0.000474
H	 -0.374042	 -1.230163	 -0.866135
H	 -0.374274	 -1.229227	 0.867154
C	 -2.826123	 -0.230780	 0.000056
H	 -1.357605	 1.085198	 -0.868380
H	 -1.357504	 1.086451	 0.866496
H	 -2.959731	 -0.858053	 -0.876869
H	 -3.619374	 0.509403	 -0.000080
H	 -2.959371	 -0.857318	 0.877556

	symmetry c1
}
set optking {
	frozen_dihedral = ("
		1 2 3 5
	")
}

ee = optimize('scf')
oeprop('DIPOLE', 'QUADRUPOLE', 'MULLIKEN_CHARGES')
f=open( 'psi4out.xyz', 'w' )
f.write( "14  " )
f.write( str(ee) + "\n" )
f.write( MOL.save_string_xyz() )
f.close()
--------------------------------------------------------------------------

    Molecular point group: c1
  Charge       = 0
  Multiplicity = 1
  Basis Set: 6-31G*
  Basis Set:
  @DF-RHF Final Energy:  -305.86789944410475
    Total Energy =                       -305.8678994441048076
    Molecular point group: c1
  Basis Set: 6-31G*
  Basis Set:
  Basis Set: 6-31G*
  Basis Set:
  @DF-RHF Final Energy:  -305.86930461705111
    Total Energy =                       -305.8693046170510570
  Basis Set: 6-31G*
  Basis Set:
  Basis Set: 6-31G*
  Basis Set:
  @DF-RHF Final Energy:  -305.86950330668503
    Total Energy =                       -305.8695033066850328
  Basis Set: 6-31G*
  Basis Set:
  Basis Set: 6-31G*
  Basis Set:
  @DF-RHF Final Energy:  -305.86950644857353
    Total Energy =                       -305.8695064485737589
  Basis Set: 6-31G*
  Basis Set:
  Basis Set: 6-31G*
  Basis Set:
  @DF-RHF Final Energy:  -305.86950224191958
    Total Energy =                       -305.8695022419193492
  Basis Set: 6-31G*
  Basis Set:
  Charge       = 0
  Multiplicity = 1
  Basis Set: 6-31G*
  Basis Set:

    Orbital Energies (a.u.)
    -----------------------

    Doubly Occupied:

       1A    -20.612850     2A    -20.547971     3A    -11.380989
       4A    -11.253511     5A    -11.231715     6A    -11.222632
       7A     -1.468589     8A     -1.370396     9A     -1.088495
      10A     -0.978984    11A     -0.853287    12A     -0.819057
      13A     -0.720762    14A     -0.672712    15A     -0.658257
      16A     -0.618371    17A     -0.591909    18A     -0.583178
      19A     -0.553622    20A     -0.509143    21A     -0.496436
      22A     -0.489318    23A     -0.475440    24A     -0.440457

  @DF-RHF Final Energy:  -305.86950711763120

   => Energetics <=

    Nuclear Repulsion Energy =            239.9002838066786296
    One-Electron Energy =                -892.2634188065642320
    Two-Electron Energy =                 346.4936278822544864
    DFT Exchange-Correlation Energy =       0.0000000000000000
    Empirical Dispersion Energy =           0.0000000000000000
    PCM Polarization Energy =               0.0000000000000000
    EFP Energy =                            0.0000000000000000
    Total Energy =                       -305.8695071176310876
    Molecular point group: c1
  Basis Set: 6-31G*
  Basis Set:

  -Total Gradient:
     Atom            X                  Y                   Z
    ------   -----------------  -----------------  -----------------
       1        0.000280720366     0.000318842519     0.002437258142
       2       -0.000349268753    -0.000401591321    -0.002124123165
       3        0.000085045400     0.000077308261    -0.002469045928
       4        0.000003590078     0.000013456379     0.000011692329
       5        0.000005119344     0.000005691437     0.002143754814
       6        0.000011885326    -0.000008116244     0.000000540960
       7       -0.000002524305     0.000000340481     0.000004883419
       8       -0.000007991827    -0.000000530207    -0.000006353781
       9       -0.000021273834     0.000004407877     0.000000625157
      10        0.000002261184    -0.000005206155     0.000005014997
      11        0.000000764043    -0.000002671685    -0.000004040140
      12        0.000000166848     0.000000782819     0.000001308316
      13       -0.000008796935    -0.000002878879     0.000000145058
      14        0.000000303058     0.000000164712    -0.000001660177

  **** Optimization is complete! (in 6 steps) ****
    Final optimized geometry and variables:
    Molecular point group: c1

    Geometry (in Angstrom), charge = 0, multiplicity = 1:

    H            1.780951803555    -1.709875649514     0.146766626854
    O            2.077127660129    -0.822097119757    -0.003477221809
    C            1.062960497010     0.051649255664    -0.000816726847
    C           -0.318900419986    -0.570826251602    -0.000646439375
    O            1.277607041692     1.213341671751     0.002347864862
    C           -1.447001735466     0.456697192560    -0.003660007025
    H           -0.390632983876    -1.223159270962    -0.869154647206
    H           -0.396888783660    -1.218423686114     0.871942778754
    C           -2.825389520892    -0.201933396345    -0.004050059817
    H           -1.339391438667     1.096440371323    -0.872226870212
    H           -1.341625278565     1.100450968412     0.862237524054
    H           -2.965388808074    -0.828831040040    -0.880303879601
    H           -3.609909670184     0.547230050365    -0.006816302325
    H           -2.967954137763    -0.824844031982     0.874702598555

  Mulliken Charges: (a.u.)
   Center  Symbol    Alpha    Beta     Spin     Total
       1     H     0.26870  0.26870  0.00000  0.46261
       2     O     4.35229  4.35229  0.00000 -0.70458
       3     C     2.60642  2.60642  0.00000  0.78715
       4     C     3.23639  3.23639  0.00000 -0.47278
       5     O     4.26327  4.26327  0.00000 -0.52653
       6     C     3.15016  3.15016  0.00000 -0.30031
       7     H     0.40301  0.40301  0.00000  0.19399
       8     H     0.40722  0.40722  0.00000  0.18557
       9     C     3.24384  3.24384  0.00000 -0.48767
      10     H     0.40674  0.40674  0.00000  0.18652
      11     H     0.40711  0.40711  0.00000  0.18578
      12     H     0.42100  0.42100  0.00000  0.15799
      13     H     0.41249  0.41249  0.00000  0.17502
      14     H     0.42138  0.42138  0.00000  0.15725

   Total alpha = 24.00000, Total beta = 24.00000, Total charge = -0.00000
