  ==> Input File <==

--------------------------------------------------------------------------
set {
	reference rhf
	basis 6-31G*
}

set_num_threads( 1 )
memory 2 gb

molecule MOL {
0 1

H	 -0.563488	 -1.558284	 -0.435998
N	 -0.626943	 -0.667432	 -0.000092
C	 -1.884881	 -0.289472	 0.602781
C	 0.469286	 0.129090	 0.000148
H	 -2.679888	 -0.272939	 -0.135254
H	 -1.774928	 0.697857	 1.020898
H	 -2.159298	 -0.978590	 1.394515
C	 1.788933	 -0.616240	 -0.000037
O	 0.411098	 1.327768	 -0.000049
H	 1.872803	 -1.245775	 -0.880381
H	 2.595421	 0.101576	 0.003713
H	 1.870096	 -1.252171	 0.875943

	symmetry c1
}
set optking {
	frozen_dihedral = ("
		4 2 3 5
	")
}

ee = energy('scf')
oeprop('DIPOLE', 'QUADRUPOLE', 'MULLIKEN_CHARGES')
f=open( 'psi4out.xyz', 'w' )
f.write( "12  " )
f.write( str(ee) + "\n" )
f.write( MOL.save_string_xyz() )
f.close()
--------------------------------------------------------------------------

    Molecular point group: c1

    Geometry (in Angstrom), charge = 0, multiplicity = 1:

       Center              X                  Y                   Z               Mass
    ------------   -----------------  -----------------  -----------------  -----------------
           H         -0.583070486693    -1.531294854262    -0.560435357784     1.007825032070
           N         -0.646525486693    -0.640442854262    -0.124529357784    14.003074004780
           C         -1.904463486693    -0.262482854262     0.478343642216    12.000000000000
           C          0.449703513307     0.156079145738    -0.124289357784    12.000000000000
           H         -2.699470486693    -0.245949854262    -0.259691357784     1.007825032070
           H         -1.794510486693     0.724846145738     0.896460642216     1.007825032070
           H         -2.178880486693    -0.951600854262     1.270077642216     1.007825032070
           C          1.769350513307    -0.589250854262    -0.124474357784    12.000000000000
           O          0.391515513307     1.354757145738    -0.124486357784    15.994914619560
           H          1.853220513307    -1.218785854262    -1.004818357784     1.007825032070
           H          2.575838513307     0.128565145738    -0.120724357784     1.007825032070
           H          1.850513513307    -1.225181854262     0.751505642216     1.007825032070

  Charge       = 0
  Multiplicity = 1
  Basis Set: 6-31G*
  Basis Set:

    Orbital Energies (a.u.)
    -----------------------

    Doubly Occupied:

       1A    -20.521801     2A    -15.574157     3A    -11.343909
       4A    -11.255763     5A    -11.228355     6A     -1.386384
       7A     -1.226423     8A     -1.013706     9A     -0.932437
      10A     -0.785734    11A     -0.688006    12A     -0.647537
      13A     -0.633644    14A     -0.585455    15A     -0.581335
      16A     -0.557090    17A     -0.546813    18A     -0.501308
      19A     -0.415392    20A     -0.380682

  @DF-RHF Final Energy:  -246.99590223413961

   => Energetics <=

    Nuclear Repulsion Energy =            181.1242750402616082
    One-Electron Energy =                -694.6283505542212424
    Two-Electron Energy =                 266.5081732798200278
    DFT Exchange-Correlation Energy =       0.0000000000000000
    Empirical Dispersion Energy =           0.0000000000000000
    PCM Polarization Energy =               0.0000000000000000
    EFP Energy =                            0.0000000000000000
    Total Energy =                       -246.9959022341395780

  Mulliken Charges: (a.u.)
   Center  Symbol    Alpha    Beta     Spin     Total
       1     H     0.31157  0.31157  0.00000  0.37686
       2     N     3.89200  3.89200  0.00000 -0.78400
       3     C     3.13908  3.13908  0.00000 -0.27817
       4     C     2.63871  2.63871  0.00000  0.72259
       5     H     0.41577  0.41577  0.00000  0.16845
       6     H     0.39177  0.39177  0.00000  0.21646
       7     H     0.41780  0.41780  0.00000  0.16439
       8     C     3.28968  3.28968  0.00000 -0.57936
       9     O     4.29182  4.29182  0.00000 -0.58365
      10     H     0.41185  0.41185  0.00000  0.17631
      11     H     0.39438  0.39438  0.00000  0.21124
      12     H     0.40556  0.40556  0.00000  0.18887

   Total alpha = 20.00000, Total beta = 20.00000, Total charge = -0.00000
