  ==> Input File <==

--------------------------------------------------------------------------
set {
	reference rhf
	basis 6-31G*
}

set_num_threads( 4 )
memory 2 gb

molecule MOL {
0 1

O	 1.631660	 -0.412498	 0.055089
C	 0.576249	 0.131685	 -0.000108
C	 -0.766779	 -0.556801	 -0.000461
O	 0.441088	 1.449819	 -0.070227
C	 -1.945214	 0.412366	 0.000161
H	 -0.796911	 -1.211249	 -0.867467
H	 -0.796854	 -1.212390	 0.865687
C	 -3.287791	 -0.317055	 0.000105
H	 -1.876087	 1.060580	 -0.866812
H	 -1.875822	 1.059691	 0.867761
H	 -3.394745	 -0.949193	 -0.877058
H	 -4.111778	 0.388953	 0.000015
H	 -3.394954	 -0.949187	 0.877259
C	 1.630444	 2.218312	 -0.077934
H	 2.196352	 2.051667	 0.827339
H	 1.315655	 3.248448	 -0.137894
H	 2.242177	 1.963297	 -0.931315

	symmetry c1
}
set optking {
	frozen_dihedral = ("
		1 2 3 6
	")
}

ee = optimize('scf')
oeprop('DIPOLE', 'QUADRUPOLE', 'MULLIKEN_CHARGES')
f=open( 'psi4out.xyz', 'w' )
f.write( "17  " )
f.write( str(ee) + "\n" )
f.write( MOL.save_string_xyz() )
f.close()
--------------------------------------------------------------------------

    Molecular point group: c1
  Charge       = 0
  Multiplicity = 1
  Basis Set: 6-31G*
  Basis Set:
  @DF-RHF Final Energy:  -344.90280267541488
    Total Energy =                       -344.9028026754150460
    Molecular point group: c1
  Basis Set: 6-31G*
  Basis Set:
  Basis Set: 6-31G*
  Basis Set:
  @DF-RHF Final Energy:  -344.90377684934003
    Total Energy =                       -344.9037768493400336
  Basis Set: 6-31G*
  Basis Set:
  Basis Set: 6-31G*
  Basis Set:
  @DF-RHF Final Energy:  -344.90420627257936
    Total Energy =                       -344.9042062725793585
  Basis Set: 6-31G*
  Basis Set:
  Basis Set: 6-31G*
  Basis Set:
  @DF-RHF Final Energy:  -344.90420594018423
    Total Energy =                       -344.9042059401847382
  Basis Set: 6-31G*
  Basis Set:
  Basis Set: 6-31G*
  Basis Set:
  @DF-RHF Final Energy:  -344.90419590557661
    Total Energy =                       -344.9041959055768984
  Basis Set: 6-31G*
  Basis Set:
  Basis Set: 6-31G*
  Basis Set:
  @DF-RHF Final Energy:  -344.90423568883102
    Total Energy =                       -344.9042356888309087
  Basis Set: 6-31G*
  Basis Set:
  Charge       = 0
  Multiplicity = 1
  Basis Set: 6-31G*
  Basis Set:

    Orbital Energies (a.u.)
    -----------------------

    Doubly Occupied:

       1A    -20.607114     2A    -20.540474     3A    -11.372917
       4A    -11.281980     5A    -11.236348     6A    -11.225887
       7A    -11.216781     8A     -1.470723     9A     -1.361200
      10A     -1.082853    11A     -0.997274    12A     -0.943480
      13A     -0.831306    14A     -0.775261    15A     -0.696813
      16A     -0.684190    17A     -0.669741    18A     -0.637994
      19A     -0.595632    20A     -0.571607    21A     -0.559465
      22A     -0.529122    23A     -0.522184    24A     -0.517933
      25A     -0.489758    26A     -0.484231    27A     -0.451767
      28A     -0.430446

  @DF-RHF Final Energy:  -344.90423582135941

   => Energetics <=

    Nuclear Repulsion Energy =            314.3224997280051412
    One-Electron Energy =               -1092.8845066627636697
    Two-Electron Energy =                 433.6577711133991215
    DFT Exchange-Correlation Energy =       0.0000000000000000
    Empirical Dispersion Energy =           0.0000000000000000
    PCM Polarization Energy =               0.0000000000000000
    EFP Energy =                            0.0000000000000000
    Total Energy =                       -344.9042358213594071
    Molecular point group: c1
  Basis Set: 6-31G*
  Basis Set:

  -Total Gradient:
     Atom            X                  Y                   Z
    ------   -----------------  -----------------  -----------------
       1       -0.000023169916     0.000013828903    -0.000184233375
       2        0.000035519961    -0.000072709500     0.000277270274
       3       -0.000079961194     0.000166372922    -0.000199133468
       4        0.000015141342     0.000039501867    -0.000001537362
       5        0.000000743627     0.000006348973     0.000014497442
       6        0.000069395288    -0.000135062685     0.000097193797
       7        0.000000634027     0.000001030658     0.000000319733
       8        0.000001732942    -0.000007348877    -0.000006388551
       9        0.000000908595     0.000001155602     0.000000199599
      10        0.000000306125     0.000001011920     0.000000536124
      11       -0.000000957913    -0.000003152411    -0.000000264842
      12        0.000004183483     0.000000650518    -0.000002364615
      13       -0.000001146812     0.000002077269     0.000002126576
      14       -0.000030938056    -0.000014007179     0.000002513831
      15        0.000001524795    -0.000001514371     0.000001860722
      16        0.000005591956     0.000004669917    -0.000000390145
      17        0.000000491750    -0.000002853526    -0.000002205737

  **** Optimization is complete! (in 7 steps) ****
    Final optimized geometry and variables:
    Molecular point group: c1

    Geometry (in Angstrom), charge = 0, multiplicity = 1:

    O            1.815582085504    -0.861638634711     0.081450733829
    C            0.789417613950    -0.263083925000     0.016912986623
    C           -0.564074829221    -0.940062291174     0.008457030274
    O            0.726679624442     1.056691258569    -0.063394503991
    C           -1.793799010009    -0.033342126901     0.015034137756
    H           -0.569165385540    -1.587386682978    -0.864285561041
    H           -0.570868401715    -1.606263290180     0.865798022745
    C           -3.090812281163    -0.841839308611     0.015561935260
    H           -1.769696933747     0.620036266495    -0.850330856679
    H           -1.765298761048     0.612783127477     0.886325273289
    H           -3.160883800004    -1.476333276956    -0.863468415412
    H           -3.955812432632    -0.186682124225     0.019504155538
    H           -3.157056371294    -1.482047173681     0.890677129322
    C            1.957829201110     1.757607340842    -0.069108385422
    H            2.507769989168     1.564227855837     0.840377677305
    H            1.701092960025     2.803195556758    -0.137483782746
    H            2.557955934077     1.461604851229    -0.917196051790

  Mulliken Charges: (a.u.)
   Center  Symbol    Alpha    Beta     Spin     Total
       1     O     4.28906  4.28906  0.00000 -0.57812
       2     C     2.60498  2.60498  0.00000  0.79003
       3     C     3.21029  3.21029  0.00000 -0.42058
       4     O     4.30436  4.30436  0.00000 -0.60872
       5     C     3.15068  3.15068  0.00000 -0.30136
       6     H     0.39861  0.39861  0.00000  0.20278
       7     H     0.39826  0.39826  0.00000  0.20348
       8     C     3.24319  3.24319  0.00000 -0.48639
       9     H     0.41285  0.41285  0.00000  0.17429
      10     H     0.41423  0.41423  0.00000  0.17154
      11     H     0.42034  0.42034  0.00000  0.15932
      12     H     0.41548  0.41548  0.00000  0.16903
      13     H     0.42019  0.42019  0.00000  0.15961
      14     C     3.09281  3.09281  0.00000 -0.18562
      15     H     0.40804  0.40804  0.00000  0.18393
      16     H     0.40851  0.40851  0.00000  0.18299
      17     H     0.40810  0.40810  0.00000  0.18380

   Total alpha = 28.00000, Total beta = 28.00000, Total charge = -0.00000
