                              Psi4 1.0.54 Driver

  ==> Input File <==

--------------------------------------------------------------------------
set {
	reference rhf
	basis cc-pvtz
}

set_num_threads( 4 )
memory 2 gb

molecule MOL {
0 1

H	 1.323402	 -1.197186	 2.025694
O	 0.647336	 -0.639270	 1.688472
C	 1.135873	 0.113391	 0.608264
C	 0.027642	 1.012027	 0.090274
H	 1.463324	 -0.543914	 -0.193293
H	 1.994940	 0.703581	 0.915088
C	 -1.138737	 0.285728	 -0.581921
H	 0.464661	 1.708096	 -0.618252
H	 -0.340737	 1.603071	 0.925246
C	 -1.933983	 -0.631436	 0.343653
H	 -0.763151	 -0.285569	 -1.422081
H	 -1.808359	 1.035291	 -0.992333
H	 -2.789188	 -1.049673	 -0.174718
H	 -1.335629	 -1.461368	 0.700418
H	 -2.305435	 -0.092167	 1.209725

	symmetry c1
}
set optking {
	frozen_dihedral = ("
		2 3 4 8
	")
}

ee,wfn = optimize('scf', return_wfn=True)
oeprop( wfn, 'DIPOLE', 'QUADRUPOLE', 'MULLIKEN_CHARGES')
f=open( 'psi4out.xyz', 'w' )
f.write( "15  " )
f.write( str(ee) + "\n" )
f.write( MOL.save_string_xyz() )
f.close()
--------------------------------------------------------------------------

    Molecular point group: c1
  Charge       = 0
  Multiplicity = 1
  Basis Set: CC-PVTZ
  Basis Set:
  @DF-RHF Final Energy:  -232.23476289867892
    Total Energy =                       -232.2347628986790937
    Molecular point group: c1
  Basis Set: CC-PVTZ
  Basis Set:
  Basis Set: CC-PVTZ
  Basis Set:
  @DF-RHF Final Energy:  -232.23577772914282
    Total Energy =                       -232.2357777291426828
  Basis Set: CC-PVTZ
  Basis Set:
  Basis Set: CC-PVTZ
  Basis Set:
  @DF-RHF Final Energy:  -232.23596132648100
    Total Energy =                       -232.2359613264808900
  Basis Set: CC-PVTZ
  Basis Set:
  Basis Set: CC-PVTZ
  Basis Set:
  @DF-RHF Final Energy:  -232.23601127888290
    Total Energy =                       -232.2360112788828701
  Basis Set: CC-PVTZ
  Basis Set:
  Basis Set: CC-PVTZ
  Basis Set:
  @DF-RHF Final Energy:  -232.23610686024759
    Total Energy =                       -232.2361068602476735
  Basis Set: CC-PVTZ
  Basis Set:
  Basis Set: CC-PVTZ
  Basis Set:
  @DF-RHF Final Energy:  -232.23611033015536
    Total Energy =                       -232.2361103301552703
  Basis Set: CC-PVTZ
  Basis Set:
  Charge       = 0
  Multiplicity = 1
  Basis Set: CC-PVTZ
  Basis Set:

    Orbital Energies (a.u.)
    -----------------------

    Doubly Occupied:

       1A    -20.547208     2A    -11.266970     3A    -11.212029
       4A    -11.209881     5A    -11.193548     6A     -1.365221
       7A     -1.063463     8A     -0.971926     9A     -0.862612
      10A     -0.779386    11A     -0.707407    12A     -0.647474
      13A     -0.604919    14A     -0.581116    15A     -0.551885
      16A     -0.539183    17A     -0.510198    18A     -0.470425
      19A     -0.468586    20A     -0.452236    21A     -0.430836

  @DF-RHF Final Energy:  -232.23611059001254

   => Energetics <=

    Nuclear Repulsion Energy =            192.3328196430721562
    One-Electron Energy =                -696.2648466401806218
    Two-Electron Energy =                 271.6959164070959218
    DFT Exchange-Correlation Energy =       0.0000000000000000
    Empirical Dispersion Energy =           0.0000000000000000
    PCM Polarization Energy =               0.0000000000000000
    EFP Energy =                            0.0000000000000000
    Total Energy =                       -232.2361105900125153
    Molecular point group: c1
  Basis Set: CC-PVTZ
  Basis Set:

  -Total Gradient:
     Atom            X                  Y                   Z
    ------   -----------------  -----------------  -----------------
       1        0.000003511301     0.000015741867    -0.000008579126
       2       -0.000070032988    -0.000145917096    -0.000122978301
       3        0.000089596539     0.000153365876     0.000127883968
       4        0.000030801280     0.000127381737     0.000188488941
       5       -0.000001589537    -0.000001478541    -0.000001008167
       6       -0.000000848556     0.000000171204    -0.000005198460
       7       -0.000004822240    -0.000000834138     0.000003967563
       8       -0.000030875878    -0.000159200447    -0.000180282109
       9       -0.000006421290    -0.000000637412    -0.000004743523
      10       -0.000000404910     0.000006546592     0.000019397851
      11        0.000010890508     0.000013461178     0.000002126017
      12       -0.000006597139    -0.000002822349    -0.000007790654
      13       -0.000004863820    -0.000001712790    -0.000000041130
      14       -0.000003843423     0.000001980574    -0.000006449299
      15       -0.000004499843    -0.000006046257    -0.000004793568

  **** Optimization is complete! (in 7 steps) ****
    Final optimized geometry and variables:
    Molecular point group: c1

    Geometry (in Angstrom), charge = 0, multiplicity = 1:

    H            1.731182305661    -1.202336558264     1.474444784690
    O            0.997534944844    -0.692405034148     1.184712808095
    C            1.386503581479     0.152086837441     0.132375207296
    C            0.215373754058     1.004603076332    -0.322719001109
    H            1.759965364348    -0.433764526171    -0.705478053515
    H            2.191447587414     0.805949455206     0.458793031635
    C           -0.919622580182     0.267718510984    -1.040778811425
    H            0.620433041222     1.749886830220    -1.001743687450
    H           -0.175560746327     1.543923677041     0.534953819745
    C           -1.834476132435    -0.567763772550    -0.148155223505
    H           -0.496378287453    -0.362510735948    -1.819117410848
    H           -1.524112222558     1.010012207362    -1.553504469125
    H           -2.642621565040    -0.995466039077    -0.731848106553
    H           -1.298477824384    -1.371616362920     0.334329732567
    H           -2.278178578234     0.044971293801     0.629743183539

  Mulliken Charges: (a.u.)
   Center  Symbol    Alpha    Beta     Spin     Total
       1     H     0.39624  0.39624  0.00000  0.20752
       2     O     4.19671  4.19671  0.00000 -0.39341
       3     C     2.97258  2.97258  0.00000  0.05483
       4     C     3.09530  3.09530  0.00000 -0.19060
       5     H     0.47433  0.47433  0.00000  0.05134
       6     H     0.46459  0.46459  0.00000  0.07083
       7     C     3.08712  3.08712  0.00000 -0.17424
       8     H     0.44944  0.44944  0.00000  0.10111
       9     H     0.45219  0.45219  0.00000  0.09562
      10     C     3.14390  3.14390  0.00000 -0.28780
      11     H     0.45826  0.45826  0.00000  0.08348
      12     H     0.45090  0.45090  0.00000  0.09819
      13     H     0.45338  0.45338  0.00000  0.09324
      14     H     0.44723  0.44723  0.00000  0.10554
      15     H     0.45783  0.45783  0.00000  0.08433

   Total alpha = 21.00000, Total beta = 21.00000, Total charge = -0.00000

*** Psi4 exiting successfully. Buy a developer a beer!
