  ==> Input File <==

--------------------------------------------------------------------------
set {
	reference rhf
	basis cc-pvtz
}

set_num_threads( 4 )
memory 2 gb

molecule MOL {
0 1

H	 3.889604	 0.356866	 -0.089510
N	 3.091268	 -0.241216	 -0.065538
C	 1.860978	 0.530248	 0.016256
H	 3.192566	 -0.835836	 0.730398
C	 0.644130	 -0.381765	 -0.031064
H	 1.835721	 1.204666	 -0.833114
H	 1.808789	 1.151975	 0.911067
C	 -0.678115	 0.376691	 0.025731
H	 0.693998	 -0.977147	 -0.936845
H	 0.693309	 -1.082142	 0.800523
C	 -0.633231	 1.602497	 0.933799
H	 -1.462396	 -0.293373	 0.370508
H	 -0.962985	 0.686446	 -0.977151
C	 -1.958757	 2.354270	 0.992881
H	 -0.348328	 1.295245	 1.936155
H	 0.147173	 2.275522	 0.589156
H	 -2.753490	 1.717516	 1.367293
H	 -1.892432	 3.217435	 1.645225
H	 -2.254220	 2.705124	 0.009550

	symmetry c1
}
set optking {
	frozen_dihedral = ("
		12 8 5 9
	")
}

ee = optimize('scf')
oeprop('DIPOLE', 'QUADRUPOLE', 'MULLIKEN_CHARGES')
f=open( 'psi4out.xyz', 'w' )
f.write( "19  " )
f.write( str(ee) + "\n" )
f.write( MOL.save_string_xyz() )
f.close()
--------------------------------------------------------------------------

    Molecular point group: c1
  Charge       = 0
  Multiplicity = 1
  Basis Set: CC-PVTZ
  Basis Set:
  @DF-RHF Final Energy:  -251.44065834735704
    Total Energy =                       -251.4406583473571573
    Molecular point group: c1
  Basis Set: CC-PVTZ
  Basis Set:
  Basis Set: CC-PVTZ
  Basis Set:
  @DF-RHF Final Energy:  -251.44161605930853
    Total Energy =                       -251.4416160593085579
  Basis Set: CC-PVTZ
  Basis Set:
  Basis Set: CC-PVTZ
  Basis Set:
  @DF-RHF Final Energy:  -251.44317119976816
    Total Energy =                       -251.4431711997680168
  Basis Set: CC-PVTZ
  Basis Set:
  Basis Set: CC-PVTZ
  Basis Set:
  @DF-RHF Final Energy:  -251.44334232958511
    Total Energy =                       -251.4433423295851071
  Basis Set: CC-PVTZ
  Basis Set:
  Basis Set: CC-PVTZ
  Basis Set:
  @DF-RHF Final Energy:  -251.44336021313214
    Total Energy =                       -251.4433602131321095
  Basis Set: CC-PVTZ
  Basis Set:
  Basis Set: CC-PVTZ
  Basis Set:
  @DF-RHF Final Energy:  -251.44336213264674
    Total Energy =                       -251.4433621326465413
  Basis Set: CC-PVTZ
  Basis Set:
  Charge       = 0
  Multiplicity = 1
  Basis Set: CC-PVTZ
  Basis Set:

    Orbital Energies (a.u.)
    -----------------------

    Doubly Occupied:

       1A    -15.525961     2A    -11.237004     3A    -11.212502
       4A    -11.211220     5A    -11.208378     6A    -11.205980
       7A     -1.177768     8A     -1.073047     9A     -0.996807
      10A     -0.899725    11A     -0.833586    12A     -0.771297
      13A     -0.657111    14A     -0.644166    15A     -0.627999
      16A     -0.586407    17A     -0.571707    18A     -0.544063
      19A     -0.529648    20A     -0.505720    21A     -0.487181
      22A     -0.461539    23A     -0.454881    24A     -0.449289
      25A     -0.383105

  @DF-RHF Final Energy:  -251.44336248427231

   => Energetics <=

    Nuclear Repulsion Energy =            249.9693816237751776
    One-Electron Energy =                -834.3133033984237272
    Two-Electron Energy =                 332.9005592903764637
    DFT Exchange-Correlation Energy =       0.0000000000000000
    Empirical Dispersion Energy =           0.0000000000000000
    PCM Polarization Energy =               0.0000000000000000
    EFP Energy =                            0.0000000000000000
    Total Energy =                       -251.4433624842721429
    Molecular point group: c1
  Basis Set: CC-PVTZ
  Basis Set:

  -Total Gradient:
     Atom            X                  Y                   Z
    ------   -----------------  -----------------  -----------------
       1        0.000000024207     0.000005382754    -0.000003180521
       2        0.000000955503    -0.000009553112     0.000007119156
       3        0.000021799688     0.000015950091     0.000042665490
       4        0.000005890836     0.000004952044    -0.000001622455
       5       -0.002818372715    -0.004651952255     0.004260712072
       6       -0.000003625029    -0.000018537290    -0.000004331817
       7        0.000005239464     0.000007472821    -0.000001489449
       8       -0.000523802412    -0.000933724965    -0.006715400844
       9        0.002419736044     0.004030426245    -0.002599783901
      10        0.000006988497     0.000012938874    -0.000014033973
      11        0.000022955196     0.000063402773    -0.000044038317
      12        0.000873518020     0.001491644004     0.005049587828
      13        0.000009612421     0.000007767418     0.000009191240
      14       -0.000005251856    -0.000004068523     0.000008777575
      15        0.000007051997    -0.000015518255    -0.000006793221
      16       -0.000017201560    -0.000002319495     0.000007836117
      17       -0.000007199030    -0.000002144939    -0.000004634720
      18       -0.000002739090    -0.000006490265     0.000006100649
      19        0.000004419816     0.000004372076     0.000003319089

  **** Optimization is complete! (in 7 steps) ****
    Final optimized geometry and variables:
    Molecular point group: c1

    Geometry (in Angstrom), charge = 0, multiplicity = 1:

    H            3.525302041406    -0.512397348460    -0.502952968055
    N            2.688165861898    -1.055126812248    -0.478399241820
    C            1.521266016283    -0.206136869221    -0.285638530969
    H            2.782506191662    -1.704575291441     0.274716555031
    C            0.251787370981    -1.052307898642    -0.281989287439
    H            1.483197633473     0.495470324733    -1.113137060589
    H            1.582482016659     0.384522443524     0.625803378928
    C           -1.064668838720    -0.262321505813    -0.285787293115
    H            0.299651229239    -1.659643809201    -1.178539979837
    H            0.278726746046    -1.723037688354     0.572779948452
    C           -1.108248726469     0.964394922796     0.628420595864
    H           -1.856256909302    -0.926618724723     0.048539247090
    H           -1.305114138090     0.043903900641    -1.299330593875
    C           -2.489470884315     1.610834883430     0.666396278235
    H           -0.820350976355     0.675629526897     1.636163097640
    H           -0.383274692136     1.702507790898     0.303053113765
    H           -3.237819037858     0.916504349286     1.033800608054
    H           -2.499090380668     2.480411399780     1.313641679338
    H           -2.797460192774     1.932307998030    -0.323185559647

  Mulliken Charges: (a.u.)
   Center  Symbol    Alpha    Beta     Spin     Total
       1     H     0.43007  0.43007  0.00000  0.13986
       2     N     3.69161  3.69161  0.00000 -0.38323
       3     C     3.02781  3.02781  0.00000 -0.05562
       4     H     0.43100  0.43100  0.00000  0.13800
       5     C     3.09194  3.09194  0.00000 -0.18389
       6     H     0.45603  0.45603  0.00000  0.08795
       7     H     0.46356  0.46356  0.00000  0.07288
       8     C     3.09732  3.09732  0.00000 -0.19464
       9     H     0.44453  0.44453  0.00000  0.11094
      10     H     0.45733  0.45733  0.00000  0.08535
      11     C     3.09146  3.09146  0.00000 -0.18292
      12     H     0.45139  0.45139  0.00000  0.09722
      13     H     0.45088  0.45088  0.00000  0.09824
      14     C     3.15018  3.15018  0.00000 -0.30036
      15     H     0.45392  0.45392  0.00000  0.09216
      16     H     0.45236  0.45236  0.00000  0.09528
      17     H     0.45490  0.45490  0.00000  0.09021
      18     H     0.44862  0.44862  0.00000  0.10276
      19     H     0.45509  0.45509  0.00000  0.08982

   Total alpha = 25.00000, Total beta = 25.00000, Total charge = -0.00000
