                              Psi4 1.0.54 Driver

  ==> Input File <==

--------------------------------------------------------------------------
set {
	reference rhf
	basis cc-pvtz
}

set_num_threads( 4 )
memory 2 gb

molecule MOL {
0 1

O	 0.749630	 1.305591	 -0.000460
C	 0.576499	 0.134701	 -0.003900
C	 -0.765656	 -0.550508	 -0.002152
O	 1.564816	 -0.744612	 -0.000631
C	 -1.945526	 0.411052	 0.000603
H	 -0.794329	 -1.203792	 -0.868145
H	 -0.791555	 -1.205429	 0.862701
C	 -3.282915	 -0.321280	 0.002596
H	 -1.880300	 1.059126	 -0.864925
H	 -1.877207	 1.057892	 0.866807
H	 -3.388495	 -0.952755	 -0.873419
H	 -4.107811	 0.380864	 0.004116
H	 -3.385717	 -0.953283	 0.878571
C	 2.341298	 -0.852545	 -1.176827
H	 1.725737	 -1.145745	 -2.014187
H	 3.081494	 -1.609713	 -0.975588
H	 2.821481	 0.087557	 -1.404144

	symmetry c1
}
set optking {
	frozen_dihedral = ("
		14 4 2 1
	")
}

ee,wfn = optimize('scf', return_wfn=True)
oeprop( wfn, 'DIPOLE', 'QUADRUPOLE', 'MULLIKEN_CHARGES')
f=open( 'psi4out.xyz', 'w' )
f.write( "17  " )
f.write( str(ee) + "\n" )
f.write( MOL.save_string_xyz() )
f.close()
--------------------------------------------------------------------------

    Molecular point group: c1
  Charge       = 0
  Multiplicity = 1
  Basis Set: CC-PVTZ
  Basis Set:
  @DF-RHF Final Energy:  -345.01826265339571
    Total Energy =                       -345.0182626533956523
    Molecular point group: c1
  Basis Set: CC-PVTZ
  Basis Set:
  Basis Set: CC-PVTZ
  Basis Set:
  @DF-RHF Final Energy:  -344.95746951902044
    Total Energy =                       -344.9574695190203215
  Basis Set: CC-PVTZ
  Basis Set:
  Basis Set: CC-PVTZ
  Basis Set:
  @DF-RHF Final Energy:  -345.01363003602188
    Total Energy =                       -345.0136300360218229
  Basis Set: CC-PVTZ
  Basis Set:
  Basis Set: CC-PVTZ
  Basis Set:
  @DF-RHF Final Energy:  -345.01903256253343
    Total Energy =                       -345.0190325625331980
  Basis Set: CC-PVTZ
  Basis Set:
  Basis Set: CC-PVTZ
  Basis Set:
  @DF-RHF Final Energy:  -345.01891055642909
    Total Energy =                       -345.0189105564289775
  Basis Set: CC-PVTZ
  Basis Set:
  Basis Set: CC-PVTZ
  Basis Set:
  @DF-RHF Final Energy:  -345.01933643595845
    Total Energy =                       -345.0193364359587918
  Basis Set: CC-PVTZ
  Basis Set:
  Basis Set: CC-PVTZ
  Basis Set:
  @DF-RHF Final Energy:  -345.01934055660172
    Total Energy =                       -345.0193405566018328
  Basis Set: CC-PVTZ
  Basis Set:
  Charge       = 0
  Multiplicity = 1
  Basis Set: CC-PVTZ
  Basis Set:

    Orbital Energies (a.u.)
    -----------------------

    Doubly Occupied:

       1A    -20.579925     2A    -20.544636     3A    -11.367804
       4A    -11.286335     5A    -11.237456     6A    -11.222289
       7A    -11.214699     8A     -1.463038     9A     -1.369052
      10A     -1.082413    11A     -0.994988    12A     -0.947852
      13A     -0.833186    14A     -0.766547    15A     -0.701570
      16A     -0.681121    17A     -0.675584    18A     -0.634752
      19A     -0.615488    20A     -0.579140    21A     -0.566407
      22A     -0.536381    23A     -0.520914    24A     -0.499876
      25A     -0.492170    26A     -0.481533    27A     -0.456532
      28A     -0.438333

  @DF-RHF Final Energy:  -345.01934085621417

   => Energetics <=

    Nuclear Repulsion Energy =            312.5564372718241657
    One-Electron Energy =               -1089.5715050517801501
    Two-Electron Energy =                 431.9957269237416995
    DFT Exchange-Correlation Energy =       0.0000000000000000
    Empirical Dispersion Energy =           0.0000000000000000
    PCM Polarization Energy =               0.0000000000000000
    EFP Energy =                            0.0000000000000000
    Total Energy =                       -345.0193408562142849
    Molecular point group: c1
  Basis Set: CC-PVTZ
  Basis Set:

  -Total Gradient:
     Atom            X                  Y                   Z
    ------   -----------------  -----------------  -----------------
       1        0.002074189096     0.000425035204     0.006504244827
       2       -0.004568507288    -0.002668508872    -0.009763623978
       3       -0.000039253329     0.000031621905    -0.000045954044
       4        0.005886807763     0.006491655299     0.003984231988
       5        0.000009443516    -0.000003377492     0.000030665941
       6       -0.000007242859    -0.000013710392    -0.000007635085
       7        0.000008077470     0.000001101014     0.000006974328
       8       -0.000025312365     0.000003455772    -0.000014962758
       9       -0.000003096559     0.000010263888    -0.000017287692
      10        0.000014426725     0.000006291243     0.000001748573
      11       -0.000007273386    -0.000014153503    -0.000004394009
      12        0.000005245490    -0.000002767736    -0.000004469198
      13        0.000005292227    -0.000008709132     0.000018417158
      14       -0.003327900606    -0.004233406745    -0.000687651118
      15       -0.000031210760    -0.000032836117    -0.000020947372
      16       -0.000005702069     0.000003568983     0.000016448894
      17        0.000012016935     0.000004476679     0.000004193547

  **** Optimization is complete! (in 8 steps) ****
    Final optimized geometry and variables:
    Molecular point group: c1

    Geometry (in Angstrom), charge = 0, multiplicity = 1:

    O            0.676753131090     1.457226225727    -0.207090851508
    C            0.623598163285     0.284543979485    -0.115720295116
    C           -0.550664774124    -0.493458537773     0.414968009850
    O            1.676786116908    -0.505278322475    -0.402130369034
    C           -1.731756885934     0.366476195939     0.840075318936
    H           -0.838767978361    -1.204482442486    -0.355098794684
    H           -0.180457109942    -1.094754451500     1.239444352972
    C           -2.890885847808    -0.468686495145     1.373009348618
    H           -2.062227262563     0.962043030645    -0.002647370695
    H           -1.404832576021     1.070211447633     1.596053206070
    H           -3.257048987945    -1.161233195211     0.622058634127
    H           -3.718804279024     0.163969518538     1.669179204408
    H           -2.592814900048    -1.049665049725     2.239561355839
    C            2.049950411360    -0.602281929299    -1.759488706851
    H            1.263649905988    -1.074136006986    -2.338448597755
    H            2.933892729600    -1.217999871682    -1.795543222789
    H            2.269236039621     0.373721113452    -2.169756565576

  Mulliken Charges: (a.u.)
   Center  Symbol    Alpha    Beta     Spin     Total
       1     O     4.17420  4.17420  0.00000 -0.34840
       2     C     2.79280  2.79280  0.00000  0.41439
       3     C     3.10475  3.10475  0.00000 -0.20950
       4     O     4.16844  4.16844  0.00000 -0.33689
       5     C     3.07997  3.07997  0.00000 -0.15995
       6     H     0.44544  0.44544  0.00000  0.10912
       7     H     0.43772  0.43772  0.00000  0.12456
       8     C     3.15048  3.15048  0.00000 -0.30096
       9     H     0.44731  0.44731  0.00000  0.10538
      10     H     0.44535  0.44535  0.00000  0.10929
      11     H     0.45632  0.45632  0.00000  0.08736
      12     H     0.44525  0.44525  0.00000  0.10951
      13     H     0.45517  0.45517  0.00000  0.08967
      14     C     3.03504  3.03504  0.00000 -0.07009
      15     H     0.46723  0.46723  0.00000  0.06554
      16     H     0.44466  0.44466  0.00000  0.11068
      17     H     0.44986  0.44986  0.00000  0.10029

   Total alpha = 28.00000, Total beta = 28.00000, Total charge = -0.00000

*** Psi4 exiting successfully. Buy a developer a beer!
