  ==> Input File <==

--------------------------------------------------------------------------
set {
	reference rhf
	basis cc-pvtz
}

set_num_threads( 4 )
memory 2 gb

molecule MOL {
0 1

H	 1.163918	 1.660030	 0.709277
O	 0.352067	 1.176803	 0.738526
C	 0.489979	 0.078084	 0.002623
C	 -0.763662	 -0.754014	 0.000816
O	 1.496436	 -0.181786	 -0.560780
C	 -2.038001	 0.074705	 -0.000833
H	 -0.712945	 -1.405886	 -0.864342
H	 -0.715137	 -1.405770	 0.866182
H	 -2.087267	 0.710831	 -0.874232
H	 -2.903419	 -0.576199	 -0.001922
H	 -2.089467	 0.710909	 0.872389

	symmetry c1
}
set optking {
	frozen_dihedral = ("
		2 3 4 7
	")
}

ee = optimize('scf')
oeprop('DIPOLE', 'QUADRUPOLE', 'MULLIKEN_CHARGES')
f=open( 'psi4out.xyz', 'w' )
f.write( "11  " )
f.write( str(ee) + "\n" )
f.write( MOL.save_string_xyz() )
f.close()
--------------------------------------------------------------------------

    Molecular point group: c1
  Charge       = 0
  Multiplicity = 1
  Basis Set: CC-PVTZ
  Basis Set:
  @DF-RHF Final Energy:  -266.95061785966044
    Total Energy =                       -266.9506178596602126
    Molecular point group: c1
  Basis Set: CC-PVTZ
  Basis Set:
  Basis Set: CC-PVTZ
  Basis Set:
  @DF-RHF Final Energy:  -266.95104233587210
    Total Energy =                       -266.9510423358720459
  Basis Set: CC-PVTZ
  Basis Set:
  Basis Set: CC-PVTZ
  Basis Set:
  @DF-RHF Final Energy:  -266.95064100700336
    Total Energy =                       -266.9506410070034690
  Basis Set: CC-PVTZ
  Basis Set:
  Basis Set: CC-PVTZ
  Basis Set:
  @DF-RHF Final Energy:  -266.95116547514760
    Total Energy =                       -266.9511654751477181
  Basis Set: CC-PVTZ
  Basis Set:
  Charge       = 0
  Multiplicity = 1
  Basis Set: CC-PVTZ
  Basis Set:

    Orbital Energies (a.u.)
    -----------------------

    Doubly Occupied:

       1A    -20.606595     2A    -20.539081     3A    -11.374302
       4A    -11.242838     5A    -11.225047     6A     -1.479164
       7A     -1.369071     8A     -1.068102     9A     -0.911679
      10A     -0.824481    11A     -0.705844    12A     -0.682831
      13A     -0.655872    14A     -0.605993    15A     -0.591605
      16A     -0.552851    17A     -0.526388    18A     -0.513610
      19A     -0.479725    20A     -0.443510

  @DF-RHF Final Energy:  -266.95116854350039

   => Energetics <=

    Nuclear Repulsion Energy =            180.4196975643968699
    One-Electron Energy =                -721.9445583841549023
    Two-Electron Energy =                 274.5736922762578160
    DFT Exchange-Correlation Energy =       0.0000000000000000
    Empirical Dispersion Energy =           0.0000000000000000
    PCM Polarization Energy =               0.0000000000000000
    EFP Energy =                            0.0000000000000000
    Total Energy =                       -266.9511685435002164
    Molecular point group: c1
  Basis Set: CC-PVTZ
  Basis Set:

  -Total Gradient:
     Atom            X                  Y                   Z
    ------   -----------------  -----------------  -----------------
       1        0.000033800905     0.000064384524     0.000020131677
       2       -0.000195684394     0.000456993047    -0.000554617134
       3        0.000324982617    -0.000673185166     0.000569197641
       4        0.000384601160    -0.000680356138     0.000336341057
       5       -0.000155857939     0.000151544625     0.000112365481
       6        0.000026267806     0.000022948979    -0.000001466066
       7       -0.000413256075     0.000606668869    -0.000474872767
       8        0.000006717950     0.000043725181    -0.000012862387
       9       -0.000000440771     0.000004279753    -0.000003806683
      10       -0.000005957935    -0.000013613143     0.000005683288
      11       -0.000005173327     0.000016609469     0.000003905894

  **** Optimization is complete! (in 5 steps) ****
    Final optimized geometry and variables:
    Molecular point group: c1

    Geometry (in Angstrom), charge = 0, multiplicity = 1:

    H            1.300552665776     1.529812535975     0.655173034202
    O            0.466941170431     1.084299324084     0.680222075649
    C            0.565801440688    -0.025862242867    -0.043480648210
    C           -0.695574085852    -0.850512839152    -0.049197865322
    O            1.565927352960    -0.324188536558    -0.599888536096
    C           -1.995279337704    -0.051182937579    -0.049267185733
    H           -0.634124785421    -1.497435575804    -0.911937192803
    H           -0.647554224872    -1.483781380641     0.831479959149
    H           -2.053836916060     0.601358190311    -0.912161475436
    H           -2.839755254885    -0.727821301758    -0.085697062599
    H           -2.085750263127     0.558632168617     0.838314291695

  Mulliken Charges: (a.u.)
   Center  Symbol    Alpha    Beta     Spin     Total
       1     H     0.38082  0.38082  0.00000  0.23837
       2     O     4.15939  4.15939  0.00000 -0.31878
       3     C     2.80567  2.80567  0.00000  0.38866
       4     C     3.09232  3.09232  0.00000 -0.18465
       5     O     4.19434  4.19434  0.00000 -0.38869
       6     C     3.14411  3.14411  0.00000 -0.28822
       7     H     0.43425  0.43425  0.00000  0.13149
       8     H     0.44445  0.44445  0.00000  0.11111
       9     H     0.45047  0.45047  0.00000  0.09906
      10     H     0.44845  0.44845  0.00000  0.10310
      11     H     0.44572  0.44572  0.00000  0.10856

   Total alpha = 20.00000, Total beta = 20.00000, Total charge = -0.00000
