  ==> Input File <==

--------------------------------------------------------------------------
set {
	reference rhf
	basis cc-pvtz
}

set_num_threads( 4 )
memory 2 gb

molecule MOL {
0 1

H	 1.721114	 -1.629464	 -1.020461
C	 0.856325	 -1.022130	 -1.228105
O	 0.462329	 -0.453336	 -0.000137
H	 0.072784	 -1.647177	 -1.637492
H	 1.123662	 -0.255872	 -1.944776
C	 -0.590565	 0.341382	 0.000062
O	 -1.693898	 -0.053880	 0.000252
H	 -0.340426	 1.403822	 0.000200

	symmetry c1
}
set optking {
	frozen_dihedral = ("
		2 3 6 7
	")
}

ee = optimize('scf')
oeprop('DIPOLE', 'QUADRUPOLE', 'MULLIKEN_CHARGES')
f=open( 'psi4out.xyz', 'w' )
f.write( "8  " )
f.write( str(ee) + "\n" )
f.write( MOL.save_string_xyz() )
f.close()
--------------------------------------------------------------------------

    Molecular point group: c1
  Charge       = 0
  Multiplicity = 1
  Basis Set: CC-PVTZ
  Basis Set:
  @DF-RHF Final Energy:  -227.85941888312954
    Total Energy =                       -227.8594188831294218
    Molecular point group: c1
  Basis Set: CC-PVTZ
  Basis Set:
  Basis Set: CC-PVTZ
  Basis Set:
  @DF-RHF Final Energy:  -227.85689983681937
    Total Energy =                       -227.8568998368193661
  Basis Set: CC-PVTZ
  Basis Set:
  Basis Set: CC-PVTZ
  Basis Set:
  @DF-RHF Final Energy:  -227.85982539991340
    Total Energy =                       -227.8598253999133476
  Basis Set: CC-PVTZ
  Basis Set:
  Basis Set: CC-PVTZ
  Basis Set:
  @DF-RHF Final Energy:  -227.86005335841872
    Total Energy =                       -227.8600533584187531
  Basis Set: CC-PVTZ
  Basis Set:
  Basis Set: CC-PVTZ
  Basis Set:
  @DF-RHF Final Energy:  -227.86005833505067
    Total Energy =                       -227.8600583350505531
  Basis Set: CC-PVTZ
  Basis Set:
  Charge       = 0
  Multiplicity = 1
  Basis Set: CC-PVTZ
  Basis Set:

    Orbital Energies (a.u.)
    -----------------------

    Doubly Occupied:

       1A    -20.589840     2A    -20.562628     3A    -11.376132
       4A    -11.295482     5A     -1.472932     6A     -1.383795
       7A     -0.987639     8A     -0.831889     9A     -0.741148
      10A     -0.690218    11A     -0.668259    12A     -0.627321
      13A     -0.563339    14A     -0.516069    15A     -0.475322
      16A     -0.460023

  @DF-RHF Final Energy:  -227.86005881465081

   => Energetics <=

    Nuclear Repulsion Energy =            122.2100044807711328
    One-Electron Energy =                -553.6560562182286276
    Two-Electron Energy =                 203.5859929228067244
    DFT Exchange-Correlation Energy =       0.0000000000000000
    Empirical Dispersion Energy =           0.0000000000000000
    PCM Polarization Energy =               0.0000000000000000
    EFP Energy =                            0.0000000000000000
    Total Energy =                       -227.8600588146507562
    Molecular point group: c1
  Basis Set: CC-PVTZ
  Basis Set:

  -Total Gradient:
     Atom            X                  Y                   Z
    ------   -----------------  -----------------  -----------------
       1       -0.000013251743     0.000009716019     0.000012404346
       2        0.001704455245     0.002360748759    -0.000617252194
       3       -0.002536075533    -0.003407735313     0.002810205424
       4        0.000010430570    -0.000015204029    -0.000011977301
       5        0.000007092013    -0.000001916978     0.000008122782
       6        0.000794907827     0.000949797157    -0.006102624098
       7        0.000037024013     0.000119813091     0.003900783432
       8       -0.000004582394    -0.000015218706     0.000000337611

  **** Optimization is complete! (in 6 steps) ****
    Final optimized geometry and variables:
    Molecular point group: c1

    Geometry (in Angstrom), charge = 0, multiplicity = 1:

    H            1.953716961844    -1.336760647988    -0.700396674386
    C            1.093233207135    -0.721906185338    -0.905207146680
    O            0.712355785380    -0.137668649410     0.325411513354
    H            0.293263942171    -1.332520078572    -1.300917354704
    H            1.362645913900     0.042388531933    -1.625230006865
    C           -0.371072058260     0.646336221037     0.310843966474
    O           -1.473939778308     0.252428272135     0.327584094670
    H           -0.121385263929     1.705372321544     0.340010431977

  Mulliken Charges: (a.u.)
   Center  Symbol    Alpha    Beta     Spin     Total
       1     H     0.44469  0.44469  0.00000  0.11061
       2     C     3.02244  3.02244  0.00000 -0.04488
       3     O     4.15642  4.15642  0.00000 -0.31283
       4     H     0.45298  0.45298  0.00000  0.09405
       5     H     0.46550  0.46550  0.00000  0.06901
       6     C     2.83029  2.83029  0.00000  0.33943
       7     O     4.16464  4.16464  0.00000 -0.32927
       8     H     0.46306  0.46306  0.00000  0.07388

   Total alpha = 16.00000, Total beta = 16.00000, Total charge = -0.00000
