  ==> Input File <==

--------------------------------------------------------------------------
set {
	reference rhf
	basis cc-pvtz
}

set_num_threads( 4 )
memory 2 gb

molecule MOL {
0 1

O	 -0.694481	 1.313155	 -0.204815
C	 -0.862519	 0.151932	 -0.046791
C	 -2.171428	 -0.477048	 0.339095
O	 0.085519	 -0.757083	 -0.192238
H	 -2.467997	 -1.191667	 -0.417688
H	 -2.923379	 0.287970	 0.444097
H	 -2.053854	 -1.015120	 1.270901
C	 1.392036	 -0.330828	 -0.560749
C	 1.995246	 -1.227765	 -1.621664
H	 2.015598	 -0.295264	 0.318866
H	 1.256679	 0.672216	 -0.936689
H	 2.959268	 -0.834681	 -1.924317
H	 2.140794	 -2.230236	 -1.243180
H	 1.355757	 -1.270903	 -2.495040

	symmetry c1
}
set optking {
	frozen_dihedral = ("
		10 8 4 2
	")
}

ee = optimize('scf')
oeprop('DIPOLE', 'QUADRUPOLE', 'MULLIKEN_CHARGES')
f=open( 'psi4out.xyz', 'w' )
f.write( "14  " )
f.write( str(ee) + "\n" )
f.write( MOL.save_string_xyz() )
f.close()
--------------------------------------------------------------------------

    Molecular point group: c1
  Charge       = 0
  Multiplicity = 1
  Basis Set: CC-PVTZ
  Basis Set:
  @DF-RHF Final Energy:  -305.98874471499710
    Total Energy =                       -305.9887447149968125
    Molecular point group: c1
  Basis Set: CC-PVTZ
  Basis Set:
  Basis Set: CC-PVTZ
  Basis Set:
  @DF-RHF Final Energy:  -305.98994638348734
    Total Energy =                       -305.9899463834876201
  Basis Set: CC-PVTZ
  Basis Set:
  Basis Set: CC-PVTZ
  Basis Set:
  @DF-RHF Final Energy:  -305.99025282098012
    Total Energy =                       -305.9902528209801744
  Basis Set: CC-PVTZ
  Basis Set:
  Basis Set: CC-PVTZ
  Basis Set:
  @DF-RHF Final Energy:  -305.99036638714313
    Total Energy =                       -305.9903663871432400
  Basis Set: CC-PVTZ
  Basis Set:
  Basis Set: CC-PVTZ
  Basis Set:
  @DF-RHF Final Energy:  -305.99047574231048
    Total Energy =                       -305.9904757423107640
  Basis Set: CC-PVTZ
  Basis Set:
  Charge       = 0
  Multiplicity = 1
  Basis Set: CC-PVTZ
  Basis Set:

    Orbital Energies (a.u.)
    -----------------------

    Doubly Occupied:

       1A    -20.594165     2A    -20.532612     3A    -11.368181
       4A    -11.282300     5A    -11.231343     6A    -11.220806
       7A     -1.469571     8A     -1.366203     9A     -1.058661
      10A     -1.000576    11A     -0.875434    12A     -0.778950
      13A     -0.698171    14A     -0.686845    15A     -0.665579
      16A     -0.612963    17A     -0.582228    18A     -0.563925
      19A     -0.561102    20A     -0.536789    21A     -0.515953
      22A     -0.499629    23A     -0.454112    24A     -0.442068

  @DF-RHF Final Energy:  -305.99048748904204

   => Energetics <=

    Nuclear Repulsion Energy =            246.1658215556390985
    One-Electron Energy =                -905.1162829375334695
    Two-Electron Energy =                 352.9599738928523038
    DFT Exchange-Correlation Energy =       0.0000000000000000
    Empirical Dispersion Energy =           0.0000000000000000
    PCM Polarization Energy =               0.0000000000000000
    EFP Energy =                            0.0000000000000000
    Total Energy =                       -305.9904874890420388
    Molecular point group: c1
  Basis Set: CC-PVTZ
  Basis Set:

  -Total Gradient:
     Atom            X                  Y                   Z
    ------   -----------------  -----------------  -----------------
       1       -0.000000436599     0.000019424048     0.000003826662
       2       -0.000262310722    -0.000063232822    -0.001068818293
       3        0.000000157125    -0.000016115258    -0.000000974083
       4        0.000669708813    -0.000157439902     0.001478633695
       5       -0.000005458783    -0.000000224703     0.000001773879
       6        0.000003960826     0.000004172819    -0.000007822791
       7        0.000007522724     0.000004621304    -0.000001561062
       8       -0.000612268939     0.001411599507    -0.000298997138
       9        0.000011429438    -0.000035710443     0.000069844985
      10        0.000289567759    -0.001197911554    -0.000190246883
      11       -0.000052008893     0.000042866083     0.000004662702
      12       -0.000037144190     0.000006611698     0.000025247164
      13        0.000011854117    -0.000044249144    -0.000023280388
      14       -0.000024572679     0.000025588370     0.000007711550

  **** Optimization is complete! (in 6 steps) ****
    Final optimized geometry and variables:
    Molecular point group: c1

    Geometry (in Angstrom), charge = 0, multiplicity = 1:

    O           -0.690098054280     1.546020199451     0.231600424058
    C           -0.824510230253     0.375959134570     0.346501319230
    C           -2.114506152215    -0.301447045256     0.714420992107
    O            0.144683316534    -0.505866522768     0.169547182884
    H           -2.395222921566    -0.997413632320    -0.065407862541
    H           -2.886165168866     0.438933788457     0.848596682236
    H           -1.978186392431    -0.867804931240     1.626663104925
    C            1.441457120439    -0.061370514962    -0.209771547766
    C            2.004296980163    -1.033851487381    -1.222416838277
    H            2.054471898628    -0.042787796921     0.681981640116
    H            1.377667323517     0.937630494921    -0.606685501457
    H            3.012203667671    -0.739558336000    -1.491145327836
    H            2.037273237667    -2.037910609590    -0.818506862335
    H            1.400446843736    -1.045664577008    -2.121397953323

  Mulliken Charges: (a.u.)
   Center  Symbol    Alpha    Beta     Spin     Total
       1     O     4.19799  4.19799  0.00000 -0.39599
       2     C     2.80202  2.80202  0.00000  0.39595
       3     C     3.14002  3.14002  0.00000 -0.28005
       4     O     4.15584  4.15584  0.00000 -0.31168
       5     H     0.44627  0.44627  0.00000  0.10745
       6     H     0.43817  0.43817  0.00000  0.12366
       7     H     0.44568  0.44568  0.00000  0.10865
       8     C     2.98493  2.98493  0.00000  0.03015
       9     C     3.13304  3.13304  0.00000 -0.26607
      10     H     0.45538  0.45538  0.00000  0.08923
      11     H     0.44266  0.44266  0.00000  0.11468
      12     H     0.45451  0.45451  0.00000  0.09098
      13     H     0.45143  0.45143  0.00000  0.09714
      14     H     0.45205  0.45205  0.00000  0.09591

   Total alpha = 24.00000, Total beta = 24.00000, Total charge = -0.00000
