  ==> Input File <==

--------------------------------------------------------------------------
set {
	reference rhf
	basis cc-pvtz
}

set_num_threads( 4 )
memory 2 gb

molecule MOL {
0 1

H	 -3.642953	 0.223825	 0.000000
C	 -2.571844	 0.155001	 0.000000
C	 -1.957580	 -1.086132	 0.000000
C	 -1.807160	 1.303787	 0.000000
H	 -2.551493	 -1.979629	 0.000000
C	 -0.582719	 -1.174294	 0.000000
H	 -2.279934	 2.266806	 0.000000
C	 -0.427220	 1.213406	 0.000000
H	 -0.094904	 -2.127556	 0.000000
C	 0.196908	 -0.024061	 0.000000
H	 0.151409	 2.115254	 0.000000
C	 1.690041	 -0.173233	 0.000000
C	 2.355156	 -0.903517	 -1.144101
O	 2.342048	 0.276643	 0.887614
H	 1.992721	 -1.922388	 -1.211364
H	 3.419845	 -0.910886	 -0.973478
H	 2.143480	 -0.413371	 -2.086932

	symmetry c1
}
set optking {
	frozen_dihedral = ("
		13 12 10 8
	")
}

ee = optimize('scf')
oeprop('DIPOLE', 'QUADRUPOLE', 'MULLIKEN_CHARGES')
f=open( 'psi4out.xyz', 'w' )
f.write( "17  " )
f.write( str(ee) + "\n" )
f.write( MOL.save_string_xyz() )
f.close()
--------------------------------------------------------------------------

    Molecular point group: c1
  Charge       = 0
  Multiplicity = 1
  Basis Set: CC-PVTZ
  Basis Set:
  @DF-RHF Final Energy:  -382.59862736859429
    Total Energy =                       -382.5986273685945207
    Molecular point group: c1
  Basis Set: CC-PVTZ
  Basis Set:
  Basis Set: CC-PVTZ
  Basis Set:
  @DF-RHF Final Energy:  -382.59845382555602
    Total Energy =                       -382.5984538255557936
  Basis Set: CC-PVTZ
  Basis Set:
  Basis Set: CC-PVTZ
  Basis Set:
  @DF-RHF Final Energy:  -382.59931396268348
    Total Energy =                       -382.5993139626835955
  Basis Set: CC-PVTZ
  Basis Set:
  Basis Set: CC-PVTZ
  Basis Set:
  @DF-RHF Final Energy:  -382.59998850816646
    Total Energy =                       -382.5999885081666889
  Basis Set: CC-PVTZ
  Basis Set:
  Basis Set: CC-PVTZ
  Basis Set:
  @DF-RHF Final Energy:  -382.60000392095395
    Total Energy =                       -382.6000039209537817
  Basis Set: CC-PVTZ
  Basis Set:
  Basis Set: CC-PVTZ
  Basis Set:
  @DF-RHF Final Energy:  -382.60001168624052
    Total Energy =                       -382.6000116862409186
  Basis Set: CC-PVTZ
  Basis Set:
  Basis Set: CC-PVTZ
  Basis Set:
  @DF-RHF Final Energy:  -382.60001303864249
    Total Energy =                       -382.6000130386422597
  Basis Set: CC-PVTZ
  Basis Set:
  Charge       = 0
  Multiplicity = 1
  Basis Set: CC-PVTZ
  Basis Set:

    Orbital Energies (a.u.)
    -----------------------

    Doubly Occupied:

       1A    -20.545397     2A    -11.329594     3A    -11.246033
       4A    -11.243898     5A    -11.240797     6A    -11.240483
       7A    -11.239327     8A    -11.238124     9A    -11.230750
      10A     -1.405585    11A     -1.171567    12A     -1.054217
      13A     -1.030449    14A     -1.000591    15A     -0.863411
      16A     -0.841223    17A     -0.765080    18A     -0.708328
      19A     -0.664482    20A     -0.650246    21A     -0.628230
      22A     -0.623368    23A     -0.603277    24A     -0.592427
      25A     -0.562760    26A     -0.528697    27A     -0.518195
      28A     -0.508110    29A     -0.496591    30A     -0.413888
      31A     -0.349359    32A     -0.347356

  @DF-RHF Final Energy:  -382.60001325123113

   => Energetics <=

    Nuclear Repulsion Energy =            403.9714059675388285
    One-Electron Energy =               -1319.3791571255558210
    Two-Electron Energy =                 532.8077379067856327
    DFT Exchange-Correlation Energy =       0.0000000000000000
    Empirical Dispersion Energy =           0.0000000000000000
    PCM Polarization Energy =               0.0000000000000000
    EFP Energy =                            0.0000000000000000
    Total Energy =                       -382.6000132512313030
    Molecular point group: c1
  Basis Set: CC-PVTZ
  Basis Set:

  -Total Gradient:
     Atom            X                  Y                   Z
    ------   -----------------  -----------------  -----------------
       1        0.000001435111     0.000002450104     0.000000300902
       2       -0.000009951813    -0.000066209553     0.000020851229
       3       -0.000053845336     0.000034601642    -0.000028842119
       4        0.000069286723     0.000023360427    -0.000013119752
       5        0.000002301887    -0.000002205878    -0.000000540460
       6        0.000057451701     0.000030574686     0.000040417155
       7       -0.000002308030     0.000000130995    -0.000002011050
       8       -0.000086104115    -0.000029419661    -0.003697294374
       9       -0.000002793642    -0.000006838976     0.000005785649
      10        0.000109816624     0.001389333767     0.004485597859
      11        0.000003050166    -0.000000327633     0.000021156813
      12       -0.000230468025    -0.004300978936     0.000923678560
      13        0.000139210869     0.002919868818    -0.001765286585
      14        0.000000322325     0.000029891286    -0.000010196413
      15        0.000014021764    -0.000006858591     0.000012125458
      16       -0.000003037444    -0.000012148985     0.000011527272
      17       -0.000008388757    -0.000005223513    -0.000004150144

  **** Optimization is complete! (in 8 steps) ****
    Final optimized geometry and variables:
    Molecular point group: c1

    Geometry (in Angstrom), charge = 0, multiplicity = 1:

    H           -3.631898069841     0.287896363990     0.000030671253
    C           -2.562440212952     0.200805253828     0.015823783861
    C           -1.970311621992    -1.047216810259     0.033140024016
    C           -1.774855235147     1.337308251882     0.017375450937
    H           -2.577850176053    -1.931687533600     0.035583131396
    C           -0.592825543545    -1.159188809843     0.039062036546
    H           -2.231534297723     2.308147820585    -0.000716491416
    C           -0.398995986577     1.226108189009     0.048515679006
    H           -0.142203528949    -2.133582827176     0.042022380779
    C            0.199163553380    -0.023616805094     0.065720019999
    H            0.214938664519     2.105413829390     0.070356415082
    C            1.700744798679    -0.106925571445     0.054244991536
    C            2.344510392724    -0.835904657668    -1.100681219942
    O            2.348123716766     0.456617174565     0.874403084217
    H            1.963717304251    -1.845438769608    -1.194459493180
    H            3.415067650156    -0.856359097663    -0.965661813893
    H            2.098814052786    -0.315736874487    -2.020009449705

  Mulliken Charges: (a.u.)
   Center  Symbol    Alpha    Beta     Spin     Total
       1     H     0.42113  0.42113  0.00000  0.15774
       2     C     3.08172  3.08172  0.00000 -0.16345
       3     C     3.06722  3.06722  0.00000 -0.13443
       4     C     3.06535  3.06535  0.00000 -0.13070
       5     H     0.42162  0.42162  0.00000  0.15675
       6     C     3.09667  3.09667  0.00000 -0.19334
       7     H     0.42114  0.42114  0.00000  0.15771
       8     C     3.09085  3.09085  0.00000 -0.18171
       9     H     0.42356  0.42356  0.00000  0.15288
      10     C     2.96573  2.96573  0.00000  0.06853
      11     H     0.41593  0.41593  0.00000  0.16814
      12     C     2.87469  2.87469  0.00000  0.25062
      13     C     3.15164  3.15164  0.00000 -0.30329
      14     O     4.16987  4.16987  0.00000 -0.33974
      15     H     0.45074  0.45074  0.00000  0.09852
      16     H     0.43603  0.43603  0.00000  0.12793
      17     H     0.44609  0.44609  0.00000  0.10781

   Total alpha = 32.00000, Total beta = 32.00000, Total charge = -0.00000
