  ==> Input File <==

--------------------------------------------------------------------------
set {
	reference rhf
	basis 6-31G*
}

set_num_threads( 4 )
memory 2 gb

molecule MOL {
0 1

H	 2.866480	 -0.465706	 0.876907
C	 2.405773	 -0.024801	 0.000000
N	 0.988830	 -0.304158	 0.000000
H	 2.866480	 -0.465706	 -0.876907
H	 2.629928	 1.045948	 0.000000
C	 0.202100	 0.825660	 -0.458842
C	 0.515999	 -0.766484	 1.291764
H	 0.330887	 1.696713	 0.191680
H	 0.531077	 1.106027	 -1.454540
C	 -1.268774	 0.444912	 -0.498227
H	 1.074827	 -1.651956	 1.577939
H	 0.667659	 -0.011449	 2.069852
C	 -0.963199	 -1.105010	 1.205955
H	 -1.879477	 1.301263	 -0.752631
H	 -1.425515	 -0.328493	 -1.248059
O	 -1.702959	 -0.005660	 0.754139
H	 -1.353494	 -1.366606	 2.180765
H	 -1.105563	 -1.951337	 0.536303

	symmetry c1
}
set optking {
	frozen_dihedral = ("
		6 3 2 5
	")
}

ee = optimize('scf')
oeprop('DIPOLE', 'QUADRUPOLE', 'MULLIKEN_CHARGES')
f=open( 'psi4out.xyz', 'w' )
f.write( "18  " )
f.write( str(ee) + "\n" )
f.write( MOL.save_string_xyz() )
f.close()
--------------------------------------------------------------------------

    Molecular point group: c1
  Charge       = 0
  Multiplicity = 1
  Basis Set: 6-31G*
  Basis Set:
  @DF-RHF Final Energy:  -325.02303127860216
    Total Energy =                       -325.0230312786018203
    Molecular point group: c1
  Basis Set: 6-31G*
  Basis Set:
  Basis Set: 6-31G*
  Basis Set:
  @DF-RHF Final Energy:  -325.02333442796038
    Total Energy =                       -325.0233344279603216
  Basis Set: 6-31G*
  Basis Set:
  Basis Set: 6-31G*
  Basis Set:
  @DF-RHF Final Energy:  -325.02341815065944
    Total Energy =                       -325.0234181506592677
  Basis Set: 6-31G*
  Basis Set:
  Charge       = 0
  Multiplicity = 1
  Basis Set: 6-31G*
  Basis Set:

    Orbital Energies (a.u.)
    -----------------------

    Doubly Occupied:

       1A    -20.553348     2A    -15.547460     3A    -11.265506
       4A    -11.265411     5A    -11.243909     6A    -11.243865
       7A    -11.240785     8A     -1.382798     9A     -1.228198
      10A     -1.037740    11A     -0.980239    12A     -0.881887
      13A     -0.869808    14A     -0.774605    15A     -0.682806
      16A     -0.643668    17A     -0.642598    18A     -0.631440
      19A     -0.626237    20A     -0.570325    21A     -0.558781
      22A     -0.544111    23A     -0.527718    24A     -0.500453
      25A     -0.483124    26A     -0.451554    27A     -0.406821
      28A     -0.349935

  @DF-RHF Final Energy:  -325.02341930887627

   => Energetics <=

    Nuclear Repulsion Energy =            341.0549901793609138
    One-Electron Energy =               -1117.8865626468882510
    Two-Electron Energy =                 451.8081531586515780
    DFT Exchange-Correlation Energy =       0.0000000000000000
    Empirical Dispersion Energy =           0.0000000000000000
    PCM Polarization Energy =               0.0000000000000000
    EFP Energy =                            0.0000000000000000
    Total Energy =                       -325.0234193088758161
    Molecular point group: c1
  Basis Set: 6-31G*
  Basis Set:

  -Total Gradient:
     Atom            X                  Y                   Z
    ------   -----------------  -----------------  -----------------
       1        0.000027952495     0.000010984968     0.000016726110
       2       -0.000051119295     0.000451485503     0.006263410889
       3        0.000340250092    -0.001402577746    -0.005051934278
       4       -0.000004257909    -0.000011943428    -0.000007772686
       5       -0.000022125495    -0.000045212205    -0.004037143794
       6       -0.000179223410     0.000978216736     0.002872310108
       7       -0.000033242554    -0.000010007939    -0.000074463760
       8        0.000009928809     0.000003646953    -0.000001723969
       9       -0.000003142256    -0.000016932813     0.000021389559
      10       -0.000028893661     0.000041645999    -0.000039192782
      11       -0.000000788665     0.000019107000    -0.000017715947
      12       -0.000000299675    -0.000006970043    -0.000008367344
      13       -0.000002693524    -0.000022718730     0.000055071384
      14       -0.000042005304     0.000002823026     0.000003298614
      15       -0.000000626396     0.000000865579     0.000016921482
      16        0.000030078148    -0.000010652077    -0.000025625320
      17       -0.000041959941    -0.000009456486     0.000015069494
      18        0.000002168541     0.000027695703    -0.000000257761

  **** Optimization is complete! (in 4 steps) ****
    Final optimized geometry and variables:
    Molecular point group: c1

    Geometry (in Angstrom), charge = 0, multiplicity = 1:

    H            2.887834683335    -0.340744368338     0.515821507913
    C            2.395916872817     0.096976787018    -0.344186325432
    N            0.966302079139    -0.173283297684    -0.321991823807
    H            2.846162678868    -0.328600771156    -1.236557009523
    H            2.613165558724     1.163857933660    -0.358125892058
    C            0.177261147225     0.955376258874    -0.781247274368
    C            0.482907519669    -0.629598338714     0.970314809969
    H            0.299571251607     1.823045239263    -0.125718382387
    H            0.511351182117     1.242465895254    -1.773625519315
    C           -1.292049245947     0.571800056434    -0.836071102199
    H            1.038096314625    -1.513913898434     1.264994217515
    H            0.621091812702     0.127052685684     1.748978195505
    C           -0.993388112825    -0.976637301112     0.870207395941
    H           -1.902290902429     1.427502993064    -1.094395025392
    H           -1.439551562580    -0.200200762420    -1.589049848004
    O           -1.736756649193     0.117133691932     0.410981721831
    H           -1.391526121552    -1.241802554995     1.841059720020
    H           -1.122431957890    -1.823340407124     0.198424906351

  Mulliken Charges: (a.u.)
   Center  Symbol    Alpha    Beta     Spin     Total
       1     H     0.41873  0.41873  0.00000  0.16254
       2     C     3.14049  3.14049  0.00000 -0.28097
       3     N     3.78983  3.78983  0.00000 -0.57967
       4     H     0.41491  0.41491  0.00000  0.17018
       5     H     0.42563  0.42563  0.00000  0.14873
       6     C     3.06998  3.06998  0.00000 -0.13995
       7     C     3.06951  3.06951  0.00000 -0.13902
       8     H     0.42785  0.42785  0.00000  0.14431
       9     H     0.41630  0.41630  0.00000  0.16741
      10     C     2.99718  2.99718  0.00000  0.00565
      11     H     0.41651  0.41651  0.00000  0.16698
      12     H     0.42841  0.42841  0.00000  0.14319
      13     C     2.99747  2.99747  0.00000  0.00506
      14     H     0.41355  0.41355  0.00000  0.17291
      15     H     0.42394  0.42394  0.00000  0.15213
      16     O     4.31215  4.31215  0.00000 -0.62431
      17     H     0.41357  0.41357  0.00000  0.17285
      18     H     0.42400  0.42400  0.00000  0.15199

   Total alpha = 28.00000, Total beta = 28.00000, Total charge = -0.00000
