  ==> Input File <==

--------------------------------------------------------------------------
set {
	reference rhf
	basis 6-31G*
}

set_num_threads( 4 )
memory 2 gb

molecule MOL {
0 1

H	 -2.499100	 -0.730091	 -0.745082
O	 -2.347518	 -0.290803	 0.079804
C	 -1.184022	 0.487508	 -0.006784
C	 0.062599	 -0.378592	 0.031606
H	 -1.176523	 1.099369	 -0.904519
H	 -1.187323	 1.153111	 0.844927
O	 -0.221617	 -1.571235	 -0.629153
H	 0.352002	 -0.572927	 1.066236
H	 0.887914	 0.147764	 -0.444198
C	 0.848227	 -2.459575	 -0.702819
H	 1.187645	 -2.756645	 0.287724
H	 0.507986	 -3.337385	 -1.234410
H	 1.688877	 -2.025193	 -1.239859

	symmetry c1
}
set optking {
	frozen_dihedral = ("
		8 4 3 5
	")
}

ee = optimize('scf')
oeprop('DIPOLE', 'QUADRUPOLE', 'MULLIKEN_CHARGES')
f=open( 'psi4out.xyz', 'w' )
f.write( "13  " )
f.write( str(ee) + "\n" )
f.write( MOL.save_string_xyz() )
f.close()
--------------------------------------------------------------------------

    Molecular point group: c1
  Charge       = 0
  Multiplicity = 1
  Basis Set: 6-31G*
  Basis Set:
  @DF-RHF Final Energy:  -267.94691476219532
    Total Energy =                       -267.9469147621952061
    Molecular point group: c1
  Basis Set: 6-31G*
  Basis Set:
  Basis Set: 6-31G*
  Basis Set:
  @DF-RHF Final Energy:  -267.94923982576876
    Total Energy =                       -267.9492398257689274
  Basis Set: 6-31G*
  Basis Set:
  Basis Set: 6-31G*
  Basis Set:
  @DF-RHF Final Energy:  -267.95052358440807
    Total Energy =                       -267.9505235844081312
  Basis Set: 6-31G*
  Basis Set:
  Basis Set: 6-31G*
  Basis Set:
  @DF-RHF Final Energy:  -267.95064031754134
    Total Energy =                       -267.9506403175413993
  Basis Set: 6-31G*
  Basis Set:
  Basis Set: 6-31G*
  Basis Set:
  @DF-RHF Final Energy:  -267.95065184617829
    Total Energy =                       -267.9506518461786300
  Basis Set: 6-31G*
  Basis Set:
  Charge       = 0
  Multiplicity = 1
  Basis Set: 6-31G*
  Basis Set:

    Orbital Energies (a.u.)
    -----------------------

    Doubly Occupied:

       1A    -20.572795     2A    -20.545376     3A    -11.276949
       4A    -11.276746     5A    -11.268113     6A     -1.399901
       7A     -1.352255     8A     -1.019485     9A     -0.926013
      10A     -0.835664    11A     -0.701537    12A     -0.683521
      13A     -0.670077    14A     -0.634806    15A     -0.589578
      16A     -0.575834    17A     -0.546235    18A     -0.496173
      19A     -0.478139    20A     -0.438709    21A     -0.421197

  @DF-RHF Final Energy:  -267.95065282527639

   => Energetics <=

    Nuclear Repulsion Energy =            195.0659222155313728
    One-Electron Energy =                -752.6149454142068862
    Two-Electron Energy =                 289.5983703733991206
    DFT Exchange-Correlation Energy =       0.0000000000000000
    Empirical Dispersion Energy =           0.0000000000000000
    PCM Polarization Energy =               0.0000000000000000
    EFP Energy =                            0.0000000000000000
    Total Energy =                       -267.9506528252763928
    Molecular point group: c1
  Basis Set: 6-31G*
  Basis Set:

  -Total Gradient:
     Atom            X                  Y                   Z
    ------   -----------------  -----------------  -----------------
       1        0.000047295515     0.000014859468     0.000004234316
       2        0.000003961998     0.000037441580     0.000054805322
       3       -0.003203971344    -0.004771852260    -0.004670526856
       4       -0.004430393512    -0.006197044242     0.000650405634
       5        0.003455163845     0.005065634082     0.003730339929
       6       -0.000036638847    -0.000044926487     0.000008209917
       7        0.000001687618    -0.000050484521    -0.000035830319
       8        0.004224919242     0.005884282149     0.000231900694
       9       -0.000030854464     0.000028393221     0.000017240650
      10       -0.000012810278     0.000010263955     0.000003814535
      11        0.000001568192     0.000000738023     0.000002561403
      12       -0.000013679753     0.000018489334     0.000002044352
      13       -0.000006248208     0.000004205698     0.000000800420

  **** Optimization is complete! (in 6 steps) ****
    Final optimized geometry and variables:
    Molecular point group: c1

    Geometry (in Angstrom), charge = 0, multiplicity = 1:

    H           -1.697776218923    -0.147488321966    -0.219152759553
    O           -1.783873765763     0.621328475897     0.329681067762
    C           -0.597526529419     1.344053055623     0.243214418228
    C            0.638185224156     0.450430353148     0.310261691783
    H           -0.553572157803     1.971334661588    -0.645149878068
    H           -0.578754781333     2.024630718826     1.086824037607
    O            0.386302145711    -0.706706664929    -0.426167404420
    H            0.903974718362     0.226321528739     1.341936010907
    H            1.488960364736     0.986568716811    -0.111164634786
    C            1.430202324352    -1.630910035509    -0.434913875028
    H            1.665149493136    -1.968895002975     0.571534950025
    H            1.111201662640    -2.477809932865    -1.026105183271
    H            2.328002550333    -1.207288683445    -0.879114581974

  Mulliken Charges: (a.u.)
   Center  Symbol    Alpha    Beta     Spin     Total
       1     H     0.26860  0.26860  0.00000  0.46281
       2     O     4.37328  4.37328  0.00000 -0.74657
       3     C     2.99625  2.99625  0.00000  0.00750
       4     C     3.00432  3.00432  0.00000 -0.00863
       5     H     0.42748  0.42748  0.00000  0.14504
       6     H     0.41875  0.41875  0.00000  0.16251
       7     O     4.31501  4.31501  0.00000 -0.63002
       8     H     0.42505  0.42505  0.00000  0.14990
       9     H     0.42971  0.42971  0.00000  0.14058
      10     C     3.08018  3.08018  0.00000 -0.16035
      11     H     0.42507  0.42507  0.00000  0.14987
      12     H     0.40983  0.40983  0.00000  0.18033
      13     H     0.42648  0.42648  0.00000  0.14705

   Total alpha = 21.00000, Total beta = 21.00000, Total charge = -0.00000
