  ==> Input File <==

--------------------------------------------------------------------------
set {
	reference rhf
	basis cc-pvtz
}

set_num_threads( 4 )
memory 2 gb

molecule MOL {
0 1

H	 -2.097044	 -1.119458	 0.385624
C	 -1.687099	 -1.042323	 -0.616194
O	 -0.775228	 0.000056	 -0.739966
H	 -2.499393	 -0.827957	 -1.296178
H	 -1.261332	 -2.001961	 -0.890874
C	 0.406133	 -0.000384	 0.036994
C	 1.526415	 -0.003194	 -0.997339
C	 0.498772	 1.259027	 0.900673
C	 0.495883	 -1.257378	 0.904465
H	 1.452279	 0.872071	 -1.630204
H	 1.451276	 -0.881020	 -1.626529
H	 2.497919	 -0.002741	 -0.517601
H	 0.368981	 2.144239	 0.289753
H	 1.470064	 1.313479	 1.377660
H	 -0.248448	 1.271586	 1.684297
H	 0.363971	 -2.144195	 0.296316
H	 1.467114	 -1.312636	 1.381470
H	 -0.251246	 -1.265768	 1.688235

	symmetry c1
}
set optking {
	frozen_dihedral = ("
		2 3 6 7
	")
}

ee = optimize('scf')
oeprop('DIPOLE', 'QUADRUPOLE', 'MULLIKEN_CHARGES')
f=open( 'psi4out.xyz', 'w' )
f.write( "18  " )
f.write( str(ee) + "\n" )
f.write( MOL.save_string_xyz() )
f.close()
--------------------------------------------------------------------------

    Molecular point group: c1
  Charge       = 0
  Multiplicity = 1
  Basis Set: CC-PVTZ
  Basis Set:
  @DF-RHF Final Energy:  -271.26852780889760
    Total Energy =                       -271.2685278088974883
    Molecular point group: c1
  Basis Set: CC-PVTZ
  Basis Set:
  Basis Set: CC-PVTZ
  Basis Set:
  @DF-RHF Final Energy:  -271.26925516571521
    Total Energy =                       -271.2692551657150943
  Basis Set: CC-PVTZ
  Basis Set:
  Basis Set: CC-PVTZ
  Basis Set:
  @DF-RHF Final Energy:  -271.27197462044649
    Total Energy =                       -271.2719746204465423
  Basis Set: CC-PVTZ
  Basis Set:
  Basis Set: CC-PVTZ
  Basis Set:
  @DF-RHF Final Energy:  -271.27215016217878
    Total Energy =                       -271.2721501621789457
  Basis Set: CC-PVTZ
  Basis Set:
  @DF-RHF Final Energy:  -271.27225194098952
    Total Energy =                       -271.2722519409898041
  Basis Set: CC-PVTZ
  Basis Set:
  @DF-RHF Final Energy:  -271.27229605294724
    Total Energy =                       -271.2722960529474676
  Basis Set: CC-PVTZ
  Basis Set:
  Basis Set: CC-PVTZ
  Basis Set:
  @DF-RHF Final Energy:  -271.27230020431517
    Total Energy =                       -271.2723002043152292
  Basis Set: CC-PVTZ
  Basis Set:
  Basis Set: CC-PVTZ
  Basis Set:
  @DF-RHF Final Energy:  -271.27229917092609
    Total Energy =                       -271.2722991709264306
  Basis Set: CC-PVTZ
  Basis Set:
  Charge       = 0
  Multiplicity = 1
  Basis Set: CC-PVTZ
  Basis Set:

    Orbital Energies (a.u.)
    -----------------------

    Doubly Occupied:

       1A    -20.536990     2A    -11.280741     3A    -11.259532
       4A    -11.211746     5A    -11.202162     6A    -11.202065
       7A     -1.369165     8A     -1.075597     9A     -0.951540
      10A     -0.935426    11A     -0.912261    12A     -0.752152
      13A     -0.657575    14A     -0.648123    15A     -0.638408
      16A     -0.581890    17A     -0.578625    18A     -0.547507
      19A     -0.544468    20A     -0.527021    21A     -0.515303
      22A     -0.491397    23A     -0.483921    24A     -0.443367
      25A     -0.398511

  @DF-RHF Final Energy:  -271.27230123536225

   => Energetics <=

    Nuclear Repulsion Energy =            271.9859501866470168
    One-Electron Energy =                -907.0255194041085360
    Two-Electron Energy =                 363.7672679820990993
    DFT Exchange-Correlation Energy =       0.0000000000000000
    Empirical Dispersion Energy =           0.0000000000000000
    PCM Polarization Energy =               0.0000000000000000
    EFP Energy =                            0.0000000000000000
    Total Energy =                       -271.2723012353624767
    Molecular point group: c1
  Basis Set: CC-PVTZ
  Basis Set:

  -Total Gradient:
     Atom            X                  Y                   Z
    ------   -----------------  -----------------  -----------------
       1       -0.000002937654    -0.000002604907     0.000003934364
       2       -0.000115659978     0.000128863754     0.000201064958
       3        0.000177053952    -0.000127619866    -0.000304505509
       4       -0.000000551124    -0.000001992323    -0.000001680995
       5        0.000001491123     0.000006310153     0.000001293340
       6       -0.000065527120    -0.000214299658     0.000085551698
       7        0.000005505444     0.000214535651     0.000012633747
       8       -0.000005012560    -0.000000806456    -0.000000590754
       9        0.000003039179    -0.000004228645     0.000001142995
      10        0.000001488006    -0.000000284300    -0.000002271820
      11       -0.000002691571     0.000000673066     0.000003968946
      12        0.000002659578     0.000002421059    -0.000001472565
      13        0.000000284513    -0.000000345912    -0.000000010472
      14        0.000001046397    -0.000002115440    -0.000000345462
      15        0.000000673450     0.000000909248     0.000000692357
      16        0.000000259628    -0.000000913240     0.000002747463
      17        0.000000089972    -0.000000408386    -0.000000958157
      18       -0.000001211236     0.000001906201    -0.000001194133

  **** Optimization is complete! (in 9 steps) ****
    Final optimized geometry and variables:
    Molecular point group: c1

    Geometry (in Angstrom), charge = 0, multiplicity = 1:

    H           -2.208770156179    -0.913030162103     0.468976633176
    C           -1.808485650551    -0.796915925833    -0.533313273165
    O           -0.848792655401     0.204368733827    -0.615335973859
    H           -2.618081730479    -0.500111453802    -1.185174239452
    H           -1.439514702621    -1.759992904493    -0.872526766815
    C            0.368748008521     0.151374607812     0.115460105497
    C            1.491364566474     0.168086278235    -0.919626585439
    C            0.408985501189     1.418648387138     0.966381008709
    C            0.506848892301    -1.079236357491     1.012511625128
    H            1.384928311767     1.029194349951    -1.566825388767
    H            1.451323206171    -0.722459081060    -1.536171502950
    H            2.464854323921     0.211268226987    -0.444075300245
    H            0.290455788218     2.291103025049     0.336691568791
    H            1.348210869380     1.503676767092     1.501461889662
    H           -0.398016130390     1.414387449324     1.689781051237
    H            0.487596230731    -2.000426730529     0.444580549982
    H            1.458486676963    -1.031895021581     1.526794940282
    H           -0.269913463366    -1.121540104689     1.765121722196

  Mulliken Charges: (a.u.)
   Center  Symbol    Alpha    Beta     Spin     Total
       1     H     0.46946  0.46946  0.00000  0.06108
       2     C     3.04059  3.04059  0.00000 -0.08118
       3     O     4.20018  4.20018  0.00000 -0.40036
       4     H     0.44258  0.44258  0.00000  0.11483
       5     H     0.46959  0.46959  0.00000  0.06081
       6     C     2.86994  2.86994  0.00000  0.26013
       7     C     3.14151  3.14151  0.00000 -0.28302
       8     C     3.14121  3.14121  0.00000 -0.28242
       9     C     3.17705  3.17705  0.00000 -0.35410
      10     H     0.44789  0.44789  0.00000  0.10422
      11     H     0.45221  0.45221  0.00000  0.09558
      12     H     0.45787  0.45787  0.00000  0.08425
      13     H     0.44786  0.44786  0.00000  0.10427
      14     H     0.45810  0.45810  0.00000  0.08379
      15     H     0.45227  0.45227  0.00000  0.09547
      16     H     0.44472  0.44472  0.00000  0.11057
      17     H     0.44217  0.44217  0.00000  0.11565
      18     H     0.44480  0.44480  0.00000  0.11041

   Total alpha = 25.00000, Total beta = 25.00000, Total charge = -0.00000
