  ==> Input File <==

--------------------------------------------------------------------------
set {
	reference rhf
	basis cc-pvtz
}

set_num_threads( 4 )
memory 2 gb

molecule MOL {
0 1

O	 1.150003	 -2.287004	 1.434295
C	 0.320627	 -1.774530	 0.763933
C	 -1.108633	 -2.225641	 0.667125
O	 0.550743	 -0.719877	 0.000412
H	 -1.764939	 -1.418993	 0.967101
H	 -1.260323	 -3.083878	 1.301122
H	 -1.341774	 -2.474370	 -0.360111
C	 1.863204	 -0.194033	 0.000410
H	 2.031502	 0.409177	 -0.879273
H	 2.524488	 -1.045142	 0.000793
H	 2.031291	 0.409823	 0.879686

	symmetry c1
}
set optking {
	frozen_dihedral = ("
		2 4 8 9
	")
}

ee = optimize('scf')
oeprop('DIPOLE', 'QUADRUPOLE', 'MULLIKEN_CHARGES')
f=open( 'psi4out.xyz', 'w' )
f.write( "11  " )
f.write( str(ee) + "\n" )
f.write( MOL.save_string_xyz() )
f.close()
--------------------------------------------------------------------------

    Molecular point group: c1
  Charge       = 0
  Multiplicity = 1
  Basis Set: CC-PVTZ
  Basis Set:
  @DF-RHF Final Energy:  -266.93704624291763
    Total Energy =                       -266.9370462429175177
    Molecular point group: c1
  Basis Set: CC-PVTZ
  Basis Set:
  Basis Set: CC-PVTZ
  Basis Set:
  @DF-RHF Final Energy:  -266.93832532990234
    Total Energy =                       -266.9383253299022272
  Basis Set: CC-PVTZ
  Basis Set:
  Basis Set: CC-PVTZ
  Basis Set:
  @DF-RHF Final Energy:  -266.93863695728135
    Total Energy =                       -266.9386369572813464
  Basis Set: CC-PVTZ
  Basis Set:
  Basis Set: CC-PVTZ
  Basis Set:
  @DF-RHF Final Energy:  -266.93833018889126
    Total Energy =                       -266.9383301888912001
  Basis Set: CC-PVTZ
  Basis Set:
  Basis Set: CC-PVTZ
  Basis Set:
  @DF-RHF Final Energy:  -266.93865693380769
    Total Energy =                       -266.9386569338078061
  Basis Set: CC-PVTZ
  Basis Set:
  Charge       = 0
  Multiplicity = 1
  Basis Set: CC-PVTZ
  Basis Set:

    Orbital Energies (a.u.)
    -----------------------

    Doubly Occupied:

       1A    -20.598517     2A    -20.535100     3A    -11.369166
       4A    -11.279631     5A    -11.233034     6A     -1.473574
       7A     -1.367870     8A     -1.037021     9A     -0.953858
      10A     -0.779982    11A     -0.698396    12A     -0.684141
      13A     -0.681111    14A     -0.597043    15A     -0.592798
      16A     -0.561714    17A     -0.528511    18A     -0.523317
      19A     -0.461733    20A     -0.445814

  @DF-RHF Final Energy:  -266.93865720370945

   => Energetics <=

    Nuclear Repulsion Energy =            183.5776062433037055
    One-Electron Energy =                -728.2278641005557347
    Two-Electron Energy =                 277.7116006535425186
    DFT Exchange-Correlation Energy =       0.0000000000000000
    Empirical Dispersion Energy =           0.0000000000000000
    PCM Polarization Energy =               0.0000000000000000
    EFP Energy =                            0.0000000000000000
    Total Energy =                       -266.9386572037094538
    Molecular point group: c1
  Basis Set: CC-PVTZ
  Basis Set:

  -Total Gradient:
     Atom            X                  Y                   Z
    ------   -----------------  -----------------  -----------------
       1       -0.000033646455    -0.000061031900     0.000036186236
       2        0.000366613399    -0.000759544302    -0.000993076422
       3        0.000025503153     0.000010169361    -0.000025820421
       4       -0.000338044881     0.000931415049     0.001255233710
       5        0.000007684936     0.000005258704     0.000006882478
       6        0.000012267139     0.000000595712     0.000002278451
       7        0.000002255216     0.000003164442     0.000000345848
       8       -0.000427386830     0.001095063162     0.000475662785
       9        0.000439793133    -0.001206262300    -0.000762184450
      10       -0.000028815929    -0.000013692461    -0.000001794401
      11       -0.000026222881    -0.000005135472     0.000006286187

  **** Optimization is complete! (in 6 steps) ****
    Final optimized geometry and variables:
    Molecular point group: c1

    Geometry (in Angstrom), charge = 0, multiplicity = 1:

    O            0.563300492535    -0.869413496986     0.877160799678
    C           -0.253487293358    -0.347220270095     0.199088273843
    C           -1.684036352959    -0.789687704609     0.082449032538
    O           -0.012502284909     0.712044854219    -0.555298913838
    H           -2.338838383610     0.019143579517     0.379851495334
    H           -1.848085882830    -1.650640993675     0.709656436416
    H           -1.906627515993    -1.030630948964    -0.948935449339
    C            1.304480342095     1.226910149759    -0.573885900043
    H            1.383949244975     1.818681124706    -1.471561356428
    H            2.027309930824     0.427180955180    -0.593817775671
    H            1.478263519928     1.842180364015     0.297569572655

  Mulliken Charges: (a.u.)
   Center  Symbol    Alpha    Beta     Spin     Total
       1     O     4.19688  4.19688  0.00000 -0.39376
       2     C     2.80068  2.80068  0.00000  0.39865
       3     C     3.13862  3.13862  0.00000 -0.27724
       4     O     4.14835  4.14835  0.00000 -0.29670
       5     H     0.44520  0.44520  0.00000  0.10960
       6     H     0.43790  0.43790  0.00000  0.12420
       7     H     0.44573  0.44573  0.00000  0.10855
       8     C     3.03357  3.03357  0.00000 -0.06714
       9     H     0.44675  0.44675  0.00000  0.10649
      10     H     0.45012  0.45012  0.00000  0.09977
      11     H     0.45621  0.45621  0.00000  0.08758

   Total alpha = 20.00000, Total beta = 20.00000, Total charge = -0.00000
