                              Psi4 1.0.54 Driver

  ==> Input File <==

--------------------------------------------------------------------------
set {
	reference rhf
	basis cc-pvtz
}

set_num_threads( 4 )
memory 2 gb

molecule MOL {
0 1

O	 0.749630	 1.305591	 -0.000460
C	 0.576499	 0.134701	 -0.003900
C	 -0.765656	 -0.550508	 -0.002152
O	 1.564816	 -0.744612	 -0.000631
C	 -1.945526	 0.411052	 0.000603
H	 -0.794329	 -1.203792	 -0.868145
H	 -0.791555	 -1.205429	 0.862701
C	 -3.282915	 -0.321280	 0.002596
H	 -1.880300	 1.059126	 -0.864925
H	 -1.877207	 1.057892	 0.866807
H	 -3.388495	 -0.952755	 -0.873419
H	 -4.107811	 0.380864	 0.004116
H	 -3.385717	 -0.953283	 0.878571
C	 1.228798	 -2.099412	 -0.223381
H	 0.552662	 -2.454746	 0.539922
H	 2.156787	 -2.646104	 -0.182709
H	 0.765043	 -2.223013	 -1.190695

	symmetry c1
}
set optking {
	frozen_dihedral = ("
		14 4 2 1
	")
}

ee,wfn = optimize('scf', return_wfn=True)
oeprop( wfn, 'DIPOLE', 'QUADRUPOLE', 'MULLIKEN_CHARGES')
f=open( 'psi4out.xyz', 'w' )
f.write( "17  " )
f.write( str(ee) + "\n" )
f.write( MOL.save_string_xyz() )
f.close()
--------------------------------------------------------------------------

    Molecular point group: c1
  Charge       = 0
  Multiplicity = 1
  Basis Set: CC-PVTZ
  Basis Set:
  @DF-RHF Final Energy:  -345.00985894172112
    Total Energy =                       -345.0098589417208927
    Molecular point group: c1
  Basis Set: CC-PVTZ
  Basis Set:
  Basis Set: CC-PVTZ
  Basis Set:
  @DF-RHF Final Energy:  -344.88765876341938
    Total Energy =                       -344.8876587634196085
  Basis Set: CC-PVTZ
  Basis Set:
  Basis Set: CC-PVTZ
  Basis Set:
  @DF-RHF Final Energy:  -344.98624875538684
    Total Energy =                       -344.9862487553867822
  Basis Set: CC-PVTZ
  Basis Set:
  Basis Set: CC-PVTZ
  Basis Set:
  @DF-RHF Final Energy:  -345.01781818386286
    Total Energy =                       -345.0178181838629143
  Basis Set: CC-PVTZ
  Basis Set:
  @DF-RHF Final Energy:  -345.02060917980907
    Total Energy =                       -345.0206091798087300
  @DF-RHF Final Energy:  -344.78303065999597
    Total Energy =                       -344.7830306599962569
  @DF-RHF Final Energy:  -344.96253181919957
    Total Energy =                       -344.9625318191998531
  @DF-RHF Final Energy:  -345.01583018428056
    Total Energy =                       -345.0158301842805599
  @DF-RHF Final Energy:  -344.93888063118129
    Total Energy =                       -344.9388806311812345
  @DF-RHF Final Energy:  -345.01570423552812
    Total Energy =                       -345.0157042355282329
  @DF-RHF Final Energy:  -345.02083797252351
    Total Energy =                       -345.0208379725234522
  Basis Set: CC-PVTZ
  Basis Set:
  @DF-RHF Final Energy:  -345.02102856304606
    Total Energy =                       -345.0210285630463432
  Basis Set: CC-PVTZ
  Basis Set:
  Basis Set: CC-PVTZ
  Basis Set:
  @DF-RHF Final Energy:  -345.02105827851028
    Total Energy =                       -345.0210582785100542
  Basis Set: CC-PVTZ
  Basis Set:
  Basis Set: CC-PVTZ
  Basis Set:
  @DF-RHF Final Energy:  -345.02105949611541
    Total Energy =                       -345.0210594961155266
  Basis Set: CC-PVTZ
  Basis Set:
  Charge       = 0
  Multiplicity = 1
  Basis Set: CC-PVTZ
  Basis Set:

    Orbital Energies (a.u.)
    -----------------------

    Doubly Occupied:

       1A    -20.595039     2A    -20.528126     3A    -11.366507
       4A    -11.293532     5A    -11.244079     6A    -11.224196
       7A    -11.216910     8A     -1.466168     9A     -1.367683
      10A     -1.083984    11A     -0.990732    12A     -0.970033
      13A     -0.839853    14A     -0.767720    15A     -0.706248
      16A     -0.692008    17A     -0.675862    18A     -0.641807
      19A     -0.603935    20A     -0.579214    21A     -0.574104
      22A     -0.542949    23A     -0.536054    24A     -0.497943
      25A     -0.491867    26A     -0.484744    27A     -0.451134
      28A     -0.434580

  @DF-RHF Final Energy:  -345.02105986160097

   => Energetics <=

    Nuclear Repulsion Energy =            314.6590254202880033
    One-Electron Energy =               -1093.6261503083289881
    Two-Electron Energy =                 433.9460650264401238
    DFT Exchange-Correlation Energy =       0.0000000000000000
    Empirical Dispersion Energy =           0.0000000000000000
    PCM Polarization Energy =               0.0000000000000000
    EFP Energy =                            0.0000000000000000
    Total Energy =                       -345.0210598616008610
    Molecular point group: c1
  Basis Set: CC-PVTZ
  Basis Set:

  -Total Gradient:
     Atom            X                  Y                   Z
    ------   -----------------  -----------------  -----------------
       1       -0.000523403817    -0.000166622055    -0.000937081071
       2        0.000522168702     0.000245521327     0.000826292034
       3        0.000028489346     0.000010026400     0.000020173708
       4        0.000310933098    -0.000024244200     0.000991220483
       5       -0.000021447190    -0.000010312356     0.000006438481
       6        0.000005653667    -0.000004914876    -0.000013070203
       7       -0.000021615827    -0.000001720761    -0.000008235906
       8        0.000030558425     0.000012823440    -0.000016999365
       9       -0.000005145791    -0.000007953921     0.000010756478
      10       -0.000011878643    -0.000001134041     0.000005911776
      11        0.000007594223     0.000012729473    -0.000001466161
      12        0.000004716180    -0.000001338609    -0.000000028053
      13        0.000002292701     0.000009937359    -0.000009105771
      14       -0.000367033364    -0.000075332359    -0.000861435333
      15        0.000010611435    -0.000006260898    -0.000039247176
      16        0.000003161359    -0.000008419749    -0.000000684861
      17        0.000024345496     0.000017215829     0.000026560937

  **** Optimization is complete! (in 15 steps) ****
    Final optimized geometry and variables:
    Molecular point group: c1

    Geometry (in Angstrom), charge = 0, multiplicity = 1:

    O            0.643593599924     1.554393712679    -0.628147512464
    C            0.644634147218     0.398616000984    -0.395732290007
    C           -0.475680739174    -0.301538110535     0.342336827855
    O            1.686241605078    -0.334822167583    -0.784560221535
    C           -1.597388319118     0.642214817995     0.755551273815
    H           -0.864392727442    -1.095237448598    -0.287555140866
    H           -0.052450585687    -0.791102205123     1.214098189690
    C           -2.711914769355    -0.084218470337     1.500395266771
    H           -1.995346804997     1.128592705309    -0.125964740408
    H           -1.188725048642     1.430208279746     1.375148715336
    H           -3.159939299025    -0.858717911157     0.886229253151
    H           -3.497522362611     0.605161747880     1.784651565675
    H           -2.342476035583    -0.553933625874     2.406254487415
    C            1.699838890842    -1.738966977786    -0.741579071206
    H            1.594469301732    -2.115243346813     0.266986107106
    H            2.661977426006    -2.036606317062    -1.125493273741
    H            0.926974585426    -2.162882157387    -1.369201649783

  Mulliken Charges: (a.u.)
   Center  Symbol    Alpha    Beta     Spin     Total
       1     O     4.18100  4.18100  0.00000 -0.36201
       2     C     2.80513  2.80513  0.00000  0.38974
       3     C     3.12916  3.12916  0.00000 -0.25832
       4     O     4.12838  4.12838  0.00000 -0.25676
       5     C     3.08031  3.08031  0.00000 -0.16062
       6     H     0.44232  0.44232  0.00000  0.11536
       7     H     0.44041  0.44041  0.00000  0.11917
       8     C     3.15025  3.15025  0.00000 -0.30049
       9     H     0.44383  0.44383  0.00000  0.11233
      10     H     0.44328  0.44328  0.00000  0.11343
      11     H     0.45670  0.45670  0.00000  0.08660
      12     H     0.44407  0.44407  0.00000  0.11186
      13     H     0.45643  0.45643  0.00000  0.08713
      14     C     3.04568  3.04568  0.00000 -0.09137
      15     H     0.46096  0.46096  0.00000  0.07808
      16     H     0.43240  0.43240  0.00000  0.13521
      17     H     0.45967  0.45967  0.00000  0.08065

   Total alpha = 28.00000, Total beta = 28.00000, Total charge =  0.00000

*** Psi4 exiting successfully. Buy a developer a beer!
