  ==> Input File <==

--------------------------------------------------------------------------
set {
	reference rhf
	basis 6-31G*
}

set_num_threads( 1 )
memory 2 gb

molecule MOL {
0 1

O	 -2.439739	 -0.935931	 -0.423848
C	 -1.921153	 0.064240	 -0.045697
C	 -2.624470	 1.379923	 0.150949
O	 -0.632575	 0.154573	 0.251549
H	 -2.168117	 2.136577	 -0.476876
H	 -3.669540	 1.273223	 -0.098610
H	 -2.519365	 1.700893	 1.180846
C	 0.160891	 -1.019931	 0.106212
C	 1.589627	 -0.672828	 0.480843
H	 0.089836	 -1.367806	 -0.916050
H	 -0.238459	 -1.792301	 0.749618
C	 2.501971	 -0.416641	 -0.720155
H	 1.983316	 -1.499526	 1.068646
H	 1.580383	 0.197497	 1.131770
C	 3.938058	 -0.096571	 -0.307590
H	 2.497938	 -1.292096	 -1.366423
H	 2.100924	 0.403097	 -1.307138
H	 4.564236	 0.081852	 -1.175979
H	 4.378181	 -0.915218	 0.254893
H	 3.977766	 0.791684	 0.316512

	symmetry c1
}
set optking {
	frozen_dihedral = ("
		16 12 9 8,
		2 4 8 10,
		1 2 4 8
	")
}

ee = energy('scf')
oeprop('DIPOLE', 'QUADRUPOLE', 'MULLIKEN_CHARGES')
f=open( 'psi4out.xyz', 'w' )
f.write( "20  " )
f.write( str(ee) + "\n" )
f.write( MOL.save_string_xyz() )
f.close()
--------------------------------------------------------------------------

    Molecular point group: c1

    Geometry (in Angstrom), charge = 0, multiplicity = 1:

       Center              X                  Y                   Z               Mass
    ------------   -----------------  -----------------  -----------------  -----------------
           O         -2.502393801944    -0.747069200007    -0.359885949692    15.994914619560
           C         -1.983807801944     0.253101799993     0.018265050308    12.000000000000
           C         -2.687124801944     1.568784799993     0.214911050308    12.000000000000
           O         -0.695229801944     0.343434799993     0.315511050308    15.994914619560
           H         -2.230771801944     2.325438799993    -0.412913949692     1.007825032070
           H         -3.732194801944     1.462084799993    -0.034647949692     1.007825032070
           H         -2.582019801944     1.889754799993     1.244808050308     1.007825032070
           C          0.098236198056    -0.831069200007     0.170174050308    12.000000000000
           C          1.526972198056    -0.483966200007     0.544805050308    12.000000000000
           H          0.027181198056    -1.178944200007    -0.852087949692     1.007825032070
           H         -0.301113801944    -1.603439200007     0.813580050308     1.007825032070
           C          2.439316198056    -0.227779200007    -0.656192949692    12.000000000000
           H          1.920661198056    -1.310664200007     1.132608050308     1.007825032070
           H          1.517728198056     0.386358799993     1.195732050308     1.007825032070
           C          3.875403198056     0.092290799993    -0.243627949692    12.000000000000
           H          2.435283198056    -1.103234200007    -1.302460949692     1.007825032070
           H          2.038269198056     0.591958799993    -1.243175949692     1.007825032070
           H          4.501581198056     0.270713799993    -1.112016949692     1.007825032070
           H          4.315526198056    -0.726356200007     0.318855050308     1.007825032070
           H          3.915111198056     0.980545799993     0.380474050308     1.007825032070

  Charge       = 0
  Multiplicity = 1
  Basis Set: 6-31G*
  Basis Set:

    Orbital Energies (a.u.)
    -----------------------

    Doubly Occupied:

       1A    -20.601012     2A    -20.543488     3A    -11.373678
       4A    -11.281099     5A    -11.232995     6A    -11.223772
       7A    -11.223170     8A    -11.214386     9A     -1.467248
      10A     -1.361562    11A     -1.086743    12A     -1.028817
      13A     -0.981089    14A     -0.880576    15A     -0.807902
      16A     -0.780932    17A     -0.689048    18A     -0.681040
      19A     -0.667359    20A     -0.631379    21A     -0.603131
      22A     -0.592644    23A     -0.570954    24A     -0.553116
      25A     -0.544863    26A     -0.524597    27A     -0.513992
      28A     -0.481880    29A     -0.479177    30A     -0.475245
      31A     -0.446527    32A     -0.437092

  @DF-RHF Final Energy:  -383.94131015492297

   => Energetics <=

    Nuclear Repulsion Energy =            381.9400062058977596
    One-Electron Energy =               -1279.8015861272906477
    Two-Electron Energy =                 513.9202697664703692
    DFT Exchange-Correlation Energy =       0.0000000000000000
    Empirical Dispersion Energy =           0.0000000000000000
    PCM Polarization Energy =               0.0000000000000000
    EFP Energy =                            0.0000000000000000
    Total Energy =                       -383.9413101549224621

  Mulliken Charges: (a.u.)
   Center  Symbol    Alpha    Beta     Spin     Total
       1     O     4.28359  4.28359  0.00000 -0.56718
       2     C     2.61973  2.61973  0.00000  0.76055
       3     C     3.28152  3.28152  0.00000 -0.56305
       4     O     4.30958  4.30958  0.00000 -0.61916
       5     H     0.40074  0.40074  0.00000  0.19852
       6     H     0.39700  0.39700  0.00000  0.20600
       7     H     0.40076  0.40076  0.00000  0.19847
       8     C     3.00218  3.00218  0.00000 -0.00435
       9     C     3.16737  3.16737  0.00000 -0.33474
      10     H     0.40871  0.40871  0.00000  0.18258
      11     H     0.40893  0.40893  0.00000  0.18213
      12     C     3.15699  3.15699  0.00000 -0.31397
      13     H     0.41822  0.41822  0.00000  0.16356
      14     H     0.40722  0.40722  0.00000  0.18557
      15     C     3.24084  3.24084  0.00000 -0.48168
      16     H     0.42127  0.42127  0.00000  0.15746
      17     H     0.41713  0.41713  0.00000  0.16573
      18     H     0.41732  0.41732  0.00000  0.16535
      19     H     0.42078  0.42078  0.00000  0.15843
      20     H     0.42012  0.42012  0.00000  0.15976

   Total alpha = 32.00000, Total beta = 32.00000, Total charge =  0.00000
