  ==> Input File <==

--------------------------------------------------------------------------
set {
	reference rhf
	basis cc-pvtz
}

set_num_threads( 4 )
memory 2 gb

molecule MOL {
0 1

O	 1.044189	 -0.222243	 0.530675
C	 0.029490	 0.077183	 0.000078
C	 -1.232113	 -0.748027	 0.000015
O	 -0.130649	 1.201773	 -0.677332
C	 -2.501422	 0.088592	 -0.000052
H	 -1.188777	 -1.400384	 -0.865133
H	 -1.188857	 -1.400312	 0.865225
H	 -2.548170	 0.725504	 -0.873205
H	 -3.371613	 -0.556398	 -0.000040
H	 -2.548215	 0.725571	 0.873047
C	 0.978409	 2.074189	 -0.758095
H	 1.281989	 2.397010	 0.226720
H	 0.650976	 2.918850	 -1.342186
H	 1.812053	 1.587042	 -1.241801

	symmetry c1
}
set optking {
	frozen_dihedral = ("
		4 2 3 6
	")
}

ee = optimize('scf')
oeprop('DIPOLE', 'QUADRUPOLE', 'MULLIKEN_CHARGES')
f=open( 'psi4out.xyz', 'w' )
f.write( "14  " )
f.write( str(ee) + "\n" )
f.write( MOL.save_string_xyz() )
f.close()
--------------------------------------------------------------------------

    Molecular point group: c1
  Charge       = 0
  Multiplicity = 1
  Basis Set: CC-PVTZ
  Basis Set:
  @DF-RHF Final Energy:  -305.98489973715311
    Total Energy =                       -305.9848997371530572
    Molecular point group: c1
  Basis Set: CC-PVTZ
  Basis Set:
  Basis Set: CC-PVTZ
  Basis Set:
  @DF-RHF Final Energy:  -305.98521133664303
    Total Energy =                       -305.9852113366432036
  Basis Set: CC-PVTZ
  Basis Set:
  Basis Set: CC-PVTZ
  Basis Set:
  @DF-RHF Final Energy:  -305.98552435722672
    Total Energy =                       -305.9855243572263817
  Basis Set: CC-PVTZ
  Basis Set:
  Basis Set: CC-PVTZ
  Basis Set:
  @DF-RHF Final Energy:  -305.98558574112576
    Total Energy =                       -305.9855857411259308
  Basis Set: CC-PVTZ
  Basis Set:
  Basis Set: CC-PVTZ
  Basis Set:
  @DF-RHF Final Energy:  -305.98558722950372
    Total Energy =                       -305.9855872295038921
  Basis Set: CC-PVTZ
  Basis Set:
  Charge       = 0
  Multiplicity = 1
  Basis Set: CC-PVTZ
  Basis Set:

    Orbital Energies (a.u.)
    -----------------------

    Doubly Occupied:

       1A    -20.599130     2A    -20.531942     3A    -11.365153
       4A    -11.279811     5A    -11.237219     6A    -11.220954
       7A     -1.473717     8A     -1.365325     9A     -1.067624
      10A     -0.976174    11A     -0.888048    12A     -0.777080
      13A     -0.697552    14A     -0.684658    15A     -0.676278
      16A     -0.621852    17A     -0.587648    18A     -0.564792
      19A     -0.547785    20A     -0.523216    21A     -0.516873
      22A     -0.499497    23A     -0.459847    24A     -0.437272

  @DF-RHF Final Energy:  -305.98559196307133

   => Energetics <=

    Nuclear Repulsion Energy =            248.8098880803183590
    One-Electron Energy =                -910.3920687723411902
    Two-Electron Energy =                 355.5965887289515877
    DFT Exchange-Correlation Energy =       0.0000000000000000
    Empirical Dispersion Energy =           0.0000000000000000
    PCM Polarization Energy =               0.0000000000000000
    EFP Energy =                            0.0000000000000000
    Total Energy =                       -305.9855919630712151
    Molecular point group: c1
  Basis Set: CC-PVTZ
  Basis Set:

  -Total Gradient:
     Atom            X                  Y                   Z
    ------   -----------------  -----------------  -----------------
       1       -0.000037463058     0.000008918303    -0.000014170398
       2        0.000361921438    -0.000557839590    -0.000512074981
       3       -0.000428161672     0.000680402976    -0.000274666301
       4       -0.000167586354     0.000362230939     0.000432637221
       5       -0.000002594739    -0.000005324676     0.000005008802
       6        0.000311823469    -0.000473258661     0.000366463711
       7       -0.000010534893    -0.000002750974    -0.000001057018
       8        0.000001467098    -0.000000736655     0.000004798620
       9       -0.000007333604    -0.000002196743    -0.000001141322
      10        0.000000902818    -0.000001715948    -0.000006306297
      11       -0.000033209604    -0.000022079561     0.000005951598
      12        0.000006994310     0.000006786316    -0.000000662210
      13        0.000000708768     0.000004044988    -0.000002961426
      14        0.000003066025     0.000003519285    -0.000001819997

  **** Optimization is complete! (in 6 steps) ****
    Final optimized geometry and variables:
    Molecular point group: c1

    Geometry (in Angstrom), charge = 0, multiplicity = 1:

    O            1.321259402921    -0.672854162909     0.669529415056
    C            0.307823566949    -0.338124515839     0.156278779814
    C           -0.950999274959    -1.171383887557     0.161725872219
    O            0.175007223880     0.796710963620    -0.506858341958
    C           -2.262351598853    -0.393979316984     0.157819412727
    H           -0.891004036488    -1.812682206690    -0.712782491574
    H           -0.880644395505    -1.820346365504     1.023008464925
    H           -2.363170192801     0.209208057661    -0.733118492193
    H           -3.096527212827    -1.083413442812     0.198843829982
    H           -2.331230884827     0.263272605552     1.016411866023
    C            1.313533042866     1.629641562391    -0.600299550397
    H            1.647410430310     1.928721872583     0.381955295951
    H            1.005014274818     2.492285300972    -1.168214756513
    H            2.118917802894     1.117896159157    -1.105703411351

  Mulliken Charges: (a.u.)
   Center  Symbol    Alpha    Beta     Spin     Total
       1     O     4.20109  4.20109  0.00000 -0.40217
       2     C     2.80522  2.80522  0.00000  0.38957
       3     C     3.08792  3.08792  0.00000 -0.17585
       4     O     4.14572  4.14572  0.00000 -0.29143
       5     C     3.14359  3.14359  0.00000 -0.28717
       6     H     0.44605  0.44605  0.00000  0.10790
       7     H     0.43531  0.43531  0.00000  0.12938
       8     H     0.44678  0.44678  0.00000  0.10644
       9     H     0.44898  0.44898  0.00000  0.10203
      10     H     0.45142  0.45142  0.00000  0.09716
      11     C     3.03463  3.03463  0.00000 -0.06925
      12     H     0.45354  0.45354  0.00000  0.09292
      13     H     0.44622  0.44622  0.00000  0.10755
      14     H     0.45354  0.45354  0.00000  0.09292

   Total alpha = 24.00000, Total beta = 24.00000, Total charge = -0.00000
