  ==> Input File <==

--------------------------------------------------------------------------
set {
	reference rhf
	basis cc-pvtz
}

set_num_threads( 4 )
memory 2 gb

molecule MOL {
0 1

O	 -2.440701	 -0.934798	 -0.415053
C	 -1.922978	 0.063265	 -0.045005
C	 -2.632749	 1.372204	 0.158357
O	 -0.637375	 0.157174	 0.243149
H	 -2.187724	 2.129143	 -0.474664
H	 -3.677681	 1.257276	 -0.079438
H	 -2.516788	 1.693160	 1.185542
C	 0.162530	 -1.009518	 0.097799
C	 1.587210	 -0.664190	 0.477086
H	 0.096803	 -1.356267	 -0.924704
H	 -0.233803	 -1.785900	 0.736810
C	 2.256770	 0.342732	 -0.454344
H	 2.154716	 -1.590834	 0.479041
H	 1.598751	 -0.289614	 1.496104
C	 2.372789	 -0.167826	 -1.886645
H	 1.687902	 1.268702	 -0.446054
H	 3.242939	 0.583504	 -0.074419
H	 2.847227	 0.567024	 -2.526403
H	 1.396786	 -0.389874	 -2.305578
H	 2.964757	 -1.075901	 -1.931258

	symmetry c1
}
set optking {
	frozen_dihedral = ("
		16 12 9 8
	")
}

ee = optimize('scf')
oeprop('DIPOLE', 'QUADRUPOLE', 'MULLIKEN_CHARGES')
f=open( 'psi4out.xyz', 'w' )
f.write( "20  " )
f.write( str(ee) + "\n" )
f.write( MOL.save_string_xyz() )
f.close()
--------------------------------------------------------------------------

    Molecular point group: c1
  Charge       = 0
  Multiplicity = 1
  Basis Set: CC-PVTZ
  Basis Set:
  @DF-RHF Final Energy:  -384.08534733901962
    Total Energy =                       -384.0853473390195632
    Molecular point group: c1
  Basis Set: CC-PVTZ
  Basis Set:
  Basis Set: CC-PVTZ
  Basis Set:
  @DF-RHF Final Energy:  -384.08583427552884
    Total Energy =                       -384.0858342755290096
  Basis Set: CC-PVTZ
  Basis Set:
  Basis Set: CC-PVTZ
  Basis Set:
  @DF-RHF Final Energy:  -384.08597799832262
    Total Energy =                       -384.0859779983230737
  Basis Set: CC-PVTZ
  Basis Set:
  Basis Set: CC-PVTZ
  Basis Set:
  @DF-RHF Final Energy:  -384.08592140023137
    Total Energy =                       -384.0859214002307453
  Basis Set: CC-PVTZ
  Basis Set:
  Basis Set: CC-PVTZ
  Basis Set:
  @DF-RHF Final Energy:  -384.08608406701421
    Total Energy =                       -384.0860840670144398
  Basis Set: CC-PVTZ
  Basis Set:
  Basis Set: CC-PVTZ
  Basis Set:
  @DF-RHF Final Energy:  -384.08608527789482
    Total Energy =                       -384.0860852778946537
  Basis Set: CC-PVTZ
  Basis Set:
  Charge       = 0
  Multiplicity = 1
  Basis Set: CC-PVTZ
  Basis Set:

    Orbital Energies (a.u.)
    -----------------------

    Doubly Occupied:

       1A    -20.594406     2A    -20.532770     3A    -11.366780
       4A    -11.279463     5A    -11.231782     6A    -11.223817
       7A    -11.218900     8A    -11.211354     9A     -1.471071
      10A     -1.365249    11A     -1.086582    12A     -1.027914
      13A     -0.979925    14A     -0.891244    15A     -0.808895
      16A     -0.769995    17A     -0.693383    18A     -0.690917
      19A     -0.668015    20A     -0.621888    21A     -0.620743
      22A     -0.578299    23A     -0.575898    24A     -0.564461
      25A     -0.537201    26A     -0.528638    27A     -0.524556
      28A     -0.479460    29A     -0.477653    30A     -0.469444
      31A     -0.452084    32A     -0.442169

  @DF-RHF Final Energy:  -384.08608529632625

   => Energetics <=

    Nuclear Repulsion Energy =            391.4579541585580955
    One-Electron Energy =               -1299.1181595109464979
    Two-Electron Energy =                 523.5741200560624975
    DFT Exchange-Correlation Energy =       0.0000000000000000
    Empirical Dispersion Energy =           0.0000000000000000
    PCM Polarization Energy =               0.0000000000000000
    EFP Energy =                            0.0000000000000000
    Total Energy =                       -384.0860852963259049
    Molecular point group: c1
  Basis Set: CC-PVTZ
  Basis Set:

  -Total Gradient:
     Atom            X                  Y                   Z
    ------   -----------------  -----------------  -----------------
       1       -0.000000504830    -0.000002687553     0.000004189851
       2        0.000002782168     0.000004793906    -0.000002136038
       3       -0.000002163875     0.000001482625    -0.000002215132
       4       -0.000008662092    -0.000008375573     0.000006034162
       5       -0.000000079775     0.000000407150     0.000001021366
       6       -0.000000338446     0.000000646307     0.000000102099
       7       -0.000000432283    -0.000000628340     0.000000282940
       8        0.000037250474    -0.000064686894    -0.000072034020
       9       -0.000024519194     0.000104407603     0.000094993993
      10       -0.000000165226     0.000001221883     0.000004365616
      11       -0.000008031958     0.000002230647     0.000003611850
      12       -0.000069143462    -0.000079173775    -0.000132763860
      13        0.000002810116    -0.000000119580     0.000000632089
      14        0.000003340241     0.000001177146    -0.000000469836
      15        0.000000240537     0.000001611699     0.000005449794
      16        0.000067023424     0.000034470692     0.000088818149
      17        0.000002378870     0.000002446232    -0.000002970343
      18        0.000001258949     0.000000801409     0.000001443392
      19       -0.000001318315     0.000000197552     0.000000109572
      20       -0.000001725326    -0.000000223134     0.000001534357

  **** Optimization is complete! (in 7 steps) ****
    Final optimized geometry and variables:
    Molecular point group: c1

    Geometry (in Angstrom), charge = 0, multiplicity = 1:

    O           -2.290767369848    -0.846607915783    -0.104504775439
    C           -1.756831899117     0.162512775269     0.207943699326
    C           -2.450895959904     1.485934175836     0.364578396904
    O           -0.464334856230     0.257333388831     0.462999983049
    H           -2.013503376739     2.207877673493    -0.313024268862
    H           -3.501786806507     1.369921268043     0.155230831347
    H           -2.309310346824     1.853501452995     1.372685367622
    C            0.321778669175    -0.923072904883     0.357000243379
    C            1.757805430904    -0.573109396804     0.692561747529
    H            0.220888069812    -1.324288899743    -0.640568474530
    H           -0.061861791407    -1.661869471391     1.046372218120
    C            2.423134535480     0.446064177074    -0.234127550455
    H            2.324843851692    -1.500092065873     0.680537718202
    H            1.790160372696    -0.201914717177     1.711466590218
    C            2.573322313987    -0.014294991565    -1.681773975620
    H            1.865852503774     1.375298267348    -0.203647119722
    H            3.406926108930     0.667870054530     0.166828526255
    H            3.117595968540     0.721822626518    -2.261695724813
    H            1.613719962842    -0.159587590632    -2.163539410355
    H            3.119434559385    -0.950315047342    -1.741791442092

  Mulliken Charges: (a.u.)
   Center  Symbol    Alpha    Beta     Spin     Total
       1     O     4.19722  4.19722  0.00000 -0.39443
       2     C     2.80916  2.80916  0.00000  0.38168
       3     C     3.13845  3.13845  0.00000 -0.27690
       4     O     4.15388  4.15388  0.00000 -0.30775
       5     H     0.44620  0.44620  0.00000  0.10761
       6     H     0.43775  0.43775  0.00000  0.12451
       7     H     0.44560  0.44560  0.00000  0.10880
       8     C     2.99622  2.99622  0.00000  0.00757
       9     C     3.09245  3.09245  0.00000 -0.18490
      10     H     0.44953  0.44953  0.00000  0.10094
      11     H     0.44182  0.44182  0.00000  0.11637
      12     C     3.08997  3.08997  0.00000 -0.17994
      13     H     0.45109  0.45109  0.00000  0.09782
      14     H     0.44703  0.44703  0.00000  0.10595
      15     C     3.15423  3.15423  0.00000 -0.30845
      16     H     0.44838  0.44838  0.00000  0.10325
      17     H     0.44807  0.44807  0.00000  0.10385
      18     H     0.44548  0.44548  0.00000  0.10904
      19     H     0.45281  0.45281  0.00000  0.09438
      20     H     0.45469  0.45469  0.00000  0.09061

   Total alpha = 32.00000, Total beta = 32.00000, Total charge = -0.00000
