  ==> Input File <==

--------------------------------------------------------------------------
set {
	reference rhf
	basis 6-31G*
}

set_num_threads( 1 )
memory 2 gb

molecule MOL {
0 1

H	 -0.369069	 2.500587	 -0.160170
C	 0.351978	 2.015645	 0.508952
C	 0.692068	 0.589600	 0.160137
O	 0.805856	 2.612734	 1.430694
C	 -0.558097	 -0.297372	 0.091132
H	 1.399191	 0.219772	 0.893408
H	 1.185189	 0.593968	 -0.811276
C	 -1.850991	 0.512573	 -0.019058
H	 -0.476753	 -0.965681	 -0.762987
H	 -0.604799	 -0.930658	 0.975228
C	 -3.096943	 -0.368295	 -0.099594
H	 -1.800724	 1.150330	 -0.898172
H	 -1.931651	 1.177355	 0.838044
H	 -3.060452	 -1.020287	 -0.967456
H	 -3.996858	 0.233488	 -0.175704
H	 -3.191959	 -0.995686	 0.782074

	symmetry c1
}
set optking {
	frozen_dihedral = ("
		9 5 8 12,
		4 2 3 6
	")
}

ee = energy('scf')
oeprop('DIPOLE', 'QUADRUPOLE', 'MULLIKEN_CHARGES')
f=open( 'psi4out.xyz', 'w' )
f.write( "16  " )
f.write( str(ee) + "\n" )
f.write( MOL.save_string_xyz() )
f.close()
--------------------------------------------------------------------------

    Molecular point group: c1

    Geometry (in Angstrom), charge = 0, multiplicity = 1:

       Center              X                  Y                   Z               Mass
    ------------   -----------------  -----------------  -----------------  -----------------
           H          0.253687723698     1.650207914794    -0.512119408709     1.007825032070
           C          0.974734723698     1.165265914794     0.157002591291    12.000000000000
           C          1.314824723698    -0.260779085206    -0.191812408709    12.000000000000
           O          1.428612723698     1.762354914794     1.078744591291    15.994914619560
           C          0.064659723698    -1.147751085206    -0.260817408709    12.000000000000
           H          2.021947723698    -0.630607085206     0.541458591291     1.007825032070
           H          1.807945723698    -0.256411085206    -1.163225408709     1.007825032070
           C         -1.228234276302    -0.337806085206    -0.371007408709    12.000000000000
           H          0.146003723698    -1.816060085206    -1.114936408709     1.007825032070
           H          0.017957723698    -1.781037085206     0.623278591291     1.007825032070
           C         -2.474186276302    -1.218674085206    -0.451543408709    12.000000000000
           H         -1.177967276302     0.299950914794    -1.250121408709     1.007825032070
           H         -1.308894276302     0.326975914794     0.486094591291     1.007825032070
           H         -2.437695276302    -1.870666085206    -1.319405408709     1.007825032070
           H         -3.374101276302    -0.616891085206    -0.527653408709     1.007825032070
           H         -2.569202276302    -1.846065085206     0.430124591291     1.007825032070

  Charge       = 0
  Multiplicity = 1
  Basis Set: 6-31G*
  Basis Set:

    Orbital Energies (a.u.)
    -----------------------

    Doubly Occupied:

       1A    -20.559558     2A    -11.323622     3A    -11.235002
       4A    -11.233470     5A    -11.231721     6A    -11.219441
       7A     -1.400100     8A     -1.100716     9A     -1.015532
      10A     -0.902797    11A     -0.843752    12A     -0.766060
      13A     -0.678806    14A     -0.648009    15A     -0.627110
      16A     -0.603423    17A     -0.579894    18A     -0.563687
      19A     -0.525755    20A     -0.511335    21A     -0.498110
      22A     -0.474991    23A     -0.470828    24A     -0.404904

  @DF-RHF Final Energy:  -270.00872918368771

   => Energetics <=

    Nuclear Repulsion Energy =            236.0564265689921797
    One-Electron Energy =                -833.2931484214277589
    Two-Electron Energy =                 327.2279926687478451
    DFT Exchange-Correlation Energy =       0.0000000000000000
    Empirical Dispersion Energy =           0.0000000000000000
    PCM Polarization Energy =               0.0000000000000000
    EFP Energy =                            0.0000000000000000
    Total Energy =                       -270.0087291836877625

  Mulliken Charges: (a.u.)
   Center  Symbol    Alpha    Beta     Spin     Total
       1     H     0.42739  0.42739  0.00000  0.14521
       2     C     2.83624  2.83624  0.00000  0.32752
       3     C     3.20990  3.20990  0.00000 -0.41981
       4     O     4.23995  4.23995  0.00000 -0.47990
       5     C     3.15681  3.15681  0.00000 -0.31362
       6     H     0.39681  0.39681  0.00000  0.20639
       7     H     0.40779  0.40779  0.00000  0.18441
       8     C     3.17275  3.17275  0.00000 -0.34550
       9     H     0.41535  0.41535  0.00000  0.16930
      10     H     0.41164  0.41164  0.00000  0.17672
      11     C     3.23776  3.23776  0.00000 -0.47551
      12     H     0.41980  0.41980  0.00000  0.16039
      13     H     0.41305  0.41305  0.00000  0.17390
      14     H     0.42000  0.42000  0.00000  0.15999
      15     H     0.41604  0.41604  0.00000  0.16793
      16     H     0.41872  0.41872  0.00000  0.16257

   Total alpha = 24.00000, Total beta = 24.00000, Total charge =  0.00000
