                              Psi4 1.0.54 Driver

  ==> Input File <==

--------------------------------------------------------------------------
set {
	reference rhf
	basis cc-pvtz
}

set_num_threads( 4 )
memory 2 gb

molecule MOL {
0 1

O	 -2.071633	 -1.227563	 -0.223463
C	 -1.652164	 -0.152425	 0.058082
C	 -0.327811	 0.006324	 0.778296
C	 -2.402515	 1.108629	 -0.298924
C	 0.843231	 -0.001575	 -0.211665
H	 -0.319484	 0.928173	 1.350354
H	 -0.227804	 -0.823091	 1.466705
C	 1.202304	 -1.405927	 -0.688207
H	 1.716665	 0.453900	 0.248062
H	 0.582320	 0.617790	 -1.062945
C	 2.358254	 -1.417545	 -1.682595
H	 1.456745	 -2.023332	 0.168878
H	 0.328464	 -1.861545	 -1.144666
H	 3.257714	 -0.999459	 -1.243039
H	 2.120345	 -0.833810	 -2.565217
H	 2.586391	 -2.426766	 -2.004819
H	 -3.240910	 0.874416	 -0.936711
H	 -1.747554	 1.818823	 -0.790984
H	 -2.760419	 1.579708	 0.610998

	symmetry c1
}
set optking {
	frozen_dihedral = ("
		9 5 3 2
	")
}

ee,wfn = optimize('scf', return_wfn=True)
oeprop( wfn, 'DIPOLE', 'QUADRUPOLE', 'MULLIKEN_CHARGES')
f=open( 'psi4out.xyz', 'w' )
f.write( "19  " )
f.write( str(ee) + "\n" )
f.write( MOL.save_string_xyz() )
f.close()
--------------------------------------------------------------------------

    Molecular point group: c1
  Charge       = 0
  Multiplicity = 1
  Basis Set: CC-PVTZ
  Basis Set:
  @DF-RHF Final Energy:  -309.17524185487287
    Total Energy =                       -309.1752418548724677
    Molecular point group: c1
  Basis Set: CC-PVTZ
  Basis Set:
  Basis Set: CC-PVTZ
  Basis Set:
  @DF-RHF Final Energy:  -309.17559317246383
    Total Energy =                       -309.1755931724638913
  Basis Set: CC-PVTZ
  Basis Set:
  Basis Set: CC-PVTZ
  Basis Set:
  @DF-RHF Final Energy:  -309.17555155478948
    Total Energy =                       -309.1755515547891946
  Basis Set: CC-PVTZ
  Basis Set:
  Basis Set: CC-PVTZ
  Basis Set:
  @DF-RHF Final Energy:  -309.17569455086084
    Total Energy =                       -309.1756945508607828
  Basis Set: CC-PVTZ
  Basis Set:
  @DF-RHF Final Energy:  -309.17571429977045
    Total Energy =                       -309.1757142997705614
  Basis Set: CC-PVTZ
  Basis Set:
  @DF-RHF Final Energy:  -309.17572259728991
    Total Energy =                       -309.1757225972896777
  Basis Set: CC-PVTZ
  Basis Set:
  Basis Set: CC-PVTZ
  Basis Set:
  @DF-RHF Final Energy:  -309.17573627830484
    Total Energy =                       -309.1757362783047824
  Basis Set: CC-PVTZ
  Basis Set:
  Basis Set: CC-PVTZ
  Basis Set:
  @DF-RHF Final Energy:  -309.17573985891488
    Total Energy =                       -309.1757398589147670
  Basis Set: CC-PVTZ
  Basis Set:
  Charge       = 0
  Multiplicity = 1
  Basis Set: CC-PVTZ
  Basis Set:

    Orbital Energies (a.u.)
    -----------------------

    Doubly Occupied:

       1A    -20.537720     2A    -11.319898     3A    -11.230098
       4A    -11.228584     5A    -11.227014     6A    -11.216042
       7A    -11.209730     8A     -1.397485     9A     -1.090938
      10A     -1.028841    11A     -0.982768    12A     -0.890000
      13A     -0.807759    14A     -0.734625    15A     -0.662725
      16A     -0.644273    17A     -0.623270    18A     -0.609258
      19A     -0.586484    20A     -0.575059    21A     -0.551762
      22A     -0.537293    23A     -0.521433    24A     -0.499194
      25A     -0.480367    26A     -0.472729    27A     -0.463997
      28A     -0.399559

  @DF-RHF Final Energy:  -309.17574019240811

   => Energetics <=

    Nuclear Repulsion Energy =            307.3010980357389030
    One-Electron Energy =               -1027.8958604284600824
    Two-Electron Energy =                 411.4190222003127246
    DFT Exchange-Correlation Energy =       0.0000000000000000
    Empirical Dispersion Energy =           0.0000000000000000
    PCM Polarization Energy =               0.0000000000000000
    EFP Energy =                            0.0000000000000000
    Total Energy =                       -309.1757401924083979
    Molecular point group: c1
  Basis Set: CC-PVTZ
  Basis Set:

  -Total Gradient:
     Atom            X                  Y                   Z
    ------   -----------------  -----------------  -----------------
       1        0.000004827219     0.000001436157     0.000004701787
       2       -0.000119058068     0.001273300400    -0.000125915805
       3        0.000031393407    -0.001403061298    -0.000002319234
       4       -0.000045677814    -0.000007073928     0.000064097614
       5        0.000573805079    -0.001422300232     0.000680619104
       6       -0.000005526559    -0.000000098256     0.000003526022
       7       -0.000003055416     0.000000347318    -0.000003005554
       8        0.000020437549    -0.000010977513    -0.000001829367
       9       -0.000496399834     0.001568381337    -0.000577298717
      10        0.000007367487    -0.000005346832     0.000003675914
      11       -0.000004808897    -0.000001226222    -0.000004580202
      12       -0.000001659962     0.000000466843    -0.000000033147
      13       -0.000001582905    -0.000006111046    -0.000002218672
      14        0.000001506605     0.000000045747     0.000001112163
      15        0.000002049963     0.000001792007    -0.000001927267
      16       -0.000002430485     0.000001229215     0.000002297843
      17        0.000013529256    -0.000001815008    -0.000003912656
      18        0.000008374725    -0.000003427665    -0.000014785506
      19        0.000016908648     0.000014438977    -0.000022204321

  **** Optimization is complete! (in 9 steps) ****
    Final optimized geometry and variables:
    Molecular point group: c1

    Geometry (in Angstrom), charge = 0, multiplicity = 1:

    O           -1.878009178246    -0.784635669729     0.265622070477
    C           -1.372316065385     0.278199227372     0.429703307209
    C           -0.034592624434     0.423815026719     1.127036314729
    C           -2.038822184376     1.547670180149    -0.048864124647
    C            1.140489314989     0.428682992057     0.132882857271
    H           -0.030579414181     1.351710457260     1.688647572770
    H            0.071999455960    -0.395518313065     1.825679468169
    C            1.512217860063    -0.955194684077    -0.392853270699
    H            1.999102934328     0.879167241951     0.619847373195
    H            0.906633197975     1.081392113537    -0.704515611989
    C            2.656031268085    -0.912567893276    -1.400397623578
    H            1.791203598646    -1.587394617110     0.444943295595
    H            0.643395922500    -1.418914437163    -0.845658648435
    H            3.549583306024    -0.478113732577    -0.963990870843
    H            2.391669140506    -0.319198474281    -2.269520391492
    H            2.907841719182    -1.908235216647    -1.745919480361
    H           -2.870963422896     1.307746209324    -0.692703172099
    H           -1.337008759971     2.188140973245    -0.569480892213
    H           -2.400021141442     2.100222203660     0.812758887959

  Mulliken Charges: (a.u.)
   Center  Symbol    Alpha    Beta     Spin     Total
       1     O     4.17650  4.17650  0.00000 -0.35300
       2     C     2.85809  2.85809  0.00000  0.28383
       3     C     3.10662  3.10662  0.00000 -0.21323
       4     C     3.15434  3.15434  0.00000 -0.30867
       5     C     3.10473  3.10473  0.00000 -0.20946
       6     H     0.44105  0.44105  0.00000  0.11791
       7     H     0.43959  0.43959  0.00000  0.12082
       8     C     3.08105  3.08105  0.00000 -0.16210
       9     H     0.44510  0.44510  0.00000  0.10980
      10     H     0.45304  0.45304  0.00000  0.09392
      11     C     3.15033  3.15033  0.00000 -0.30067
      12     H     0.45364  0.45364  0.00000  0.09273
      13     H     0.44264  0.44264  0.00000  0.11471
      14     H     0.45606  0.45606  0.00000  0.08788
      15     H     0.45542  0.45542  0.00000  0.08916
      16     H     0.44628  0.44628  0.00000  0.10744
      17     H     0.43650  0.43650  0.00000  0.12701
      18     H     0.45092  0.45092  0.00000  0.09816
      19     H     0.44812  0.44812  0.00000  0.10376

   Total alpha = 28.00000, Total beta = 28.00000, Total charge = -0.00000

*** Psi4 exiting successfully. Buy a developer a beer!
