  ==> Input File <==

--------------------------------------------------------------------------
set {
	reference rhf
	basis 6-31G*
}

set_num_threads( 4 )
memory 2 gb

molecule MOL {
0 1

H	 -3.985022	 0.274304	 -1.151895
C	 -3.313449	 -0.383736	 -0.635529
C	 -2.076860	 -0.007332	 -0.404944
H	 -3.677132	 -1.342955	 -0.318441
O	 -1.180634	 -0.819263	 0.215062
H	 -1.695242	 0.951733	 -0.707859
C	 0.051604	 -1.018856	 -0.387932
C	 1.043764	 0.054862	 -0.001873
H	 -0.017620	 -1.041351	 -1.469781
H	 0.437898	 -1.966374	 -0.042284
F	 2.212596	 -0.199467	 -0.571921
F	 0.652529	 1.252447	 -0.405055
F	 1.230877	 0.110694	 1.300533

	symmetry c1
}
set optking {
	frozen_dihedral = ("
		6 3 5 7
	")
}

ee = optimize('scf')
oeprop('DIPOLE', 'QUADRUPOLE', 'MULLIKEN_CHARGES')
f=open( 'psi4out.xyz', 'w' )
f.write( "13  " )
f.write( str(ee) + "\n" )
f.write( MOL.save_string_xyz() )
f.close()
--------------------------------------------------------------------------

    Molecular point group: c1
  Charge       = 0
  Multiplicity = 1
  Basis Set: 6-31G*
  Basis Set:
  @DF-RHF Final Energy:  -527.53409395310359
    Total Energy =                       -527.5340939531034792
    Molecular point group: c1
  Basis Set: 6-31G*
  Basis Set:
  Basis Set: 6-31G*
  Basis Set:
  @DF-RHF Final Energy:  -527.53451074016220
    Total Energy =                       -527.5345107401620908
  Basis Set: 6-31G*
  Basis Set:
  Basis Set: 6-31G*
  Basis Set:
  @DF-RHF Final Energy:  -527.53490927895791
    Total Energy =                       -527.5349092789576844
  Basis Set: 6-31G*
  Basis Set:
  Basis Set: 6-31G*
  Basis Set:
  @DF-RHF Final Energy:  -527.53493719336007
    Total Energy =                       -527.5349371933598377
  Basis Set: 6-31G*
  Basis Set:
  Basis Set: 6-31G*
  Basis Set:
  @DF-RHF Final Energy:  -527.53494209133737
    Total Energy =                       -527.5349420913370295
  Basis Set: 6-31G*
  Basis Set:
  Charge       = 0
  Multiplicity = 1
  Basis Set: 6-31G*
  Basis Set:

    Orbital Energies (a.u.)
    -----------------------

    Doubly Occupied:

       1A    -26.344202     2A    -26.344015     3A    -26.339891
       4A    -20.602110     5A    -11.502500     6A    -11.315639
       7A    -11.295997     8A    -11.223888     9A     -1.741221
      10A     -1.639499    11A     -1.637661    12A     -1.430826
      13A     -1.082143    14A     -1.017088    15A     -0.924820
      16A     -0.834760    17A     -0.830477    18A     -0.823505
      19A     -0.779947    20A     -0.723447    21A     -0.711427
      22A     -0.700562    23A     -0.675367    24A     -0.657838
      25A     -0.653682    26A     -0.642883    27A     -0.629067
      28A     -0.595748    29A     -0.568108    30A     -0.528521
      31A     -0.480645    32A     -0.365538

  @DF-RHF Final Energy:  -527.53494246821811

   => Energetics <=

    Nuclear Repulsion Energy =            411.3955224268145230
    One-Electron Energy =               -1546.5748888251296194
    Two-Electron Energy =                 607.6444239300971049
    DFT Exchange-Correlation Energy =       0.0000000000000000
    Empirical Dispersion Energy =           0.0000000000000000
    PCM Polarization Energy =               0.0000000000000000
    EFP Energy =                            0.0000000000000000
    Total Energy =                       -527.5349424682179915
    Molecular point group: c1
  Basis Set: 6-31G*
  Basis Set:

  -Total Gradient:
     Atom            X                  Y                   Z
    ------   -----------------  -----------------  -----------------
       1       -0.000001529093    -0.000005296728     0.000002721218
       2        0.000028666575     0.000004800169    -0.000003953268
       3        0.000237196893    -0.001163954274    -0.001772540463
       4        0.000005112163    -0.000000857401     0.000003732058
       5        0.000468729843     0.001444359778     0.001098073102
       6       -0.000358121561     0.000611800541     0.001133835685
       7       -0.000332825771    -0.000882723083    -0.000469426731
       8        0.000025552239    -0.000015824755    -0.000006950601
       9       -0.000004959580    -0.000003846789     0.000003201541
      10       -0.000013179591    -0.000005419579     0.000000305671
      11       -0.000045268619     0.000009647424     0.000036710248
      12       -0.000027384995     0.000032407671    -0.000033404186
      13        0.000018011495    -0.000025092975     0.000007695721

  **** Optimization is complete! (in 6 steps) ****
    Final optimized geometry and variables:
    Molecular point group: c1

    Geometry (in Angstrom), charge = 0, multiplicity = 1:

    H           -4.051929603301     0.310624655985    -1.051083896882
    C           -3.343496326917    -0.315700000654    -0.543366218725
    C           -2.092440810624     0.064860429946    -0.427013430557
    H           -3.689431138964    -1.240390007783    -0.120351483702
    O           -1.182820121619    -0.671522525606     0.275167967226
    H           -1.724490307802     0.994256615605    -0.822624083866
    C            0.050303069174    -0.897097464618    -0.328410379755
    C            1.070246997355     0.129397133557     0.107404372003
    H           -0.010520162327    -0.882052570398    -1.409786257018
    H            0.404597359103    -1.867444142086    -0.011083498709
    F            2.235247477975    -0.130060278076    -0.467122841561
    F            0.715955306516     1.357088814400    -0.242844638200
    F            1.251598447850     0.124108171491     1.411973366056

  Mulliken Charges: (a.u.)
   Center  Symbol    Alpha    Beta     Spin     Total
       1     H     0.40625  0.40625  0.00000  0.18751
       2     C     3.22131  3.22131  0.00000 -0.44262
       3     C     2.91365  2.91365  0.00000  0.17271
       4     H     0.40153  0.40153  0.00000  0.19694
       5     O     4.30600  4.30600  0.00000 -0.61200
       6     H     0.40027  0.40027  0.00000  0.19946
       7     C     3.06171  3.06171  0.00000 -0.12343
       8     C     2.45615  2.45615  0.00000  1.08769
       9     H     0.40347  0.40347  0.00000  0.19305
      10     H     0.39123  0.39123  0.00000  0.21754
      11     F     4.68266  4.68266  0.00000 -0.36532
      12     F     4.68105  4.68105  0.00000 -0.36209
      13     F     4.67472  4.67472  0.00000 -0.34944

   Total alpha = 32.00000, Total beta = 32.00000, Total charge =  0.00000
