                              Psi4 1.0.54 Driver

  ==> Input File <==

--------------------------------------------------------------------------
set {
	reference rhf
	basis cc-pvtz
}

set_num_threads( 4 )
memory 2 gb

molecule MOL {
0 1

H	 -4.024094	 -0.454727	 0.000004
C	 -2.962215	 -0.297920	 0.000004
C	 -2.454736	 0.988978	 0.000025
C	 -2.105837	 -1.382632	 -0.000016
H	 -3.120052	 1.830438	 0.000041
C	 -1.090106	 1.189676	 0.000026
H	 -2.500390	 -2.380229	 -0.000033
C	 -0.739175	 -1.183302	 -0.000016
H	 -0.680214	 2.179144	 0.000042
C	 -0.227341	 0.104540	 0.000006
H	 -0.073209	 -2.021168	 -0.000032
C	 1.238974	 0.374429	 0.000004
O	 1.955033	 -0.653608	 -0.415188
O	 1.719940	 1.404166	 0.336892
C	 3.359219	 -0.490307	 -0.449207
H	 3.631743	 0.314351	 -1.115263
H	 3.756839	 -1.424793	 -0.810074
H	 3.740662	 -0.277732	 0.538067

	symmetry c1
}
set optking {
	frozen_dihedral = ("
		13 12 10 6
	")
}

ee,wfn = optimize('scf', return_wfn=True)
oeprop( wfn, 'DIPOLE', 'QUADRUPOLE', 'MULLIKEN_CHARGES')
f=open( 'psi4out.xyz', 'w' )
f.write( "18  " )
f.write( str(ee) + "\n" )
f.write( MOL.save_string_xyz() )
f.close()
--------------------------------------------------------------------------

    Molecular point group: c1
  Charge       = 0
  Multiplicity = 1
  Basis Set: CC-PVTZ
  Basis Set:
  @DF-RHF Final Energy:  -457.50918281823590
    Total Energy =                       -457.5091828182364679
    Molecular point group: c1
  Basis Set: CC-PVTZ
  Basis Set:
  Basis Set: CC-PVTZ
  Basis Set:
  @DF-RHF Final Energy:  -457.50808829523316
    Total Energy =                       -457.5080882952328238
  Basis Set: CC-PVTZ
  Basis Set:
  Basis Set: CC-PVTZ
  Basis Set:
  @DF-RHF Final Energy:  -457.50922187567210
    Total Energy =                       -457.5092218756717557
  Basis Set: CC-PVTZ
  Basis Set:
  Basis Set: CC-PVTZ
  Basis Set:
  @DF-RHF Final Energy:  -457.50928335597018
    Total Energy =                       -457.5092833559704104
  Basis Set: CC-PVTZ
  Basis Set:
  Charge       = 0
  Multiplicity = 1
  Basis Set: CC-PVTZ
  Basis Set:

    Orbital Energies (a.u.)
    -----------------------

    Doubly Occupied:

       1A    -20.601403     2A    -20.534998     3A    -11.371859
       4A    -11.281393     5A    -11.245469     6A    -11.243049
       7A    -11.242788     8A    -11.240439     9A    -11.236389
      10A    -11.235653    11A     -1.477236    12A     -1.368823
      13A     -1.171038    14A     -1.052077    15A     -1.029267
      16A     -0.980717    17A     -0.863261    18A     -0.839080
      19A     -0.781531    20A     -0.744625    21A     -0.687900
      22A     -0.681998    23A     -0.677234    24A     -0.633904
      25A     -0.630821    26A     -0.601176    27A     -0.588772
      28A     -0.563168    29A     -0.532928    30A     -0.520167
      31A     -0.510233    32A     -0.502998    33A     -0.463888
      34A     -0.449557    35A     -0.349960    36A     -0.346523

  @DF-RHF Final Energy:  -457.50928452534828

   => Energetics <=

    Nuclear Repulsion Energy =            493.9723422413700860
    One-Electron Energy =               -1602.3986165912194792
    Two-Electron Energy =                 650.9169898245011154
    DFT Exchange-Correlation Energy =       0.0000000000000000
    Empirical Dispersion Energy =           0.0000000000000000
    PCM Polarization Energy =               0.0000000000000000
    EFP Energy =                            0.0000000000000000
    Total Energy =                       -457.5092845253482210
    Molecular point group: c1
  Basis Set: CC-PVTZ
  Basis Set:

  -Total Gradient:
     Atom            X                  Y                   Z
    ------   -----------------  -----------------  -----------------
       1       -0.000000076343     0.000000478888    -0.000002355557
       2        0.000008290462    -0.000039125948     0.000008430868
       3        0.000033292084     0.000015468598     0.000001869526
       4       -0.000046927203     0.000000707440    -0.000005071527
       5       -0.000004449736    -0.000003168972     0.000001307611
       6       -0.000067451492     0.000011665577    -0.002371864263
       7       -0.000006032176     0.000001639758    -0.000001665567
       8        0.000013807645     0.000002692339     0.000002349734
       9        0.000010747217    -0.000010776779    -0.000002699793
      10        0.000040458123     0.000310901088     0.002610038102
      11       -0.000005133365     0.000010416311     0.000016488717
      12        0.000308160861    -0.001242894052     0.001933692514
      13       -0.000298695532     0.000846897803    -0.002232695170
      14       -0.000055923414     0.000108587825     0.000049620791
      15        0.000102166851     0.000009607930    -0.000006032561
      16       -0.000011113607    -0.000019344521     0.000019022136
      17       -0.000018605581    -0.000000381255     0.000002052544
      18       -0.000002514787    -0.000003372034    -0.000022488106

  **** Optimization is complete! (in 5 steps) ****
    Final optimized geometry and variables:
    Molecular point group: c1

    Geometry (in Angstrom), charge = 0, multiplicity = 1:

    H           -4.018866471990    -0.479040507975     0.054602455302
    C           -2.957638435307    -0.317950719157     0.059016375537
    C           -2.455428362305     0.970899086745     0.063130174620
    C           -2.096592516836    -1.399098084635     0.057752044034
    H           -3.124248384800     1.809654171756     0.058482902270
    C           -1.091426103307     1.177580515551     0.074623487556
    H           -2.486873877790    -2.398413137826     0.053841935892
    C           -0.730775319640    -1.193777532791     0.054484430184
    H           -0.686515056471     2.169314689499     0.087344388879
    C           -0.225127685700     0.095897400396     0.074053671963
    H           -0.060617851514    -2.028746714193     0.040129682325
    C            1.240715481504     0.368980871164     0.063018974480
    O            1.953021652188    -0.661248183908    -0.352376130224
    O            1.720073006426     1.409022701005     0.368413720270
    C            3.357566484583    -0.501731204553    -0.390239368218
    H            3.630202142327     0.295624507134    -1.064957572831
    H            3.752626167565    -1.440461398431    -0.742786362896
    H            3.742083877675    -0.279722320519     0.593939563714

  Mulliken Charges: (a.u.)
   Center  Symbol    Alpha    Beta     Spin     Total
       1     H     0.42043  0.42043  0.00000  0.15915
       2     C     3.07143  3.07143  0.00000 -0.14286
       3     C     3.07386  3.07386  0.00000 -0.14772
       4     C     3.07358  3.07358  0.00000 -0.14715
       5     H     0.42056  0.42056  0.00000  0.15889
       6     C     3.08013  3.08013  0.00000 -0.16026
       7     H     0.42182  0.42182  0.00000  0.15636
       8     C     3.08339  3.08339  0.00000 -0.16677
       9     H     0.40818  0.40818  0.00000  0.18365
      10     C     2.99258  2.99258  0.00000  0.01484
      11     H     0.41313  0.41313  0.00000  0.17374
      12     C     2.79770  2.79770  0.00000  0.40460
      13     O     4.14714  4.14714  0.00000 -0.29428
      14     O     4.20955  4.20955  0.00000 -0.41911
      15     C     3.03657  3.03657  0.00000 -0.07315
      16     H     0.45194  0.45194  0.00000  0.09613
      17     H     0.44478  0.44478  0.00000  0.11044
      18     H     0.45324  0.45324  0.00000  0.09352

   Total alpha = 36.00000, Total beta = 36.00000, Total charge = -0.00000

*** Psi4 exiting successfully. Buy a developer a beer!
