  ==> Input File <==

--------------------------------------------------------------------------
set {
	reference rhf
	basis 6-31G*
}

set_num_threads( 1 )
memory 2 gb

molecule MOL {
0 1

H	 -0.252047	 2.221097	 1.312240
C	 0.627233	 1.565633	 1.306476
C	 0.692068	 0.589600	 0.160137
O	 1.444336	 1.655715	 2.164589
C	 -0.558097	 -0.297372	 0.091132
H	 1.592262	 -0.003825	 0.269587
H	 0.777487	 1.164714	 -0.761155
C	 -1.850991	 0.512573	 -0.019058
H	 -0.476753	 -0.965681	 -0.762987
H	 -0.604799	 -0.930658	 0.975228
C	 -3.096943	 -0.368295	 -0.099594
H	 -1.800724	 1.150330	 -0.898172
H	 -1.931651	 1.177355	 0.838044
H	 -3.060452	 -1.020287	 -0.967456
H	 -3.996858	 0.233488	 -0.175704
H	 -3.191959	 -0.995686	 0.782074

	symmetry c1
}
set optking {
	frozen_dihedral = ("
		9 5 8 12,
		4 2 3 6
	")
}

ee = energy('scf')
oeprop('DIPOLE', 'QUADRUPOLE', 'MULLIKEN_CHARGES')
f=open( 'psi4out.xyz', 'w' )
f.write( "16  " )
f.write( str(ee) + "\n" )
f.write( MOL.save_string_xyz() )
f.close()
--------------------------------------------------------------------------

    Molecular point group: c1

    Geometry (in Angstrom), charge = 0, multiplicity = 1:

       Center              X                  Y                   Z               Mass
    ------------   -----------------  -----------------  -----------------  -----------------
           H          0.214829313095     1.610506852203     0.702200647524     1.007825032070
           C          1.094109313095     0.955042852203     0.696436647524    12.000000000000
           C          1.158944313095    -0.020990147797    -0.449902352476    12.000000000000
           O          1.911212313095     1.045124852203     1.554549647524    15.994914619560
           C         -0.091220686905    -0.907962147797    -0.518907352476    12.000000000000
           H          2.059138313095    -0.614415147797    -0.340452352476     1.007825032070
           H          1.244363313095     0.554123852203    -1.371194352476     1.007825032070
           C         -1.384114686905    -0.098017147797    -0.629097352476    12.000000000000
           H         -0.009876686905    -1.576271147797    -1.373026352476     1.007825032070
           H         -0.137922686905    -1.541248147797     0.365188647524     1.007825032070
           C         -2.630066686905    -0.978885147797    -0.709633352476    12.000000000000
           H         -1.333847686905     0.539739852203    -1.508211352476     1.007825032070
           H         -1.464774686905     0.566764852203     0.228004647524     1.007825032070
           H         -2.593575686905    -1.630877147797    -1.577495352476     1.007825032070
           H         -3.529981686905    -0.377102147797    -0.785743352476     1.007825032070
           H         -2.725082686905    -1.606276147797     0.172034647524     1.007825032070

  Charge       = 0
  Multiplicity = 1
  Basis Set: 6-31G*
  Basis Set:

    Orbital Energies (a.u.)
    -----------------------

    Doubly Occupied:

       1A    -20.561857     2A    -11.324948     3A    -11.236204
       4A    -11.234916     5A    -11.231007     6A    -11.219885
       7A     -1.401637     8A     -1.099561     9A     -1.016859
      10A     -0.904324    11A     -0.834347    12A     -0.776588
      13A     -0.676185    14A     -0.655121    15A     -0.620159
      16A     -0.602556    17A     -0.580454    18A     -0.560687
      19A     -0.534150    20A     -0.512333    21A     -0.492528
      22A     -0.480004    23A     -0.472366    24A     -0.406104

  @DF-RHF Final Energy:  -270.01562681405221

   => Energetics <=

    Nuclear Repulsion Energy =            233.5380545388136682
    One-Electron Energy =                -828.2378597397323574
    Two-Electron Energy =                 324.6841783868669040
    DFT Exchange-Correlation Energy =       0.0000000000000000
    Empirical Dispersion Energy =           0.0000000000000000
    PCM Polarization Energy =               0.0000000000000000
    EFP Energy =                            0.0000000000000000
    Total Energy =                       -270.0156268140518137

  Mulliken Charges: (a.u.)
   Center  Symbol    Alpha    Beta     Spin     Total
       1     H     0.42896  0.42896  0.00000  0.14207
       2     C     2.83262  2.83262  0.00000  0.33477
       3     C     3.20812  3.20812  0.00000 -0.41623
       4     O     4.23895  4.23895  0.00000 -0.47789
       5     C     3.16291  3.16291  0.00000 -0.32582
       6     H     0.39772  0.39772  0.00000  0.20455
       7     H     0.40968  0.40968  0.00000  0.18065
       8     C     3.16067  3.16067  0.00000 -0.32134
       9     H     0.41310  0.41310  0.00000  0.17379
      10     H     0.41322  0.41322  0.00000  0.17357
      11     C     3.23909  3.23909  0.00000 -0.47817
      12     H     0.42022  0.42022  0.00000  0.15956
      13     H     0.41972  0.41972  0.00000  0.16055
      14     H     0.41978  0.41978  0.00000  0.16044
      15     H     0.41638  0.41638  0.00000  0.16725
      16     H     0.41887  0.41887  0.00000  0.16225

   Total alpha = 24.00000, Total beta = 24.00000, Total charge =  0.00000
