  ==> Input File <==

--------------------------------------------------------------------------
set {
	reference rhf
	basis cc-pvtz
}

set_num_threads( 4 )
memory 2 gb

molecule MOL {
0 1

H	 -2.498963	 -0.741158	 -0.729149
O	 -2.346257	 -0.289210	 0.080372
C	 -1.183935	 0.486039	 -0.009831
C	 0.062853	 -0.375310	 0.027457
H	 -1.178881	 1.094526	 -0.908634
H	 -1.184406	 1.155156	 0.838676
O	 1.172093	 0.457955	 -0.054438
H	 0.052476	 -1.081302	 -0.804627
H	 0.076323	 -0.955658	 0.947560
C	 2.355665	 -0.106063	 0.406280
H	 2.622523	 -0.992229	 -0.165359
H	 3.138685	 0.629392	 0.293715
H	 2.281991	 -0.382529	 1.455404

	symmetry c1
}
set optking {
	frozen_dihedral = ("
		10 7 4 8
	")
}

ee = optimize('scf')
oeprop('DIPOLE', 'QUADRUPOLE', 'MULLIKEN_CHARGES')
f=open( 'psi4out.xyz', 'w' )
f.write( "13  " )
f.write( str(ee) + "\n" )
f.write( MOL.save_string_xyz() )
f.close()
--------------------------------------------------------------------------

    Molecular point group: c1
  Charge       = 0
  Multiplicity = 1
  Basis Set: CC-PVTZ
  Basis Set:
  @DF-RHF Final Energy:  -268.06152156826397
    Total Energy =                       -268.0615215682639700
    Molecular point group: c1
  Basis Set: CC-PVTZ
  Basis Set:
  Basis Set: CC-PVTZ
  Basis Set:
  @DF-RHF Final Energy:  -268.06156678550934
    Total Energy =                       -268.0615667855092852
  Basis Set: CC-PVTZ
  Basis Set:
  Basis Set: CC-PVTZ
  Basis Set:
  @DF-RHF Final Energy:  -268.06157689872799
    Total Energy =                       -268.0615768987281058
  Basis Set: CC-PVTZ
  Basis Set:
  Charge       = 0
  Multiplicity = 1
  Basis Set: CC-PVTZ
  Basis Set:

    Orbital Energies (a.u.)
    -----------------------

    Doubly Occupied:

       1A    -20.555406     2A    -20.552681     3A    -11.269209
       4A    -11.267791     5A    -11.267168     6A     -1.390966
       7A     -1.368940     8A     -1.019521     9A     -0.914431
      10A     -0.842164    11A     -0.711367    12A     -0.677597
      13A     -0.661841    14A     -0.636737    15A     -0.600912
      16A     -0.573404    17A     -0.541659    18A     -0.490939
      19A     -0.486007    20A     -0.444078    21A     -0.421002

  @DF-RHF Final Energy:  -268.06157709871195

   => Energetics <=

    Nuclear Repulsion Energy =            190.4870549787460732
    One-Electron Energy =                -743.7096256675558834
    Two-Electron Energy =                 285.1609935900977462
    DFT Exchange-Correlation Energy =       0.0000000000000000
    Empirical Dispersion Energy =           0.0000000000000000
    PCM Polarization Energy =               0.0000000000000000
    EFP Energy =                            0.0000000000000000
    Total Energy =                       -268.0615770987120641
    Molecular point group: c1
  Basis Set: CC-PVTZ
  Basis Set:

  -Total Gradient:
     Atom            X                  Y                   Z
    ------   -----------------  -----------------  -----------------
       1       -0.000013787784    -0.000006719772     0.000000245671
       2       -0.000022886589    -0.000027621757    -0.000016550608
       3       -0.000002094600     0.000014419665     0.000005111942
       4        0.001308870165    -0.001462433943     0.002112153309
       5       -0.000000673624     0.000004083875     0.000003928994
       6        0.000018436701     0.000012956431     0.000000154239
       7        0.000130029178    -0.000514569713    -0.002525093795
       8       -0.001103556252     0.001372321804    -0.001127332225
       9       -0.000001868383     0.000001148402    -0.000001319213
      10       -0.000293467393     0.000598729819     0.001556920173
      11       -0.000009134235     0.000005090449     0.000000191014
      12        0.000003157344     0.000002022639    -0.000002854846
      13       -0.000013024528     0.000000572103    -0.000005554655

  **** Optimization is complete! (in 4 steps) ****
    Final optimized geometry and variables:
    Molecular point group: c1

    Geometry (in Angstrom), charge = 0, multiplicity = 1:

    H           -2.479056418912    -0.747980810443    -0.848106976816
    O           -2.342404110875    -0.306898640797    -0.029731212183
    C           -1.177068398285     0.467228399591    -0.085824280049
    C            0.068377146160    -0.397163146104    -0.035601708571
    H           -1.151909557412     1.086898077285    -0.976655346627
    H           -1.194430580050     1.126077862184     0.770623691197
    O            1.179832837046     0.433838544449    -0.132916790209
    H            0.049569409880    -1.105320846670    -0.865008466984
    H            0.078360624215    -0.965380349922     0.890646641801
    C            2.372401088144    -0.122408100021     0.315374858713
    H            2.636770099531    -1.012970961641    -0.250763258428
    H            3.150500780527     0.615162177663     0.183440997029
    H            2.314268891687    -0.387876230946     1.367848577931

  Mulliken Charges: (a.u.)
   Center  Symbol    Alpha    Beta     Spin     Total
       1     H     0.39349  0.39349  0.00000  0.21302
       2     O     4.20269  4.20269  0.00000 -0.40538
       3     C     2.97347  2.97347  0.00000  0.05306
       4     C     2.96606  2.96606  0.00000  0.06788
       5     H     0.46670  0.46670  0.00000  0.06660
       6     H     0.45392  0.45392  0.00000  0.09216
       7     O     4.17705  4.17705  0.00000 -0.35409
       8     H     0.47753  0.47753  0.00000  0.04495
       9     H     0.47079  0.47079  0.00000  0.05841
      10     C     3.03092  3.03092  0.00000 -0.06183
      11     H     0.47112  0.47112  0.00000  0.05777
      12     H     0.44701  0.44701  0.00000  0.10597
      13     H     0.46926  0.46926  0.00000  0.06149

   Total alpha = 21.00000, Total beta = 21.00000, Total charge = -0.00000
