  ==> Input File <==

--------------------------------------------------------------------------
set {
	reference rhf
	basis 6-31G*
}

set_num_threads( 4 )
memory 2 gb

molecule MOL {
0 1

H	 1.664368	 1.850521	 -1.438233
O	 0.766351	 1.688629	 -1.187485
C	 0.702312	 0.627605	 -0.264544
C	 -0.714990	 0.596302	 0.266387
H	 1.393970	 0.790856	 0.557535
H	 0.946782	 -0.319217	 -0.741290
O	 -1.405996	 -0.526611	 -0.195820
H	 -1.257453	 1.468809	 -0.075599
H	 -0.688972	 0.618407	 1.353696
H	 -0.890587	 -1.292708	 0.022039

	symmetry c1
}
set optking {
	frozen_dihedral = ("
		5 3 4 7
	")
}

ee = optimize('scf')
oeprop('DIPOLE', 'QUADRUPOLE', 'MULLIKEN_CHARGES')
f=open( 'psi4out.xyz', 'w' )
f.write( "10  " )
f.write( str(ee) + "\n" )
f.write( MOL.save_string_xyz() )
f.close()
--------------------------------------------------------------------------

    Molecular point group: c1
  Charge       = 0
  Multiplicity = 1
  Basis Set: 6-31G*
  Basis Set:
  @DF-RHF Final Energy:  -228.91214547288544
    Total Energy =                       -228.9121454728854133
    Molecular point group: c1
  Basis Set: 6-31G*
  Basis Set:
  Basis Set: 6-31G*
  Basis Set:
  @DF-RHF Final Energy:  -228.91362015719298
    Total Energy =                       -228.9136201571929519
  Basis Set: 6-31G*
  Basis Set:
  Basis Set: 6-31G*
  Basis Set:
  @DF-RHF Final Energy:  -228.91427789406737
    Total Energy =                       -228.9142778940673395
  Basis Set: 6-31G*
  Basis Set:
  Basis Set: 6-31G*
  Basis Set:
  @DF-RHF Final Energy:  -228.91435653916895
    Total Energy =                       -228.9143565391689492
  Basis Set: 6-31G*
  Basis Set:
  Basis Set: 6-31G*
  Basis Set:
  @DF-RHF Final Energy:  -228.91436068035799
    Total Energy =                       -228.9143606803579587
  Basis Set: 6-31G*
  Basis Set:
  Charge       = 0
  Multiplicity = 1
  Basis Set: 6-31G*
  Basis Set:

    Orbital Energies (a.u.)
    -----------------------

    Doubly Occupied:

       1A    -20.558901     2A    -20.556032     3A    -11.273702
       4A    -11.269487     5A     -1.372095     6A     -1.357006
       7A     -0.996195     8A     -0.846819     9A     -0.714056
      10A     -0.692885    11A     -0.640885    12A     -0.592774
      13A     -0.580789    14A     -0.529553    15A     -0.487026
      16A     -0.443610    17A     -0.434950

  @DF-RHF Final Energy:  -228.91436101215484

   => Energetics <=

    Nuclear Repulsion Energy =            131.4802797330475812
    One-Electron Energy =                -574.0957590302864446
    Two-Electron Energy =                 213.7011182850840214
    DFT Exchange-Correlation Energy =       0.0000000000000000
    Empirical Dispersion Energy =           0.0000000000000000
    PCM Polarization Energy =               0.0000000000000000
    EFP Energy =                            0.0000000000000000
    Total Energy =                       -228.9143610121548136
    Molecular point group: c1
  Basis Set: 6-31G*
  Basis Set:

  -Total Gradient:
     Atom            X                  Y                   Z
    ------   -----------------  -----------------  -----------------
       1       -0.000024886256    -0.000014423784     0.000015977224
       2        0.000002876711    -0.000025769546     0.000019074641
       3       -0.000041430159     0.002017609382     0.000156170468
       4       -0.000584678023     0.000593000095    -0.001490190181
       5        0.000197052104    -0.001814699262     0.000151576754
       6        0.000008691351    -0.000005350882     0.000013487153
       7        0.000466350155    -0.000749135198     0.001118500272
       8       -0.000016696933    -0.000006911053     0.000002563152
       9       -0.000013094699    -0.000002074905     0.000009693880
      10        0.000005815751     0.000007755153     0.000003146637

  **** Optimization is complete! (in 6 steps) ****
    Final optimized geometry and variables:
    Molecular point group: c1

    Geometry (in Angstrom), charge = 0, multiplicity = 1:

    H            1.803908324051     1.210125861877    -1.152929492694
    O            0.933833739104     1.158214753012    -0.783561959582
    C            0.861572450846     0.078797148965     0.109400286748
    C           -0.576379733573    -0.039760007977     0.624499581205
    H            1.554477662258     0.219265559294     0.937361705584
    H            1.130198937445    -0.851222778860    -0.386483784315
    O           -1.264117591169    -1.150182731310     0.111505069971
    H           -1.122458775113     0.835979348955     0.307017907385
    H           -0.586614595859    -0.064518913761     1.711677607851
    H           -0.933407965840    -1.941911640662     0.510966595279

  Mulliken Charges: (a.u.)
   Center  Symbol    Alpha    Beta     Spin     Total
       1     H     0.28012  0.28012  0.00000  0.43976
       2     O     4.36896  4.36896  0.00000 -0.73792
       3     C     3.00632  3.00632  0.00000 -0.01263
       4     C     3.01039  3.01039  0.00000 -0.02079
       5     H     0.43128  0.43128  0.00000  0.13744
       6     H     0.42642  0.42642  0.00000  0.14716
       7     O     4.36740  4.36740  0.00000 -0.73480
       8     H     0.39674  0.39674  0.00000  0.20652
       9     H     0.42895  0.42895  0.00000  0.14209
      10     H     0.28341  0.28341  0.00000  0.43318

   Total alpha = 17.00000, Total beta = 17.00000, Total charge = -0.00000
