                              Psi4 1.0.54 Driver

  ==> Input File <==

--------------------------------------------------------------------------
set {
	reference rhf
	basis cc-pvtz
}

set_num_threads( 4 )
memory 2 gb

molecule MOL {
0 1

H	 0.492331	 -3.068369	 -1.774859
O	 0.597834	 -2.452771	 -1.065180
C	 -0.412867	 -1.589251	 -1.103112
C	 -0.318151	 -0.570512	 0.000144
O	 -1.262854	 -1.650851	 -1.922682
C	 -1.454884	 0.441630	 -0.000560
H	 -0.277258	 -1.116423	 0.937267
H	 0.645414	 -0.080865	 -0.098281
C	 -2.822577	 -0.232186	 0.000063
H	 -1.359760	 1.084704	 -0.867077
H	 -1.359641	 1.085996	 0.864983
H	 -2.954352	 -0.858985	 -0.875745
H	 -3.615886	 0.505352	 0.000019
H	 -2.953878	 -0.858359	 0.876394

	symmetry c1
}
set optking {
	frozen_dihedral = ("
		7 4 6 10
	")
}

ee,wfn = optimize('scf', return_wfn=True)
oeprop( wfn, 'DIPOLE', 'QUADRUPOLE', 'MULLIKEN_CHARGES')
f=open( 'psi4out.xyz', 'w' )
f.write( "14  " )
f.write( str(ee) + "\n" )
f.write( MOL.save_string_xyz() )
f.close()
--------------------------------------------------------------------------

    Molecular point group: c1
  Charge       = 0
  Multiplicity = 1
  Basis Set: CC-PVTZ
  Basis Set:
  @DF-RHF Final Energy:  -305.99509267696573
    Total Energy =                       -305.9950926769655553
    Molecular point group: c1
  Basis Set: CC-PVTZ
  Basis Set:
  Basis Set: CC-PVTZ
  Basis Set:
  @DF-RHF Final Energy:  -305.99861059407920
    Total Energy =                       -305.9986105940793095
  Basis Set: CC-PVTZ
  Basis Set:
  Basis Set: CC-PVTZ
  Basis Set:
  @DF-RHF Final Energy:  -305.99868910014629
    Total Energy =                       -305.9986891001462368
  Basis Set: CC-PVTZ
  Basis Set:
  Basis Set: CC-PVTZ
  Basis Set:
  @DF-RHF Final Energy:  -305.99887852918721
    Total Energy =                       -305.9988785291870954
  Basis Set: CC-PVTZ
  Basis Set:
  @DF-RHF Final Energy:  -305.99930261895111
    Total Energy =                       -305.9993026189511056
  @DF-RHF Final Energy:  -305.99937078802759
    Total Energy =                       -305.9993707880277611
  @DF-RHF Final Energy:  -305.99941164659970
    Total Energy =                       -305.9994116465995262
  Basis Set: CC-PVTZ
  Basis Set:
  @DF-RHF Final Energy:  -305.99949031126016
    Total Energy =                       -305.9994903112601037
  Basis Set: CC-PVTZ
  Basis Set:
  Basis Set: CC-PVTZ
  Basis Set:
  @DF-RHF Final Energy:  -305.99952042868068
    Total Energy =                       -305.9995204286806256
  Basis Set: CC-PVTZ
  Basis Set:
  Basis Set: CC-PVTZ
  Basis Set:
  @DF-RHF Final Energy:  -305.99952190393026
    Total Energy =                       -305.9995219039305425
  Basis Set: CC-PVTZ
  Basis Set:
  Charge       = 0
  Multiplicity = 1
  Basis Set: CC-PVTZ
  Basis Set:

    Orbital Energies (a.u.)
    -----------------------

    Doubly Occupied:

       1A    -20.605537     2A    -20.540623     3A    -11.374857
       4A    -11.240078     5A    -11.225894     6A    -11.208529
       7A     -1.478856     8A     -1.369894     9A     -1.082511
      10A     -0.977584    11A     -0.864463    12A     -0.789156
      13A     -0.706477    14A     -0.693224    15A     -0.662227
      16A     -0.615871    17A     -0.595926    18A     -0.569276
      19A     -0.557182    20A     -0.500045    21A     -0.490928
      22A     -0.485412    23A     -0.481323    24A     -0.444803

  @DF-RHF Final Energy:  -305.99952203391456

   => Energetics <=

    Nuclear Repulsion Energy =            245.2048344611939399
    One-Electron Energy =                -903.2873603300835157
    Two-Electron Energy =                 352.0830038349749884
    DFT Exchange-Correlation Energy =       0.0000000000000000
    Empirical Dispersion Energy =           0.0000000000000000
    PCM Polarization Energy =               0.0000000000000000
    EFP Energy =                            0.0000000000000000
    Total Energy =                       -305.9995220339145590
    Molecular point group: c1
  Basis Set: CC-PVTZ
  Basis Set:

  -Total Gradient:
     Atom            X                  Y                   Z
    ------   -----------------  -----------------  -----------------
       1        0.000002648078     0.000018514592     0.000017270907
       2        0.000001259062    -0.000020547989     0.000005909358
       3       -0.000002310869     0.000014080698    -0.000015569190
       4       -0.002157914627    -0.002402290514    -0.001239485798
       5       -0.000018358853     0.000006878907    -0.000001861691
       6       -0.001718452802    -0.001923500630    -0.001883153860
       7        0.002057975180     0.002265049766     0.001320937288
       8       -0.000003356378     0.000004602922     0.000000683220
       9        0.000009456546     0.000006492524     0.000017597013
      10        0.001825977385     0.002046265670     0.001801560122
      11       -0.000002665322    -0.000002042254    -0.000003838348
      12        0.000002092257    -0.000007784285    -0.000014016206
      13        0.000005497333    -0.000002986363    -0.000003061032
      14       -0.000001846991    -0.000002733046    -0.000002971779

  **** Optimization is complete! (in 11 steps) ****
    Final optimized geometry and variables:
    Molecular point group: c1

    Geometry (in Angstrom), charge = 0, multiplicity = 1:

    H            1.298599221257    -2.182310644382    -0.898367899819
    O            1.283486212823    -1.629095989718    -0.131700217635
    C            0.570557449961    -0.543015393218    -0.412027545273
    C            0.552496024950     0.431293192788     0.734551590536
    O            0.059631742736    -0.381158763939    -1.466539365303
    C           -0.562984416275     1.471140603312     0.684116472960
    H            0.550075067180    -0.111989756843     1.671172722232
    H            1.518041950065     0.929639713393     0.697345460874
    C           -1.973207929018     0.891321205794     0.705063041822
    H           -0.422393848571     2.108029924673    -0.180525632177
    H           -0.433089125458     2.113968536114     1.549282548074
    H           -2.168770026949     0.293416274143    -0.174337713117
    H           -2.708933960667     1.686061881287     0.738340863646
    H           -2.123783472344     0.268214885971     1.581350598687

  Mulliken Charges: (a.u.)
   Center  Symbol    Alpha    Beta     Spin     Total
       1     H     0.38166  0.38166  0.00000  0.23669
       2     O     4.15938  4.15938  0.00000 -0.31875
       3     C     2.80363  2.80363  0.00000  0.39274
       4     C     3.11222  3.11222  0.00000 -0.22445
       5     O     4.19450  4.19450  0.00000 -0.38899
       6     C     3.08212  3.08212  0.00000 -0.16423
       7     H     0.43490  0.43490  0.00000  0.13020
       8     H     0.43550  0.43550  0.00000  0.12900
       9     C     3.15489  3.15489  0.00000 -0.30978
      10     H     0.44677  0.44677  0.00000  0.10645
      11     H     0.44841  0.44841  0.00000  0.10318
      12     H     0.44137  0.44137  0.00000  0.11726
      13     H     0.44778  0.44778  0.00000  0.10444
      14     H     0.45688  0.45688  0.00000  0.08623

   Total alpha = 24.00000, Total beta = 24.00000, Total charge = -0.00000

*** Psi4 exiting successfully. Buy a developer a beer!
