  ==> Input File <==

--------------------------------------------------------------------------
set {
	reference rhf
	basis 6-31G*
}

set_num_threads( 4 )
memory 2 gb

molecule MOL {
0 1

H	 -3.135461	 -1.215070	 0.001379
O	 -2.310168	 -0.871793	 -0.309793
C	 -2.026376	 0.340750	 0.341611
C	 -0.673256	 0.843270	 -0.132153
H	 -2.792215	 1.080697	 0.115987
H	 -2.013526	 0.200402	 1.421792
C	 0.486613	 -0.083066	 0.235839
H	 -0.715586	 0.970948	 -1.210718
H	 -0.508072	 1.829858	 0.297090
C	 1.840406	 0.433480	 -0.254303
H	 0.300215	 -1.068318	 -0.178947
H	 0.519509	 -0.203625	 1.318070
C	 1.712328	 1.562117	 -1.276774
H	 2.421104	 0.783073	 0.596751
H	 2.405465	 -0.387056	 -0.692336
H	 1.181663	 2.411767	 -0.856797
H	 2.687328	 1.909793	 -1.604555
H	 1.165306	 1.234140	 -2.156381

	symmetry c1
}
set optking {
	frozen_dihedral = ("
		14 10 7 11
	")
}

ee = optimize('scf')
oeprop('DIPOLE', 'QUADRUPOLE', 'MULLIKEN_CHARGES')
f=open( 'psi4out.xyz', 'w' )
f.write( "18  " )
f.write( str(ee) + "\n" )
f.write( MOL.save_string_xyz() )
f.close()
--------------------------------------------------------------------------

    Molecular point group: c1
  Charge       = 0
  Multiplicity = 1
  Basis Set: 6-31G*
  Basis Set:
  @DF-RHF Final Energy:  -271.16704794036468
    Total Energy =                       -271.1670479403647960
    Molecular point group: c1
  Basis Set: 6-31G*
  Basis Set:
  Basis Set: 6-31G*
  Basis Set:
  @DF-RHF Final Energy:  -271.16770867658181
    Total Energy =                       -271.1677086765819240
  Basis Set: 6-31G*
  Basis Set:
  Basis Set: 6-31G*
  Basis Set:
  @DF-RHF Final Energy:  -271.17093395457039
    Total Energy =                       -271.1709339545703870
  Basis Set: 6-31G*
  Basis Set:
  Basis Set: 6-31G*
  Basis Set:
  @DF-RHF Final Energy:  -271.17138402266164
    Total Energy =                       -271.1713840226616412
  Basis Set: 6-31G*
  Basis Set:
  Basis Set: 6-31G*
  Basis Set:
  @DF-RHF Final Energy:  -271.17143644642698
    Total Energy =                       -271.1714364464270375
  Basis Set: 6-31G*
  Basis Set:
  Basis Set: 6-31G*
  Basis Set:
  @DF-RHF Final Energy:  -271.17144909124755
    Total Energy =                       -271.1714490912474957
  Basis Set: 6-31G*
  Basis Set:
  Basis Set: 6-31G*
  Basis Set:
  @DF-RHF Final Energy:  -271.17145222561356
    Total Energy =                       -271.1714522256137343
  Basis Set: 6-31G*
  Basis Set:
  Charge       = 0
  Multiplicity = 1
  Basis Set: 6-31G*
  Basis Set:

    Orbital Energies (a.u.)
    -----------------------

    Doubly Occupied:

       1A    -20.552903     2A    -11.267898     3A    -11.211782
       4A    -11.211115     5A    -11.206559     6A    -11.204912
       7A     -1.359621     8A     -1.071228     9A     -1.005034
      10A     -0.914995    11A     -0.833859    12A     -0.765177
      13A     -0.704638    14A     -0.640154    15A     -0.617646
      16A     -0.600501    17A     -0.559626    18A     -0.549817
      19A     -0.528762    20A     -0.509614    21A     -0.488886
      22A     -0.464010    23A     -0.449974    24A     -0.443335
      25A     -0.427633

  @DF-RHF Final Energy:  -271.17145253151000

   => Energetics <=

    Nuclear Repulsion Energy =            251.9871286586172516
    One-Electron Energy =                -867.1378056482737975
    Two-Electron Energy =                 343.9792244581465184
    DFT Exchange-Correlation Energy =       0.0000000000000000
    Empirical Dispersion Energy =           0.0000000000000000
    PCM Polarization Energy =               0.0000000000000000
    EFP Energy =                            0.0000000000000000
    Total Energy =                       -271.1714525315099991
    Molecular point group: c1
  Basis Set: 6-31G*
  Basis Set:

  -Total Gradient:
     Atom            X                  Y                   Z
    ------   -----------------  -----------------  -----------------
       1       -0.000002155482    -0.000003573500    -0.000001913550
       2       -0.000017393189     0.000014159606    -0.000002259628
       3        0.000019039809    -0.000007347761     0.000023825212
       4       -0.000002861550     0.000010020412    -0.000001583108
       5       -0.000000790065    -0.000010714394    -0.000003299918
       6       -0.000008074386    -0.000001637701     0.000006603865
       7       -0.002178831611     0.001624690919    -0.004982890269
       8       -0.000003167758    -0.000011817796    -0.000008323417
       9        0.000008931879    -0.000000147103    -0.000018376386
      10       -0.001907055162     0.005283785833     0.000264944552
      11        0.002129411113    -0.002197832813     0.004136182476
      12       -0.000007357940    -0.000012044788    -0.000003262604
      13        0.000003769824     0.000003437597    -0.000002784808
      14        0.001957048069    -0.004698429371     0.000590261590
      15        0.000005699347     0.000008276245     0.000002680892
      16        0.000011431272     0.000003441998     0.000003046688
      17        0.000000839867    -0.000007824309    -0.000009185841
      18       -0.000008484037     0.000003556929     0.000006334255

  **** Optimization is complete! (in 8 steps) ****
    Final optimized geometry and variables:
    Molecular point group: c1

    Geometry (in Angstrom), charge = 0, multiplicity = 1:

    H           -2.910199279924    -1.640496755018     0.276105556997
    O           -2.111944827977    -1.254059059309    -0.054423366781
    C           -1.840213719026    -0.062984336715     0.640347518482
    C           -0.529464204531     0.512802054153     0.130211034849
    H           -2.641057213982     0.657537181149     0.483690758430
    H           -1.773129443471    -0.251751212310     1.711071225656
    C            0.667914773203    -0.395550859455     0.417424726676
    H           -0.632458888631     0.688322585642    -0.935617194574
    H           -0.385123947139     1.483404785521     0.600190241308
    C            2.059938352190     0.131541345178    -0.016507212517
    H            0.495066417185    -1.373896528685    -0.015099137834
    H            0.698999756353    -0.573291669505     1.491094220201
    C            2.086810200865     1.215186306605    -1.095663484531
    H            2.607938883350     0.469874623454     0.858864294737
    H            2.635839677119    -0.714863902707    -0.382513307679
    H            1.593224955572     2.126515970568    -0.774865532840
    H            3.112853223757     1.469918396949    -1.343158999006
    H            1.604120556312     0.880152229839    -2.008711237887

  Mulliken Charges: (a.u.)
   Center  Symbol    Alpha    Beta     Spin     Total
       1     H     0.28061  0.28061  0.00000  0.43879
       2     O     4.36956  4.36956  0.00000 -0.73912
       3     C     2.99738  2.99738  0.00000  0.00523
       4     C     3.16247  3.16247  0.00000 -0.32494
       5     H     0.42915  0.42915  0.00000  0.14170
       6     H     0.43270  0.43270  0.00000  0.13461
       7     C     3.15855  3.15855  0.00000 -0.31709
       8     H     0.41286  0.41286  0.00000  0.17427
       9     H     0.42375  0.42375  0.00000  0.15249
      10     C     3.15478  3.15478  0.00000 -0.30956
      11     H     0.40556  0.40556  0.00000  0.18889
      12     H     0.42596  0.42596  0.00000  0.14808
      13     C     3.24221  3.24221  0.00000 -0.48442
      14     H     0.42258  0.42258  0.00000  0.15484
      15     H     0.42068  0.42068  0.00000  0.15864
      16     H     0.42156  0.42156  0.00000  0.15687
      17     H     0.41988  0.41988  0.00000  0.16023
      18     H     0.41976  0.41976  0.00000  0.16047

   Total alpha = 25.00000, Total beta = 25.00000, Total charge = -0.00000
