  ==> Input File <==

--------------------------------------------------------------------------
set {
	reference rhf
	basis cc-pvtz
}

set_num_threads( 4 )
memory 2 gb

molecule MOL {
0 1

H	 1.875826	 1.673053	 -1.849381
C	 1.152328	 1.499923	 -1.063343
C	 1.322304	 0.099773	 -0.484271
H	 1.298229	 2.260589	 -0.304746
H	 0.163514	 1.633867	 -1.487191
C	 0.308557	 -0.162619	 0.622645
H	 2.320514	 -0.018521	 -0.081384
H	 1.193521	 -0.643347	 -1.261526
N	 -1.069352	 -0.004081	 0.085342
H	 0.371632	 -1.172932	 0.991288
H	 0.400391	 0.548875	 1.426218
O	 -1.584901	 -0.965470	 -0.377818
O	 -1.548033	 1.079343	 0.130056

	symmetry c1
}
set optking {
	frozen_dihedral = ("
		7 3 6 9
	")
}

ee = optimize('scf')
oeprop('DIPOLE', 'QUADRUPOLE', 'MULLIKEN_CHARGES')
f=open( 'psi4out.xyz', 'w' )
f.write( "13  " )
f.write( str(ee) + "\n" )
f.write( MOL.save_string_xyz() )
f.close()
--------------------------------------------------------------------------

    Molecular point group: c1
  Charge       = 0
  Multiplicity = 1
  Basis Set: CC-PVTZ
  Basis Set:
  @DF-RHF Final Energy:  -321.85841047133505
    Total Energy =                       -321.8584104713354463
    Molecular point group: c1
  Basis Set: CC-PVTZ
  Basis Set:
  Basis Set: CC-PVTZ
  Basis Set:
  @DF-RHF Final Energy:  -321.85980783889056
    Total Energy =                       -321.8598078388906174
  Basis Set: CC-PVTZ
  Basis Set:
  Basis Set: CC-PVTZ
  Basis Set:
  @DF-RHF Final Energy:  -321.86027290052698
    Total Energy =                       -321.8602729005270930
  Basis Set: CC-PVTZ
  Basis Set:
  Basis Set: CC-PVTZ
  Basis Set:
  @DF-RHF Final Energy:  -321.86052210596949
    Total Energy =                       -321.8605221059694372
  Basis Set: CC-PVTZ
  Basis Set:
  @DF-RHF Final Energy:  -321.86068738149447
    Total Energy =                       -321.8606873814944151
  @DF-RHF Final Energy:  -321.86082487837541
    Total Energy =                       -321.8608248783754675
  @DF-RHF Final Energy:  -321.86093656508928
    Total Energy =                       -321.8609365650891618
  @DF-RHF Final Energy:  -321.86115474896781
    Total Energy =                       -321.8611547489676923
  Basis Set: CC-PVTZ
  Basis Set:
  @DF-RHF Final Energy:  -321.86123027294707
    Total Energy =                       -321.8612302729472958
  Basis Set: CC-PVTZ
  Basis Set:
  Basis Set: CC-PVTZ
  Basis Set:
  @DF-RHF Final Energy:  -321.86124222917124
    Total Energy =                       -321.8612422291713528
  Basis Set: CC-PVTZ
  Basis Set:
  Basis Set: CC-PVTZ
  Basis Set:
  @DF-RHF Final Energy:  -321.86124407002308
    Total Energy =                       -321.8612440700230763
  Basis Set: CC-PVTZ
  Basis Set:
  Charge       = 0
  Multiplicity = 1
  Basis Set: CC-PVTZ
  Basis Set:

    Orbital Energies (a.u.)
    -----------------------

    Doubly Occupied:

       1A    -20.593233     2A    -20.589091     3A    -15.837191
       4A    -11.297632     5A    -11.252159     6A    -11.229230
       7A     -1.636709     8A     -1.420921     9A     -1.132703
      10A     -1.021346    11A     -0.894855    12A     -0.823196
      13A     -0.760174    14A     -0.741997    15A     -0.729490
      16A     -0.653444    17A     -0.618002    18A     -0.594489
      19A     -0.532540    20A     -0.518590    21A     -0.512529
      22A     -0.487406    23A     -0.475109    24A     -0.454523

  @DF-RHF Final Energy:  -321.86124424130088

   => Energetics <=

    Nuclear Repulsion Energy =            253.6591426170753607
    One-Electron Energy =                -941.4276573890508644
    Two-Electron Energy =                 365.9072705306742819
    DFT Exchange-Correlation Energy =       0.0000000000000000
    Empirical Dispersion Energy =           0.0000000000000000
    PCM Polarization Energy =               0.0000000000000000
    EFP Energy =                            0.0000000000000000
    Total Energy =                       -321.8612442413012786
    Molecular point group: c1
  Basis Set: CC-PVTZ
  Basis Set:

  -Total Gradient:
     Atom            X                  Y                   Z
    ------   -----------------  -----------------  -----------------
       1       -0.000000056411     0.000000397991    -0.000001595377
       2        0.000007281128    -0.000004175192     0.000002855189
       3       -0.000036727481    -0.000841431128    -0.000184343676
       4       -0.000002754410     0.000000374882    -0.000000607885
       5       -0.000008460130    -0.000000786133     0.000000072322
       6       -0.000000043267    -0.000742194142    -0.000169378891
       7        0.000016911471     0.000900268668     0.000201628423
       8        0.000003685436    -0.000002503036    -0.000001942889
       9        0.000006763839     0.000724177141     0.000208572450
      10        0.000000545532    -0.000005354619    -0.000003467519
      11       -0.000001351366     0.000000548556    -0.000001648543
      12        0.000011428367    -0.000025032190    -0.000036070504
      13        0.000002777294    -0.000004290796    -0.000014073103

  **** Optimization is complete! (in 12 steps) ****
    Final optimized geometry and variables:
    Molecular point group: c1

    Geometry (in Angstrom), charge = 0, multiplicity = 1:

    H            2.250945451576     1.343331397867    -1.724905100481
    C            1.479873474731     1.221254224429    -0.974993306196
    C            1.591315049912    -0.154499205321    -0.325333085610
    H            1.595248953831     2.013406028258    -0.243925035624
    H            0.522639664473     1.354241648694    -1.464178111548
    C            0.586017610577    -0.389577220909     0.793243781863
    H            2.572986011066    -0.266638793831     0.121720760012
    H            1.483856208707    -0.933150680410    -1.067825509604
    N           -0.813677108967    -0.260800293776     0.295918381425
    H            0.658570051525    -1.393972321166     1.181334126029
    H            0.679394560915     0.328392882597     1.589712729446
    O           -1.154792425524    -1.018141512498    -0.550721560687
    O           -1.491832177479     0.584323948030     0.773409441208

  Mulliken Charges: (a.u.)
   Center  Symbol    Alpha    Beta     Spin     Total
       1     H     0.44515  0.44515  0.00000  0.10970
       2     C     3.14536  3.14536  0.00000 -0.29072
       3     C     3.09863  3.09863  0.00000 -0.19726
       4     H     0.45188  0.45188  0.00000  0.09624
       5     H     0.44485  0.44485  0.00000  0.11030
       6     C     3.04894  3.04894  0.00000 -0.09789
       7     H     0.44520  0.44520  0.00000  0.10960
       8     H     0.43747  0.43747  0.00000  0.12506
       9     N     3.28021  3.28021  0.00000  0.43958
      10     H     0.42823  0.42823  0.00000  0.14354
      11     H     0.43154  0.43154  0.00000  0.13693
      12     O     4.17429  4.17429  0.00000 -0.34858
      13     O     4.16825  4.16825  0.00000 -0.33650

   Total alpha = 24.00000, Total beta = 24.00000, Total charge = -0.00000
