  ==> Input File <==

--------------------------------------------------------------------------
set {
	reference rhf
	basis 6-31G*
}

set_num_threads( 4 )
memory 2 gb

molecule MOL {
0 1

O	 0.697804	 2.128222	 -0.032020
C	 -0.409697	 2.555631	 -0.093699
C	 -1.671774	 1.727952	 -0.091616
O	 -0.684811	 3.851285	 -0.174733
C	 -1.412532	 0.227344	 -0.000452
H	 -2.284658	 2.072614	 0.736838
H	 -2.225437	 1.977830	 -0.992601
C	 -2.706999	 -0.587347	 -0.000541
H	 -0.844584	 0.015837	 0.900217
H	 -0.784830	 -0.079012	 -0.831499
C	 -3.956778	 0.291888	 0.000910
H	 -2.726114	 -1.239230	 -0.871609
H	 -2.725217	 -1.240844	 0.869333
H	 -3.985213	 0.933254	 -0.875158
H	 -4.860123	 -0.309979	 0.000519
H	 -3.984618	 0.931166	 0.878514
C	 0.415578	 4.742443	 -0.185797
H	 0.992892	 4.644693	 0.722301
H	 -0.007224	 5.732568	 -0.255367
H	 1.054085	 4.547316	 -1.035350

	symmetry c1
}
set optking {
	frozen_dihedral = ("
		9 5 8 12
	")
}

ee = optimize('scf')
oeprop('DIPOLE', 'QUADRUPOLE', 'MULLIKEN_CHARGES')
f=open( 'psi4out.xyz', 'w' )
f.write( "20  " )
f.write( str(ee) + "\n" )
f.write( MOL.save_string_xyz() )
f.close()
--------------------------------------------------------------------------

    Molecular point group: c1
  Charge       = 0
  Multiplicity = 1
  Basis Set: 6-31G*
  Basis Set:
  @DF-RHF Final Energy:  -383.92664377771888
    Total Energy =                       -383.9266437777189367
    Molecular point group: c1
  Basis Set: 6-31G*
  Basis Set:
  Basis Set: 6-31G*
  Basis Set:
  @DF-RHF Final Energy:  -383.92661671906973
    Total Energy =                       -383.9266167190697843
  Basis Set: 6-31G*
  Basis Set:
  Basis Set: 6-31G*
  Basis Set:
  @DF-RHF Final Energy:  -383.93101555429894
    Total Energy =                       -383.9310155542987104
  Basis Set: 6-31G*
  Basis Set:
  Basis Set: 6-31G*
  Basis Set:
  @DF-RHF Final Energy:  -383.93169417954107
    Total Energy =                       -383.9316941795409548
  Basis Set: 6-31G*
  Basis Set:
  @DF-RHF Final Energy:  -383.93170973902954
    Total Energy =                       -383.9317097390295430
  Basis Set: 6-31G*
  Basis Set:
  @DF-RHF Final Energy:  -383.93051897875489
    Total Energy =                       -383.9305189787546624
  Basis Set: 6-31G*
  Basis Set:
  Basis Set: 6-31G*
  Basis Set:
  @DF-RHF Final Energy:  -383.93181020558757
    Total Energy =                       -383.9318102055873396
  Basis Set: 6-31G*
  Basis Set:
  Basis Set: 6-31G*
  Basis Set:
  @DF-RHF Final Energy:  -383.93181319983182
    Total Energy =                       -383.9318131998319359
  Basis Set: 6-31G*
  Basis Set:
  Charge       = 0
  Multiplicity = 1
  Basis Set: 6-31G*
  Basis Set:

    Orbital Energies (a.u.)
    -----------------------

    Doubly Occupied:

       1A    -20.603459     2A    -20.545445     3A    -11.372221
       4A    -11.280763     5A    -11.235373     6A    -11.220430
       7A    -11.219296     8A    -11.213812     9A     -1.469249
      10A     -1.362715    11A     -1.084808    12A     -1.021211
      13A     -0.967736    14A     -0.898302    15A     -0.798829
      16A     -0.760509    17A     -0.701009    18A     -0.683302
      19A     -0.670834    20A     -0.642020    21A     -0.605356
      22A     -0.590498    23A     -0.566370    24A     -0.546865
      25A     -0.541170    26A     -0.522099    27A     -0.515163
      28A     -0.474042    29A     -0.471856    30A     -0.459037
      31A     -0.450966    32A     -0.437955

  @DF-RHF Final Energy:  -383.93181306734107

   => Energetics <=

    Nuclear Repulsion Energy =            385.2449726862926127
    One-Electron Energy =               -1286.4881702938455419
    Two-Electron Energy =                 517.3113845402117477
    DFT Exchange-Correlation Energy =       0.0000000000000000
    Empirical Dispersion Energy =           0.0000000000000000
    PCM Polarization Energy =               0.0000000000000000
    EFP Energy =                            0.0000000000000000
    Total Energy =                       -383.9318130673411815
    Molecular point group: c1
  Basis Set: 6-31G*
  Basis Set:

  -Total Gradient:
     Atom            X                  Y                   Z
    ------   -----------------  -----------------  -----------------
       1        0.000003347022     0.000013791506     0.000016751939
       2       -0.000001833125    -0.000020087900    -0.000049176334
       3        0.000020891424     0.000019492466     0.000009499370
       4        0.000007651122    -0.000006395661     0.000013684586
       5       -0.001190105918     0.001713428241     0.001648038411
       6        0.000019686821    -0.000000283700    -0.000005605244
       7       -0.000009460944     0.000003793228    -0.000000057257
       8       -0.001109101278     0.001586107861    -0.001746944378
       9        0.001188507834    -0.001669989135    -0.001122136995
      10       -0.000002325361     0.000017040233     0.000013405918
      11       -0.000013106028    -0.000016598395     0.000034581857
      12        0.001088633230    -0.001649965114     0.001228154819
      13       -0.000003353005     0.000019539019    -0.000010046742
      14        0.000029787668     0.000028033940    -0.000006738576
      15        0.000004081184    -0.000007705173    -0.000019609157
      16       -0.000036853653    -0.000039750682    -0.000000384731
      17        0.000001231845     0.000005933883    -0.000009458496
      18        0.000000184226    -0.000000059870     0.000001360505
      19        0.000002269514     0.000002193489     0.000002196690
      20       -0.000000132582     0.000001481759     0.000002483814

  **** Optimization is complete! (in 9 steps) ****
    Final optimized geometry and variables:
    Molecular point group: c1

    Geometry (in Angstrom), charge = 0, multiplicity = 1:

    O            1.903304579284     0.212998254171     0.077264987682
    C            0.813217340063     0.677067318682    -0.019622131426
    C           -0.480120418801    -0.102277800465    -0.040764370145
    O            0.586653568527     1.980724822932    -0.124564074234
    C           -0.259035619669    -1.609262556065     0.077155980542
    H           -1.096820928151     0.284639397545     0.763673919081
    H           -0.993220979569     0.159885474290    -0.960690330259
    C           -1.535477777116    -2.495075551489     0.051787709175
    H            0.305921576395    -1.809065545559     0.980157588716
    H            0.397259662070    -1.912510937038    -0.730670320593
    C           -2.890910784611    -1.784820635472     0.102811631824
    H           -1.506528698946    -3.129061715664    -0.829254980690
    H           -1.488706845550    -3.181209866065     0.892364980845
    H           -3.040536819660    -1.122799518750    -0.743848921771
    H           -3.691497229614    -2.517648568884     0.086240823207
    H           -3.007951855169    -1.198462306784     1.008869544727
    C            1.717971988925     2.832174876006    -0.117913195801
    H            2.267929966465     2.726359756752     0.806140002576
    H            1.332668731496     3.835613881477    -0.210883899988
    H            2.370857602651     2.603345640262    -0.947914537334

  Mulliken Charges: (a.u.)
   Center  Symbol    Alpha    Beta     Spin     Total
       1     O     4.28578  4.28578  0.00000 -0.57156
       2     C     2.60502  2.60502  0.00000  0.78997
       3     C     3.20997  3.20997  0.00000 -0.41994
       4     O     4.30757  4.30757  0.00000 -0.61514
       5     C     3.15837  3.15837  0.00000 -0.31674
       6     H     0.39941  0.39941  0.00000  0.20118
       7     H     0.40001  0.40001  0.00000  0.19999
       8     C     3.15737  3.15737  0.00000 -0.31473
       9     H     0.40907  0.40907  0.00000  0.18186
      10     H     0.40930  0.40930  0.00000  0.18141
      11     C     3.24434  3.24434  0.00000 -0.48869
      12     H     0.41825  0.41825  0.00000  0.16350
      13     H     0.41793  0.41793  0.00000  0.16414
      14     H     0.42107  0.42107  0.00000  0.15786
      15     H     0.41645  0.41645  0.00000  0.16709
      16     H     0.42108  0.42108  0.00000  0.15785
      17     C     3.09232  3.09232  0.00000 -0.18464
      18     H     0.40911  0.40911  0.00000  0.18178
      19     H     0.40847  0.40847  0.00000  0.18307
      20     H     0.40913  0.40913  0.00000  0.18175

   Total alpha = 32.00000, Total beta = 32.00000, Total charge =  0.00000
