  ==> Input File <==

--------------------------------------------------------------------------
set {
	reference rhf
	basis 6-31G*
}

set_num_threads( 4 )
memory 2 gb

molecule MOL {
0 1

H	 2.361473	 -1.944452	 -0.499261
N	 1.375139	 -1.775971	 -0.510204
C	 1.070918	 -0.593598	 -1.295161
C	 0.865032	 -1.659986	 0.843698
H	 1.453147	 -0.731028	 -2.301035
H	 1.525043	 0.310250	 -0.882281
C	 -0.437577	 -0.402674	 -1.344344
H	 1.098162	 -2.569671	 1.386738
H	 1.306687	 -0.820726	 1.386121
C	 -0.643336	 -1.468401	 0.793189
H	 -0.885126	 -1.236621	 -1.893280
H	 -0.670671	 0.510419	 -1.882374
N	 -0.975995	 -0.298722	 0.000000
H	 -1.025022	 -1.324941	 1.798814
H	 -1.104670	 -2.373749	 0.387461
C	 -2.393863	 -0.024976	 0.000000
H	 -2.854032	 -0.467193	 -0.876721
H	 -2.854032	 -0.467193	 0.876721
H	 -2.623281	 1.044943	 0.000000

	symmetry c1
}
set optking {
	frozen_dihedral = ("
		7 13 16 19
	")
}

ee = optimize('scf')
oeprop('DIPOLE', 'QUADRUPOLE', 'MULLIKEN_CHARGES')
f=open( 'psi4out.xyz', 'w' )
f.write( "19  " )
f.write( str(ee) + "\n" )
f.write( MOL.save_string_xyz() )
f.close()
--------------------------------------------------------------------------

    Molecular point group: c1
  Charge       = 0
  Multiplicity = 1
  Basis Set: 6-31G*
  Basis Set:
  @DF-RHF Final Energy:  -305.19517322053269
    Total Energy =                       -305.1951732205326380
    Molecular point group: c1
  Basis Set: 6-31G*
  Basis Set:
  Basis Set: 6-31G*
  Basis Set:
  @DF-RHF Final Energy:  -305.19598604515602
    Total Energy =                       -305.1959860451562463
  Basis Set: 6-31G*
  Basis Set:
  Basis Set: 6-31G*
  Basis Set:
  @DF-RHF Final Energy:  -305.19610363025970
    Total Energy =                       -305.1961036302595858
  Basis Set: 6-31G*
  Basis Set:
  Basis Set: 6-31G*
  Basis Set:
  @DF-RHF Final Energy:  -305.19610714500897
    Total Energy =                       -305.1961071450086820
  Basis Set: 6-31G*
  Basis Set:
  Charge       = 0
  Multiplicity = 1
  Basis Set: 6-31G*
  Basis Set:

    Orbital Energies (a.u.)
    -----------------------

    Doubly Occupied:

       1A    -15.540480     2A    -15.536184     3A    -11.238120
       4A    -11.238087     5A    -11.237048     6A    -11.236870
       7A    -11.234615     8A     -1.245783     9A     -1.184397
      10A     -1.022210    11A     -0.964091    12A     -0.859889
      13A     -0.857683    14A     -0.757652    15A     -0.690723
      16A     -0.631665    17A     -0.624148    18A     -0.608063
      19A     -0.602103    20A     -0.579358    21A     -0.542695
      22A     -0.534227    23A     -0.510465    24A     -0.489074
      25A     -0.464482    26A     -0.455996    27A     -0.362882
      28A     -0.345345

  @DF-RHF Final Energy:  -305.19610753132503

   => Energetics <=

    Nuclear Repulsion Energy =            339.6157490385889446
    One-Electron Energy =               -1086.4350406659609689
    Two-Electron Energy =                 441.6231840960467707
    DFT Exchange-Correlation Energy =       0.0000000000000000
    Empirical Dispersion Energy =           0.0000000000000000
    PCM Polarization Energy =               0.0000000000000000
    EFP Energy =                            0.0000000000000000
    Total Energy =                       -305.1961075313251968
    Molecular point group: c1
  Basis Set: 6-31G*
  Basis Set:

  -Total Gradient:
     Atom            X                  Y                   Z
    ------   -----------------  -----------------  -----------------
       1       -0.000001845081    -0.000001711361     0.000008665388
       2       -0.000011699329    -0.000000017904     0.000001741053
       3        0.000014286784    -0.000006832989    -0.000017738566
       4        0.000029867554     0.000004107168     0.000011510148
       5        0.000000587648    -0.000000171775    -0.000000773654
       6       -0.000002967011     0.000000832705    -0.000001701245
       7       -0.000753930344    -0.003874832117     0.000039993302
       8       -0.000003198112    -0.000000459660    -0.000000114811
       9        0.000001449359     0.000000822582     0.000001354738
      10       -0.000015273219     0.000031991196    -0.000029846656
      11       -0.000007157759    -0.000005042739    -0.000001329255
      12       -0.000002529856    -0.000000458079    -0.000002326523
      13        0.001003366145     0.005314239309     0.001354419861
      14        0.000002037956    -0.000001671227    -0.000002126720
      15       -0.000009271383    -0.000005060964    -0.000001703222
      16       -0.000188598233    -0.001458818919    -0.006671478394
      17        0.000008374962    -0.000005913989     0.000014818749
      18       -0.000010769555    -0.000009760190     0.000015398771
      19       -0.000052730523     0.000018758952     0.005281237036

  **** Optimization is complete! (in 5 steps) ****
    Final optimized geometry and variables:
    Molecular point group: c1

    Geometry (in Angstrom), charge = 0, multiplicity = 1:

    H            2.546274671743    -1.035618990914    -0.273778283759
    N            1.558147241243    -0.878618074235    -0.291246851393
    C            1.244603096387     0.301994925850    -1.074861826250
    C            1.036936949361    -0.772907422976     1.059109572787
    H            1.626476945550     0.168165331646    -2.081483222095
    H            1.691823249589     1.209363587631    -0.662367116819
    C           -0.265136238671     0.479886745520    -1.121534745060
    H            1.273790678393    -1.683022141102     1.600052217554
    H            1.467249259825     0.067728890284     1.608522710570
    C           -0.472718273863    -0.592769863981     1.002100495304
    H           -0.708129348999    -0.361598341929    -1.661599709480
    H           -0.506610517513     1.386413891217    -1.667963874679
    N           -0.807454468393     0.588937538910     0.222283438919
    H           -0.855757054026    -0.464490275819     2.008603523046
    H           -0.923589680184    -1.497713808644     0.584490320578
    C           -2.231960193499     0.868823445726     0.205137638220
    H           -2.747508578406     0.411276007761    -0.639415414968
    H           -2.691411699345     0.490586728063     1.111429494544
    H           -2.407827789166     1.940054401971     0.198814983423

  Mulliken Charges: (a.u.)
   Center  Symbol    Alpha    Beta     Spin     Total
       1     H     0.32960  0.32960  0.00000  0.34079
       2     N     3.85428  3.85428  0.00000 -0.70857
       3     C     3.06289  3.06289  0.00000 -0.12577
       4     C     3.06332  3.06332  0.00000 -0.12665
       5     H     0.41777  0.41777  0.00000  0.16446
       6     H     0.42758  0.42758  0.00000  0.14483
       7     C     3.05749  3.05749  0.00000 -0.11498
       8     H     0.41780  0.41780  0.00000  0.16441
       9     H     0.42760  0.42760  0.00000  0.14480
      10     C     3.05691  3.05691  0.00000 -0.11381
      11     H     0.42732  0.42732  0.00000  0.14535
      12     H     0.41804  0.41804  0.00000  0.16391
      13     N     3.78813  3.78813  0.00000 -0.57626
      14     H     0.41827  0.41827  0.00000  0.16347
      15     H     0.42806  0.42806  0.00000  0.14387
      16     C     3.14055  3.14055  0.00000 -0.28109
      17     H     0.42873  0.42873  0.00000  0.14254
      18     H     0.42000  0.42000  0.00000  0.15999
      19     H     0.41564  0.41564  0.00000  0.16872

   Total alpha = 28.00000, Total beta = 28.00000, Total charge =  0.00000
