  ==> Input File <==

--------------------------------------------------------------------------
set {
	reference rhf
	basis cc-pvtz
}

set_num_threads( 4 )
memory 2 gb

molecule MOL {
0 1

H	 -3.268214	 -0.875720	 0.463107
C	 -2.806015	 0.000007	 0.024886
N	 -1.391133	 0.000016	 0.301321
H	 -3.029448	 0.000055	 -1.045738
H	 -3.268126	 0.875758	 0.463150
C	 -0.763150	 -1.257397	 -0.042374
C	 -1.097900	 0.364588	 1.670494
H	 -1.175073	 -2.082790	 0.545755
H	 -0.956254	 -1.471842	 -1.086792
C	 0.735338	 -1.188556	 0.185239
H	 -1.535377	 1.334252	 1.876540
H	 -1.532639	 -0.350238	 2.375387
C	 0.400588	 0.433428	 1.898106
H	 1.172815	 -2.158220	 -0.020808
H	 1.170077	 -0.473730	 -0.519654
N	 1.028571	 -0.823984	 1.554412
H	 0.593692	 0.647874	 2.942524
H	 0.812511	 1.258822	 1.309978
C	 2.443453	 -0.823975	 1.830847
H	 2.861493	 -1.800092	 1.618707
H	 2.615366	 -0.607787	 2.877876
H	 2.991711	 -0.085628	 1.238888

	symmetry c1
}
set optking {
	frozen_dihedral = ("
		6 3 2 4
	")
}

ee = optimize('scf')
oeprop('DIPOLE', 'QUADRUPOLE', 'MULLIKEN_CHARGES')
f=open( 'psi4out.xyz', 'w' )
f.write( "22  " )
f.write( str(ee) + "\n" )
f.write( MOL.save_string_xyz() )
f.close()
--------------------------------------------------------------------------

    Molecular point group: c1
  Charge       = 0
  Multiplicity = 1
  Basis Set: CC-PVTZ
  Basis Set:
  @DF-RHF Final Energy:  -344.34936451584554
    Total Energy =                       -344.3493645158451955
    Molecular point group: c1
  Basis Set: CC-PVTZ
  Basis Set:
  Basis Set: CC-PVTZ
  Basis Set:
  @DF-RHF Final Energy:  -344.35007769465079
    Total Energy =                       -344.3500776946506221
  Basis Set: CC-PVTZ
  Basis Set:
  Basis Set: CC-PVTZ
  Basis Set:
  @DF-RHF Final Energy:  -344.35015236823313
    Total Energy =                       -344.3501523682326706
  Basis Set: CC-PVTZ
  Basis Set:
  Charge       = 0
  Multiplicity = 1
  Basis Set: CC-PVTZ
  Basis Set:

    Orbital Energies (a.u.)
    -----------------------

    Doubly Occupied:

       1A    -15.538076     2A    -15.537582     3A    -11.237578
       4A    -11.237513     5A    -11.236925     6A    -11.236863
       7A    -11.234290     8A    -11.234175     9A     -1.257495
      10A     -1.206547    11A     -1.025719    12A     -0.993032
      13A     -0.912232    14A     -0.867855    15A     -0.836404
      16A     -0.755948    17A     -0.666996    18A     -0.638063
      19A     -0.631744    20A     -0.627152    21A     -0.623773
      22A     -0.582840    23A     -0.549452    24A     -0.547123
      25A     -0.542096    26A     -0.518566    27A     -0.496484
      28A     -0.490666    29A     -0.465732    30A     -0.457166
      31A     -0.353429    32A     -0.348509

  @DF-RHF Final Energy:  -344.35015305052582

   => Energetics <=

    Nuclear Repulsion Energy =            422.0199079063653471
    One-Electron Energy =               -1302.9640771296640196
    Two-Electron Energy =                 536.5940161727730811
    DFT Exchange-Correlation Energy =       0.0000000000000000
    Empirical Dispersion Energy =           0.0000000000000000
    PCM Polarization Energy =               0.0000000000000000
    EFP Energy =                            0.0000000000000000
    Total Energy =                       -344.3501530505255914
    Molecular point group: c1
  Basis Set: CC-PVTZ
  Basis Set:

  -Total Gradient:
     Atom            X                  Y                   Z
    ------   -----------------  -----------------  -----------------
       1       -0.000011206843    -0.000021735291     0.000008881091
       2       -0.000052970602    -0.003657012322     0.000748873767
       3        0.000490726404     0.001556325401    -0.002535693220
       4       -0.000001300939     0.002714180269    -0.000016368999
       5        0.000020559233     0.000002051736     0.000005931600
       6       -0.000410360701    -0.000592569332     0.001843222436
       7       -0.000062691331     0.000058154726    -0.000051526606
       8       -0.000003091442     0.000004573604     0.000009254931
       9        0.000007254961    -0.000040570435    -0.000016371386
      10        0.000018194127     0.000002205466     0.000003294780
      11       -0.000008230538     0.000011728743     0.000029840743
      12        0.000006918763    -0.000006907448    -0.000005021945
      13        0.000004160348    -0.000000854347    -0.000037994863
      14        0.000000836582     0.000003973647     0.000010893692
      15        0.000001135393    -0.000000135707    -0.000004858745
      16        0.000014629618    -0.000032292929     0.000019259281
      17       -0.000014691685    -0.000007300494    -0.000008575359
      18        0.000000899885     0.000009903009     0.000001602552
      19        0.000004567992    -0.000005350464    -0.000004210353
      20        0.000000332577    -0.000000509509     0.000000546473
      21       -0.000003944776     0.000000754178    -0.000000556487
      22       -0.000001727033     0.000001387501    -0.000000423382

  **** Optimization is complete! (in 4 steps) ****
    Final optimized geometry and variables:
    Molecular point group: c1

    Geometry (in Angstrom), charge = 0, multiplicity = 1:

    H           -3.141099454606    -0.450438365654    -0.454168255604
    C           -2.627517289167     0.404208726190    -0.900957914345
    N           -1.210675771374     0.417969686085    -0.627119537156
    H           -2.800296343986     0.395478949771    -1.970510011879
    H           -3.082842206418     1.306434534239    -0.512074138950
    C           -0.582924082793    -0.841359663359    -0.967154057560
    C           -0.917463478476     0.771249294426     0.746538175728
    H           -0.994964078649    -1.661769979971    -0.372685733770
    H           -0.780705065150    -1.062442000442    -2.009812295207
    C            0.916321538092    -0.774330055133    -0.745005479468
    H           -1.355102298943     1.738672453689     0.961453002251
    H           -1.349014028932     0.049905516467     1.446760697053
    C            0.581402782140     0.841945996937     0.972595568712
    H            1.352198191544    -1.744324895314    -0.953478766872
    H            1.349643835060    -0.059281606893    -1.450609376268
    N            1.213070601333    -0.411992490207     0.623773798745
    H            0.775015932448     1.053403472522     2.017636778918
    H            0.989886008921     1.671003915618     0.387031997625
    C            2.628445800217    -0.408149923113     0.896343880419
    H            3.049136238027    -1.382319941261     0.680170893127
    H            2.802604272131    -0.194425300936     1.943580981670
    H            3.172919525043     0.333681868087     0.305088907939

  Mulliken Charges: (a.u.)
   Center  Symbol    Alpha    Beta     Spin     Total
       1     H     0.46902  0.46902  0.00000  0.06197
       2     C     3.09842  3.09842  0.00000 -0.19684
       3     N     3.61397  3.61397  0.00000 -0.22794
       4     H     0.45065  0.45065  0.00000  0.09870
       5     H     0.45342  0.45342  0.00000  0.09316
       6     C     3.03636  3.03636  0.00000 -0.07273
       7     C     3.03472  3.03472  0.00000 -0.06945
       8     H     0.46703  0.46703  0.00000  0.06595
       9     H     0.45384  0.45384  0.00000  0.09231
      10     C     3.03544  3.03544  0.00000 -0.07088
      11     H     0.45363  0.45363  0.00000  0.09274
      12     H     0.46865  0.46865  0.00000  0.06270
      13     C     3.03584  3.03584  0.00000 -0.07168
      14     H     0.45377  0.45377  0.00000  0.09246
      15     H     0.46795  0.46795  0.00000  0.06410
      16     N     3.61299  3.61299  0.00000 -0.22598
      17     H     0.45384  0.45384  0.00000  0.09233
      18     H     0.46808  0.46808  0.00000  0.06385
      19     C     3.09846  3.09846  0.00000 -0.19692
      20     H     0.45196  0.45196  0.00000  0.09608
      21     H     0.45196  0.45196  0.00000  0.09608
      22     H     0.47001  0.47001  0.00000  0.05998

   Total alpha = 32.00000, Total beta = 32.00000, Total charge = -0.00000
