  ==> Input File <==

--------------------------------------------------------------------------
set {
	reference rhf
	basis 6-31G*
}

set_num_threads( 4 )
memory 2 gb

molecule MOL {
0 1

H	 0.048557	 -0.206626	 0.564723
N	 -0.626943	 -0.667432	 -0.000092
C	 -1.979713	 -0.158776	 0.000050
C	 -0.232853	 -1.738045	 -0.731287
H	 -2.520245	 -0.492427	 -0.879443
H	 -1.934741	 0.918111	 -0.004428
H	 -2.517790	 -0.485056	 0.883818
C	 1.231518	 -2.098523	 -0.580763
O	 -0.974765	 -2.357531	 -1.442636
H	 1.462789	 -2.336579	 0.452774
H	 1.445676	 -2.955835	 -1.201126
H	 1.863431	 -1.269406	 -0.883397

	symmetry c1
}
set optking {
	frozen_dihedral = ("
		4 2 3 5
	")
}

ee = optimize('scf')
oeprop('DIPOLE', 'QUADRUPOLE', 'MULLIKEN_CHARGES')
f=open( 'psi4out.xyz', 'w' )
f.write( "12  " )
f.write( str(ee) + "\n" )
f.write( MOL.save_string_xyz() )
f.close()
--------------------------------------------------------------------------

    Molecular point group: c1
  Charge       = 0
  Multiplicity = 1
  Basis Set: 6-31G*
  Basis Set:
  @DF-RHF Final Energy:  -247.00511365510968
    Total Energy =                       -247.0051136551096533
    Molecular point group: c1
  Basis Set: 6-31G*
  Basis Set:
  Basis Set: 6-31G*
  Basis Set:
  @DF-RHF Final Energy:  -247.00543889069240
    Total Energy =                       -247.0054388906925738
  Basis Set: 6-31G*
  Basis Set:
  Basis Set: 6-31G*
  Basis Set:
  @DF-RHF Final Energy:  -247.00547426019588
    Total Energy =                       -247.0054742601957969
  Basis Set: 6-31G*
  Basis Set:
  Basis Set: 6-31G*
  Basis Set:
  @DF-RHF Final Energy:  -247.00551079724534
    Total Energy =                       -247.0055107972452788
  Basis Set: 6-31G*
  Basis Set:
  @DF-RHF Final Energy:  -247.00553371256194
    Total Energy =                       -247.0055337125618848
  @DF-RHF Final Energy:  -247.00554168771376
    Total Energy =                       -247.0055416877137304
  @DF-RHF Final Energy:  -247.00554382296230
    Total Energy =                       -247.0055438229623519
  @DF-RHF Final Energy:  -247.00554655325101
    Total Energy =                       -247.0055465532511221
  @DF-RHF Final Energy:  -247.00555853884637
    Total Energy =                       -247.0055585388463442
  @DF-RHF Final Energy:  -246.92998914371685
    Total Energy =                       -246.9299891437167389
  @DF-RHF Final Energy:  -246.99634717797647
    Total Energy =                       -246.9963471779765314
  @DF-RHF Final Energy:  -247.00529288694037
    Total Energy =                       -247.0052928869405378
  @DF-RHF Final Energy:  -247.00560147751980
    Total Energy =                       -247.0056014775198037
  @DF-RHF Final Energy:  -247.00559439076565
    Total Energy =                       -247.0055943907656228
  @DF-RHF Final Energy:  -247.00564304968057
    Total Energy =                       -247.0056430496804296
  Basis Set: 6-31G*
  Basis Set:
  @DF-RHF Final Energy:  -247.00565518241643
    Total Energy =                       -247.0056551824164899
  Basis Set: 6-31G*
  Basis Set:
  Basis Set: 6-31G*
  Basis Set:
  @DF-RHF Final Energy:  -247.00566075464647
    Total Energy =                       -247.0056607546464420
  Basis Set: 6-31G*
  Basis Set:
  Basis Set: 6-31G*
  Basis Set:
  @DF-RHF Final Energy:  -247.00566603241910
    Total Energy =                       -247.0056660324191284
  Basis Set: 6-31G*
  Basis Set:
  Charge       = 0
  Multiplicity = 1
  Basis Set: 6-31G*
  Basis Set:

    Orbital Energies (a.u.)
    -----------------------

    Doubly Occupied:

       1A    -20.513559     2A    -15.583147     3A    -11.342957
       4A    -11.254172     5A    -11.230056     6A     -1.383135
       7A     -1.228916     8A     -1.015280     9A     -0.932685
      10A     -0.787662    11A     -0.689366    12A     -0.648673
      13A     -0.632099    14A     -0.585926    15A     -0.579697
      16A     -0.553704    17A     -0.545740    18A     -0.504927
      19A     -0.412233    20A     -0.384803

  @DF-RHF Final Energy:  -247.00566645491827

   => Energetics <=

    Nuclear Repulsion Energy =            181.3401175398343810
    One-Electron Energy =                -695.0740903060493565
    Two-Electron Energy =                 266.7283063112967056
    DFT Exchange-Correlation Energy =       0.0000000000000000
    Empirical Dispersion Energy =           0.0000000000000000
    PCM Polarization Energy =               0.0000000000000000
    EFP Energy =                            0.0000000000000000
    Total Energy =                       -247.0056664549182415
    Molecular point group: c1
  Basis Set: 6-31G*
  Basis Set:

  -Total Gradient:
     Atom            X                  Y                   Z
    ------   -----------------  -----------------  -----------------
       1       -0.000001869030     0.000016968619     0.000004571872
       2       -0.000035277174    -0.000264524958     0.000235414606
       3        0.000024367495     0.000252712535    -0.000255021754
       4        0.000037676838     0.000204747671    -0.000083547457
       5       -0.000010738617    -0.000144753544     0.000147354035
       6        0.000010985069    -0.000011130968    -0.000000248314
       7        0.000018504575    -0.000007573608    -0.000005107994
       8       -0.000001021430    -0.000022779102     0.000003870304
       9       -0.000033695037    -0.000041770092    -0.000037833167
      10       -0.000000156424     0.000010723723     0.000000337709
      11       -0.000003781338    -0.000000101344    -0.000010711419
      12       -0.000004994928     0.000007481072     0.000000921581

  **** Optimization is complete! (in 19 steps) ****
    Final optimized geometry and variables:
    Molecular point group: c1

    Geometry (in Angstrom), charge = 0, multiplicity = 1:

    H            0.620592850386     1.343727985747     0.900265224216
    N           -0.070842896009     0.820397900897     0.416078945293
    C           -1.442825000037     1.270257598200     0.487333628964
    C            0.289331181870    -0.348786034127    -0.161740612291
    H           -2.014312295053     0.744712757152    -0.260595675111
    H           -1.493471847014     2.334707869647     0.291312067456
    H           -1.880663689767     1.072961991457     1.461084637947
    C            1.759892894078    -0.698003049458    -0.061348506866
    O           -0.492701182680    -1.079458230990    -0.706473358856
    H            1.895166833473    -1.404083747133     0.751519808035
    H            2.063731361505    -1.183222142773    -0.978513330118
    H            2.392508200399     0.163283641070     0.119711433656

  Mulliken Charges: (a.u.)
   Center  Symbol    Alpha    Beta     Spin     Total
       1     H     0.31040  0.31040  0.00000  0.37920
       2     N     3.89360  3.89360  0.00000 -0.78721
       3     C     3.14184  3.14184  0.00000 -0.28367
       4     C     2.62843  2.62843  0.00000  0.74315
       5     H     0.38745  0.38745  0.00000  0.22510
       6     H     0.41640  0.41640  0.00000  0.16720
       7     H     0.41596  0.41596  0.00000  0.16809
       8     C     3.29057  3.29057  0.00000 -0.58114
       9     O     4.30424  4.30424  0.00000 -0.60847
      10     H     0.39950  0.39950  0.00000  0.20100
      11     H     0.39422  0.39422  0.00000  0.21156
      12     H     0.41741  0.41741  0.00000  0.16519

   Total alpha = 20.00000, Total beta = 20.00000, Total charge = -0.00000
