  ==> Input File <==

--------------------------------------------------------------------------
set {
	reference rhf
	basis cc-pvtz
}

set_num_threads( 4 )
memory 2 gb

molecule MOL {
0 1

H	 -2.853862	 -0.331946	 0.038977
N	 -1.903401	 -0.201448	 0.312227
C	 -1.244029	 0.768544	 -0.542457
H	 -1.445245	 -1.085328	 0.242612
C	 0.197294	 0.949714	 -0.124829
H	 -1.264739	 0.500788	 -1.598119
H	 -1.749239	 1.722539	 -0.438980
O	 0.881195	 -0.248324	 -0.336237
H	 0.653356	 1.748645	 -0.707830
H	 0.241249	 1.226710	 0.926013
C	 2.208068	 -0.234417	 0.074171
H	 2.725499	 -1.027054	 -0.446768
H	 2.688377	 0.712084	 -0.164856
H	 2.295137	 -0.403407	 1.144883

	symmetry c1
}
set optking {
	frozen_dihedral = ("
		5 8 11 13
	")
}

ee = optimize('scf')
oeprop('DIPOLE', 'QUADRUPOLE', 'MULLIKEN_CHARGES')
f=open( 'psi4out.xyz', 'w' )
f.write( "14  " )
f.write( str(ee) + "\n" )
f.write( MOL.save_string_xyz() )
f.close()
--------------------------------------------------------------------------

    Molecular point group: c1
  Charge       = 0
  Multiplicity = 1
  Basis Set: CC-PVTZ
  Basis Set:
  @DF-RHF Final Energy:  -248.22522292003615
    Total Energy =                       -248.2252229200360034
    Molecular point group: c1
  Basis Set: CC-PVTZ
  Basis Set:
  Basis Set: CC-PVTZ
  Basis Set:
  @DF-RHF Final Energy:  -248.22526163674257
    Total Energy =                       -248.2252616367425162
  Basis Set: CC-PVTZ
  Basis Set:
  Charge       = 0
  Multiplicity = 1
  Basis Set: CC-PVTZ
  Basis Set:

    Orbital Energies (a.u.)
    -----------------------

    Doubly Occupied:

       1A    -20.549838     2A    -15.523506     3A    -11.264105
       4A    -11.263553     5A    -11.239783     6A     -1.383388
       7A     -1.175956     8A     -1.000531     9A     -0.907725
      10A     -0.815791    11A     -0.685392    12A     -0.675132
      13A     -0.646897    14A     -0.612117    15A     -0.607177
      16A     -0.542193    17A     -0.531547    18A     -0.498029
      19A     -0.474680    20A     -0.418344    21A     -0.383874

  @DF-RHF Final Energy:  -248.22527109082944

   => Energetics <=

    Nuclear Repulsion Energy =            194.6391823027843770
    One-Electron Energy =                -723.3297871751498178
    Two-Electron Energy =                 280.4653337815359464
    DFT Exchange-Correlation Energy =       0.0000000000000000
    Empirical Dispersion Energy =           0.0000000000000000
    PCM Polarization Energy =               0.0000000000000000
    EFP Energy =                            0.0000000000000000
    Total Energy =                       -248.2252710908294375
    Molecular point group: c1
  Basis Set: CC-PVTZ
  Basis Set:

  -Total Gradient:
     Atom            X                  Y                   Z
    ------   -----------------  -----------------  -----------------
       1        0.000004995815    -0.000011915519     0.000001614111
       2       -0.000030504670     0.000002525259     0.000003354829
       3        0.000059193055    -0.000070496330     0.000013238452
       4        0.000001313004     0.000000943159    -0.000004983792
       5        0.000539687002     0.000721057331    -0.001782446609
       6       -0.000001895656     0.000000217433    -0.000006548246
       7        0.000040643878     0.000002651773     0.000014737358
       8       -0.001061605318    -0.000682184645     0.003125368518
       9       -0.000000003981    -0.000003743858    -0.000002230777
      10       -0.000006721444    -0.000004224005    -0.000000346910
      11        0.001053192797    -0.000767391792    -0.003493841067
      12        0.000028587483    -0.000039384745    -0.000027838882
      13       -0.000645706939     0.000841134999     0.002214042442
      14        0.000018824977     0.000010810942    -0.000054119426

  **** Optimization is complete! (in 3 steps) ****
    Final optimized geometry and variables:
    Molecular point group: c1

    Geometry (in Angstrom), charge = 0, multiplicity = 1:

    H           -2.887761604154    -0.524412782245     0.166512026208
    N           -1.936655577140    -0.392806474804     0.436901024410
    C           -1.281710142158     0.580279679465    -0.417628988163
    H           -1.477327385958    -1.275743708958     0.363289368595
    C            0.159856092962     0.765388839131    -0.002982053824
    H           -1.303265108668     0.313609418226    -1.473589888775
    H           -1.789342897458     1.532811456037    -0.312259075465
    O            0.845958282639    -0.430689830849    -0.220026812354
    H            0.613200630107     1.565256982783    -0.585933590218
    H            0.203227620835     1.041888322855     1.048204791761
    C            2.173543421425    -0.427097042606     0.193843111438
    H            2.690637134420    -1.226780333960    -0.316848885222
    H            2.660831858165     0.517394868454    -0.034411765368
    H            2.250113664740    -0.588146513457     1.266653234304

  Mulliken Charges: (a.u.)
   Center  Symbol    Alpha    Beta     Spin     Total
       1     H     0.43025  0.43025  0.00000  0.13951
       2     N     3.69416  3.69416  0.00000 -0.38832
       3     C     3.02285  3.02285  0.00000 -0.04570
       4     H     0.42241  0.42241  0.00000  0.15518
       5     C     2.96860  2.96860  0.00000  0.06280
       6     H     0.46463  0.46463  0.00000  0.07075
       7     H     0.45870  0.45870  0.00000  0.08259
       8     O     4.18114  4.18114  0.00000 -0.36227
       9     H     0.46867  0.46867  0.00000  0.06267
      10     H     0.46975  0.46975  0.00000  0.06049
      11     C     3.03091  3.03091  0.00000 -0.06182
      12     H     0.44949  0.44949  0.00000  0.10103
      13     H     0.47282  0.47282  0.00000  0.05436
      14     H     0.46563  0.46563  0.00000  0.06874

   Total alpha = 21.00000, Total beta = 21.00000, Total charge = -0.00000
