  ==> Input File <==

--------------------------------------------------------------------------
set {
	reference rhf
	basis 6-31G*
}

set_num_threads( 4 )
memory 2 gb

molecule MOL {
0 1

H	 -2.646374	 -0.642757	 1.268656
C	 -2.083525	 -0.384536	 0.393091
O	 -0.807605	 -0.127164	 0.768327
F	 -2.118945	 -1.383102	 -0.486752
F	 -2.621877	 0.670592	 -0.209486
C	 0.084052	 0.273579	 -0.209957
C	 1.353033	 -0.546803	 -0.018071
Cl	 0.433844	 2.004619	 -0.074457
H	 -0.288836	 0.092657	 -1.202930
F	 2.409113	 0.147786	 -0.384650
F	 1.284033	 -1.619737	 -0.780625
F	 1.510795	 -0.930556	 1.225238

	symmetry c1
}
set optking {
	frozen_dihedral = ("
		10 7 6 9
	")
}

ee = optimize('scf')
oeprop('DIPOLE', 'QUADRUPOLE', 'MULLIKEN_CHARGES')
f=open( 'psi4out.xyz', 'w' )
f.write( "12  " )
f.write( str(ee) + "\n" )
f.write( MOL.save_string_xyz() )
f.close()
--------------------------------------------------------------------------

    Molecular point group: c1
  Charge       = 0
  Multiplicity = 1
  Basis Set: 6-31G*
  Basis Set:
  @DF-RHF Final Energy: -1146.30801788958024
    Total Energy =                      -1146.3080178895800145
    Molecular point group: c1
  Basis Set: 6-31G*
  Basis Set:
  Basis Set: 6-31G*
  Basis Set:
  @DF-RHF Final Energy: -1146.30834195952912
    Total Energy =                      -1146.3083419595286614
  Basis Set: 6-31G*
  Basis Set:
  Basis Set: 6-31G*
  Basis Set:
  @DF-RHF Final Energy: -1146.30926990727494
    Total Energy =                      -1146.3092699072751657
  Basis Set: 6-31G*
  Basis Set:
  Basis Set: 6-31G*
  Basis Set:
  @DF-RHF Final Energy: -1146.30930835282834
    Total Energy =                      -1146.3093083528292482
  Basis Set: 6-31G*
  Basis Set:
  @DF-RHF Final Energy: -1146.30931593902733
    Total Energy =                      -1146.3093159390277833
  @DF-RHF Final Energy: -1146.30931912850338
    Total Energy =                      -1146.3093191285033754
  @DF-RHF Final Energy: -1146.30931702667840
    Total Energy =                      -1146.3093170266793095
  @DF-RHF Final Energy: -1146.30660508939718
    Total Energy =                      -1146.3066050893980901
  @DF-RHF Final Energy: -1146.29512582988446
    Total Energy =                      -1146.2951258298851371
  @DF-RHF Final Energy: -1146.30224761107888
    Total Energy =                      -1146.3022476110777461
  @DF-RHF Final Energy: -1146.30911610800194
    Total Energy =                      -1146.3091161080014899
  Basis Set: 6-31G*
  Basis Set:
  @DF-RHF Final Energy: -1146.30931336535559
    Total Energy =                      -1146.3093133653544555
  Basis Set: 6-31G*
  Basis Set:
  Basis Set: 6-31G*
  Basis Set:
  @DF-RHF Final Energy: -1146.30931836516129
    Total Energy =                      -1146.3093183651615163
  Basis Set: 6-31G*
  Basis Set:
  Basis Set: 6-31G*
  Basis Set:
  @DF-RHF Final Energy: -1146.30932016462293
    Total Energy =                      -1146.3093201646227044
  Basis Set: 6-31G*
  Basis Set:
  Charge       = 0
  Multiplicity = 1
  Basis Set: 6-31G*
  Basis Set:

    Orbital Energies (a.u.)
    -----------------------

    Doubly Occupied:

       1A   -104.844685     2A    -26.360932     3A    -26.358795
       4A    -26.354168     5A    -26.345445     6A    -26.345286
       7A    -20.647339     8A    -11.528639     9A    -11.488161
      10A    -11.400976    11A    -10.579353    12A     -8.048724
      13A     -8.045140    14A     -8.045096    15A     -1.761164
      16A     -1.716682    17A     -1.658486    18A     -1.653761
      19A     -1.637474    20A     -1.483460    21A     -1.178974
      22A     -1.050959    23A     -0.985092    24A     -0.918547
      25A     -0.858122    26A     -0.850110    27A     -0.846652
      28A     -0.822973    29A     -0.810095    30A     -0.790353
      31A     -0.726592    32A     -0.722393    33A     -0.704888
      34A     -0.701420    35A     -0.679135    36A     -0.672672
      37A     -0.657939    38A     -0.656474    39A     -0.646072
      40A     -0.631226    41A     -0.596250    42A     -0.579275
      43A     -0.523962    44A     -0.476023    45A     -0.469374

  @DF-RHF Final Energy: -1146.30932056032498

   => Energetics <=

    Nuclear Repulsion Energy =            736.7794771030627317
    One-Electron Energy =               -3056.4589186168632295
    Two-Electron Energy =                1173.3701209534756345
    DFT Exchange-Correlation Energy =       0.0000000000000000
    Empirical Dispersion Energy =           0.0000000000000000
    PCM Polarization Energy =               0.0000000000000000
    EFP Energy =                            0.0000000000000000
    Total Energy =                      -1146.3093205603249771
    Molecular point group: c1
  Basis Set: 6-31G*
  Basis Set:

  -Total Gradient:
     Atom            X                  Y                   Z
    ------   -----------------  -----------------  -----------------
       1       -0.000012667750    -0.000011056433    -0.000019115593
       2        0.000092959055    -0.000056861417    -0.000142614886
       3        0.000033121069    -0.000007439564     0.000055890001
       4       -0.000061658223     0.000008156823     0.000071354751
       5        0.000003946567    -0.000018635131     0.000057399183
       6        0.005461783521     0.008099780815    -0.001697816758
       7       -0.002291000090    -0.004815181118    -0.007607554801
       8       -0.000027085917    -0.000041558750     0.000095343340
       9       -0.004141332600    -0.005807694333     0.002911293916
      10        0.000802330231     0.002490335557     0.006023311873
      11        0.000062128332     0.000039802495     0.000152037863
      12        0.000077475824     0.000120351126     0.000100471108

  **** Optimization is complete! (in 15 steps) ****
    Final optimized geometry and variables:
    Molecular point group: c1

    Geometry (in Angstrom), charge = 0, multiplicity = 1:

    H           -2.642866366890    -0.677755914097     1.245749347111
    C           -2.080956198429    -0.391308163650     0.378365150261
    O           -0.802456443354    -0.159178650863     0.758123295029
    F           -2.127565032194    -1.358926385817    -0.536563918496
    F           -2.616373328186     0.686981070994    -0.184336178162
    C            0.091252716679     0.279535567296    -0.209409364238
    C            1.371303171116    -0.552054274629    -0.027576310444
    CL           0.384714261720     2.012624171090    -0.045503973773
    H           -0.305062165272     0.071623782058    -1.187636645151
    F            2.442482896415     0.092369173588    -0.429615193669
    F            1.259370768772    -1.663446745814    -0.727714317641
    F            1.556549291740    -0.875992481105     1.231332254674

  Mulliken Charges: (a.u.)
   Center  Symbol    Alpha    Beta     Spin     Total
       1     H     0.40140  0.40140  0.00000  0.19719
       2     C     2.56646  2.56646  0.00000  0.86708
       3     O     4.29707  4.29707  0.00000 -0.59415
       4     F     4.68712  4.68712  0.00000 -0.37423
       5     F     4.68411  4.68411  0.00000 -0.36823
       6     C     3.05954  3.05954  0.00000 -0.11907
       7     C     2.42953  2.42953  0.00000  1.14095
       8    CL     8.49413  8.49413  0.00000  0.01174
       9     H     0.36603  0.36603  0.00000  0.26793
      10     F     4.67028  4.67028  0.00000 -0.34057
      11     F     4.67539  4.67539  0.00000 -0.35079
      12     F     4.66893  4.66893  0.00000 -0.33786

   Total alpha = 45.00000, Total beta = 45.00000, Total charge =  0.00000
