  ==> Input File <==

--------------------------------------------------------------------------
set {
	reference rhf
	basis cc-pvtz
}

set_num_threads( 4 )
memory 2 gb

molecule MOL {
0 1

H	 -0.000342	 -0.223902	 -3.352295
C	 -0.027146	 0.371068	 -2.446756
C	 0.024493	 -0.518541	 -1.216015
H	 -0.932586	 0.964979	 -2.449855
H	 0.819708	 1.049865	 -2.473332
N	 -0.042516	 0.263377	 -0.000000
H	 -0.822211	 -1.197105	 -1.225584
H	 0.921114	 -1.142847	 -1.255206
C	 0.024493	 -0.518541	 1.216015
H	 0.682568	 0.950412	 -0.000000
C	 -0.932782	 0.015704	 2.268156
H	 -0.242066	 -1.541706	 0.972031
H	 1.036497	 -0.552902	 1.628192
H	 -1.949111	 0.014160	 1.894478
H	 -0.893298	 -0.589634	 3.166330
H	 -0.678679	 1.034045	 2.545728

	symmetry c1
}
set optking {
	frozen_dihedral = ("
		12 9 6 3
	")
}

ee = optimize('scf')
oeprop('DIPOLE', 'QUADRUPOLE', 'MULLIKEN_CHARGES')
f=open( 'psi4out.xyz', 'w' )
f.write( "16  " )
f.write( str(ee) + "\n" )
f.write( MOL.save_string_xyz() )
f.close()
--------------------------------------------------------------------------

    Molecular point group: c1
  Charge       = 0
  Multiplicity = 1
  Basis Set: CC-PVTZ
  Basis Set:
  @DF-RHF Final Energy:  -212.39079778806590
    Total Energy =                       -212.3907977880658109
    Molecular point group: c1
  Basis Set: CC-PVTZ
  Basis Set:
  Basis Set: CC-PVTZ
  Basis Set:
  @DF-RHF Final Energy:  -212.39114080254865
    Total Energy =                       -212.3911408025486480
  Basis Set: CC-PVTZ
  Basis Set:
  Basis Set: CC-PVTZ
  Basis Set:
  @DF-RHF Final Energy:  -212.39122281456315
    Total Energy =                       -212.3912228145632071
  Basis Set: CC-PVTZ
  Basis Set:
  Basis Set: CC-PVTZ
  Basis Set:
  @DF-RHF Final Energy:  -212.39122680911200
    Total Energy =                       -212.3912268091117426
  Basis Set: CC-PVTZ
  Basis Set:
  Charge       = 0
  Multiplicity = 1
  Basis Set: CC-PVTZ
  Basis Set:

    Orbital Energies (a.u.)
    -----------------------

    Doubly Occupied:

       1A    -15.526343     2A    -11.239848     3A    -11.239146
       4A    -11.206491     5A    -11.201181     6A     -1.203511
       7A     -1.027312     8A     -0.963831     9A     -0.834817
      10A     -0.817918    11A     -0.664347    12A     -0.627225
      13A     -0.606298    14A     -0.570192    15A     -0.559832
      16A     -0.524160    17A     -0.506599    18A     -0.489175
      19A     -0.483926    20A     -0.473346    21A     -0.356134

  @DF-RHF Final Energy:  -212.39122728768325

   => Energetics <=

    Nuclear Repulsion Energy =            189.2723879151723168
    One-Electron Energy =                -661.0839661902499529
    Two-Electron Energy =                 259.4203509873943858
    DFT Exchange-Correlation Energy =       0.0000000000000000
    Empirical Dispersion Energy =           0.0000000000000000
    PCM Polarization Energy =               0.0000000000000000
    EFP Energy =                            0.0000000000000000
    Total Energy =                       -212.3912272876832503
    Molecular point group: c1
  Basis Set: CC-PVTZ
  Basis Set:

  -Total Gradient:
     Atom            X                  Y                   Z
    ------   -----------------  -----------------  -----------------
       1        0.000001302880     0.000007912005    -0.000010066757
       2        0.000008874192    -0.000010679761    -0.000008352603
       3       -0.002402596077    -0.000220259164    -0.000006888940
       4        0.000001156407    -0.000012412919     0.000008504953
       5        0.000004271363    -0.000002640416     0.000002577090
       6        0.004101316973     0.000178134712    -0.000112281497
       7        0.000001617359    -0.000006931894    -0.000009515289
       8       -0.000007740907     0.000018575334    -0.000003289994
       9       -0.004659854337     0.000690705214     0.000668080410
      10        0.000009868450     0.000010793456     0.000010079454
      11        0.000017483983    -0.000018948353    -0.000010289950
      12        0.002908296201    -0.000634127906    -0.000527040138
      13        0.000015874149     0.000002437764     0.000001637851
      14        0.000008516853    -0.000000432444     0.000003022886
      15       -0.000013654208     0.000008865604     0.000005416493
      16        0.000005266719    -0.000010991233    -0.000011593970

  **** Optimization is complete! (in 5 steps) ****
    Final optimized geometry and variables:
    Molecular point group: c1

    Geometry (in Angstrom), charge = 0, multiplicity = 1:

    H            0.200748160510    -0.120952631844    -3.327185318192
    C            0.168081476243     0.458934030971    -2.412105517594
    C            0.221249728447    -0.450721989467    -1.196264023733
    H           -0.740699743091     1.047871873502    -2.407417811909
    H            1.011460948146     1.142480129131    -2.425204110306
    N            0.138908310363     0.314230731197     0.029041084577
    H           -0.620333527552    -1.134346146878    -1.222180784657
    H            1.123420248119    -1.066472533938    -1.246961047057
    C            0.191401703228    -0.453677015124     1.261776923442
    H            0.819105087816     1.042382434260     0.035009666708
    C           -0.742605259832     0.105269896278     2.323261421382
    H           -0.068235824834    -1.482285099671     1.038595579609
    H            1.205533351644    -0.495413795683     1.660343397224
    H           -1.766762561195     0.095580811067     1.971205953284
    H           -0.683365906307    -0.475651091971     3.237979723518
    H           -0.483524589773     1.131418712657     2.560108310240

  Mulliken Charges: (a.u.)
   Center  Symbol    Alpha    Beta     Spin     Total
       1     H     0.45410  0.45410  0.00000  0.09180
       2     C     3.14383  3.14383  0.00000 -0.28765
       3     C     3.02011  3.02011  0.00000 -0.04022
       4     H     0.44973  0.44973  0.00000  0.10054
       5     H     0.45941  0.45941  0.00000  0.08117
       6     N     3.64352  3.64352  0.00000 -0.28703
       7     H     0.45935  0.45935  0.00000  0.08131
       8     H     0.47426  0.47426  0.00000  0.05148
       9     C     3.03377  3.03377  0.00000 -0.06753
      10     H     0.44150  0.44150  0.00000  0.11700
      11     C     3.12965  3.12965  0.00000 -0.25929
      12     H     0.45712  0.45712  0.00000  0.08576
      13     H     0.46232  0.46232  0.00000  0.07535
      14     H     0.45399  0.45399  0.00000  0.09201
      15     H     0.45945  0.45945  0.00000  0.08111
      16     H     0.45790  0.45790  0.00000  0.08420

   Total alpha = 21.00000, Total beta = 21.00000, Total charge = -0.00000
