  ==> Input File <==

--------------------------------------------------------------------------
set {
	reference rhf
	basis 6-31G*
}

set_num_threads( 4 )
memory 2 gb

molecule MOL {
0 1

H	 1.110361	 -0.547641	 -0.393701
C	 0.850167	 0.441173	 0.000644
C	 -0.623425	 0.760064	 0.000248
O	 1.701865	 1.171862	 0.391093
C	 -1.518387	 -0.473136	 -0.000101
H	 -0.818289	 1.390622	 -0.866171
H	 -0.818694	 1.390413	 0.866696
H	 -1.333417	 -1.085530	 -0.874338
H	 -2.563510	 -0.183466	 -0.000351
H	 -1.333864	 -1.085676	 0.874123

	symmetry c1
}
set optking {
	frozen_dihedral = ("
		4 2 3 6
	")
}

ee = optimize('scf')
oeprop('DIPOLE', 'QUADRUPOLE', 'MULLIKEN_CHARGES')
f=open( 'psi4out.xyz', 'w' )
f.write( "10  " )
f.write( str(ee) + "\n" )
f.write( MOL.save_string_xyz() )
f.close()
--------------------------------------------------------------------------

    Molecular point group: c1
  Charge       = 0
  Multiplicity = 1
  Basis Set: 6-31G*
  Basis Set:
  @DF-RHF Final Energy:  -191.94935069814926
    Total Energy =                       -191.9493506981492601
    Molecular point group: c1
  Basis Set: 6-31G*
  Basis Set:
  Basis Set: 6-31G*
  Basis Set:
  @DF-RHF Final Energy:  -191.94854365965048
    Total Energy =                       -191.9485436596504826
  Basis Set: 6-31G*
  Basis Set:
  Basis Set: 6-31G*
  Basis Set:
  @DF-RHF Final Energy:  -191.94951493341068
    Total Energy =                       -191.9495149334107111
  Basis Set: 6-31G*
  Basis Set:
  Charge       = 0
  Multiplicity = 1
  Basis Set: 6-31G*
  Basis Set:

    Orbital Energies (a.u.)
    -----------------------

    Doubly Occupied:

       1A    -20.563230     2A    -11.328825     3A    -11.239396
       4A    -11.232542     5A     -1.403979     6A     -1.066667
       7A     -0.902515     8A     -0.797573     9A     -0.662516
      10A     -0.640435    11A     -0.631619    12A     -0.555911
      13A     -0.544101    14A     -0.523497    15A     -0.490541
      16A     -0.412680

  @DF-RHF Final Energy:  -191.94957448571211

   => Energetics <=

    Nuclear Repulsion Energy =            116.8915841108861144
    One-Electron Energy =                -491.6902627274930637
    Two-Electron Energy =                 182.8491041308948013
    DFT Exchange-Correlation Energy =       0.0000000000000000
    Empirical Dispersion Energy =           0.0000000000000000
    PCM Polarization Energy =               0.0000000000000000
    EFP Energy =                            0.0000000000000000
    Total Energy =                       -191.9495744857121338
    Molecular point group: c1
  Basis Set: 6-31G*
  Basis Set:

  -Total Gradient:
     Atom            X                  Y                   Z
    ------   -----------------  -----------------  -----------------
       1        0.000050964227    -0.000041015090    -0.000012677773
       2       -0.000135954882    -0.000206076654     0.001228211215
       3       -0.000080688853    -0.000680985510    -0.000796897606
       4        0.000163529307     0.000302524809    -0.000780365388
       5       -0.000074540444     0.000097884109     0.000028944397
       6        0.000148457210     0.000705481055     0.000373833491
       7       -0.000025513753    -0.000095894923    -0.000074367976
       8       -0.000000067196     0.000029100883    -0.000030474153
       9       -0.000031243998    -0.000073077691    -0.000005620967
      10       -0.000014941623    -0.000037940986     0.000069414759

  **** Optimization is complete! (in 4 steps) ****
    Final optimized geometry and variables:
    Molecular point group: c1

    Geometry (in Angstrom), charge = 0, multiplicity = 1:

    H            1.021464982676    -1.020294448943    -0.502275978224
    C            0.751474236280    -0.037306135234    -0.097559770018
    C           -0.724537933645     0.290435133271    -0.087056937425
    O            1.598149984163     0.707397805705     0.275894486898
    C           -1.621740528101    -0.945802802372    -0.099351075176
    H           -0.916669123015     0.907319276600    -0.963105213851
    H           -0.917855620625     0.917117478190     0.776329387900
    H           -1.435357858617    -1.560591181305    -0.974918690120
    H           -2.667611879671    -0.661665754990    -0.113785346801
    H           -1.458709801625    -1.561253570135     0.780265861643

  Mulliken Charges: (a.u.)
   Center  Symbol    Alpha    Beta     Spin     Total
       1     H     0.43010  0.43010  0.00000  0.13981
       2     C     2.83443  2.83443  0.00000  0.33114
       3     C     3.20637  3.20637  0.00000 -0.41274
       4     O     4.23848  4.23848  0.00000 -0.47696
       5     C     3.25262  3.25262  0.00000 -0.50523
       6     H     0.40083  0.40083  0.00000  0.19833
       7     H     0.39741  0.39741  0.00000  0.20519
       8     H     0.41654  0.41654  0.00000  0.16692
       9     H     0.40942  0.40942  0.00000  0.18116
      10     H     0.41381  0.41381  0.00000  0.17238

   Total alpha = 16.00000, Total beta = 16.00000, Total charge =  0.00000
