                              Psi4 1.0.54 Driver

  ==> Input File <==

--------------------------------------------------------------------------
set {
	reference rhf
	basis cc-pvtz
}

set_num_threads( 4 )
memory 2 gb

molecule MOL {
0 1

H	 3.119861	 0.359155	 0.853919
N	 2.260772	 -0.148266	 0.862824
C	 1.263552	 0.494993	 0.021953
H	 1.953172	 -0.190076	 1.812019
C	 -0.016533	 -0.325589	 -0.026925
H	 1.675445	 0.574848	 -0.978528
H	 1.026956	 1.509779	 0.344780
C	 -1.280353	 0.525521	 0.047747
H	 -0.016686	 -0.912532	 -0.939714
H	 -0.014099	 -1.037598	 0.796369
C	 -2.560681	 -0.301323	 -0.007747
H	 -1.279957	 1.241025	 -0.770189
H	 -1.270445	 1.110526	 0.963468
H	 -2.617064	 -0.872870	 -0.928010
H	 -3.439525	 0.331102	 0.043462
H	 -2.609427	 -1.002736	 0.818585

	symmetry c1
}
set optking {
	frozen_dihedral = ("
		6 3 5 9
	")
}

ee,wfn = optimize('scf', return_wfn=True)
oeprop( wfn, 'DIPOLE', 'QUADRUPOLE', 'MULLIKEN_CHARGES')
f=open( 'psi4out.xyz', 'w' )
f.write( "16  " )
f.write( str(ee) + "\n" )
f.write( MOL.save_string_xyz() )
f.close()
--------------------------------------------------------------------------

    Molecular point group: c1
  Charge       = 0
  Multiplicity = 1
  Basis Set: CC-PVTZ
  Basis Set:
  @DF-RHF Final Energy:  -212.39520917382993
    Total Energy =                       -212.3952091738298691
    Molecular point group: c1
  Basis Set: CC-PVTZ
  Basis Set:
  Basis Set: CC-PVTZ
  Basis Set:
  @DF-RHF Final Energy:  -212.39555692367276
    Total Energy =                       -212.3955569236726433
  Basis Set: CC-PVTZ
  Basis Set:
  Basis Set: CC-PVTZ
  Basis Set:
  @DF-RHF Final Energy:  -212.39564896558323
    Total Energy =                       -212.3956489655831774
  Basis Set: CC-PVTZ
  Basis Set:
  Basis Set: CC-PVTZ
  Basis Set:
  @DF-RHF Final Energy:  -212.39565062105385
    Total Energy =                       -212.3956506210538464
  Basis Set: CC-PVTZ
  Basis Set:
  Charge       = 0
  Multiplicity = 1
  Basis Set: CC-PVTZ
  Basis Set:

    Orbital Energies (a.u.)
    -----------------------

    Doubly Occupied:

       1A    -15.526335     2A    -11.238371     3A    -11.213049
       4A    -11.208076     5A    -11.205836     6A     -1.177004
       7A     -1.059961     8A     -0.958013     9A     -0.845765
      10A     -0.791502    11A     -0.669486    12A     -0.625761
      13A     -0.616025    14A     -0.576406    15A     -0.557716
      16A     -0.530212    17A     -0.504769    18A     -0.471776
      19A     -0.465740    20A     -0.455880    21A     -0.383131

  @DF-RHF Final Energy:  -212.39565095200214

   => Energetics <=

    Nuclear Repulsion Energy =            186.5488209038207970
    One-Electron Energy =                -655.7273117425872897
    Two-Electron Energy =                 256.7828398867643500
    DFT Exchange-Correlation Energy =       0.0000000000000000
    Empirical Dispersion Energy =           0.0000000000000000
    PCM Polarization Energy =               0.0000000000000000
    EFP Energy =                            0.0000000000000000
    Total Energy =                       -212.3956509520021427
    Molecular point group: c1
  Basis Set: CC-PVTZ
  Basis Set:

  -Total Gradient:
     Atom            X                  Y                   Z
    ------   -----------------  -----------------  -----------------
       1        0.000018761557    -0.000009306989     0.000012763935
       2       -0.000005680707     0.000032367447    -0.000032567466
       3       -0.003128638404     0.004936468915    -0.001278215820
       4       -0.000010674894     0.000013041715    -0.000025782705
       5        0.002837086788    -0.004571289613     0.002596864179
       6        0.002175259421    -0.003443990963     0.000675105116
       7       -0.000006570434    -0.000040088586     0.000002156944
       8        0.000014354796    -0.000009506150     0.000051718576
       9       -0.001859794241     0.003059534258    -0.001999310046
      10       -0.000000166198     0.000031130016     0.000008086628
      11       -0.000019874944     0.000006078238    -0.000007772579
      12        0.000019166510     0.000002203028    -0.000001583804
      13       -0.000018210007     0.000003050145     0.000007215942
      14       -0.000000644227    -0.000008156311    -0.000001423162
      15       -0.000013001643    -0.000005613149    -0.000007366179
      16       -0.000001373372     0.000004077999     0.000000110440

  **** Optimization is complete! (in 5 steps) ****
    Final optimized geometry and variables:
    Molecular point group: c1

    Geometry (in Angstrom), charge = 0, multiplicity = 1:

    H            3.188005589782     0.282849591104     0.628108747727
    N            2.322327019760    -0.212655946225     0.664470327168
    C            1.308117159791     0.445065110279    -0.149870504302
    H            2.042627319339    -0.246985736891     1.622638319456
    C            0.014728738764    -0.380504100154    -0.186533365759
    H            1.721596050498     0.517026480788    -1.148621128392
    H            1.089865010623     1.456783453353     0.188901410232
    C           -1.248636392014     0.478373450370    -0.163831109766
    H           -0.004211214774    -0.983149280955    -1.088459635477
    H            0.002331810334    -1.066049743002     0.653984116957
    C           -2.530679300593    -0.341678149726    -0.256402804859
    H           -1.216306017553     1.188438850809    -0.986406964363
    H           -1.264477494603     1.071462542069     0.746872910078
    H           -2.563068341991    -0.914835374158    -1.176976525312
    H           -3.407869994584     0.294756768427    -0.232228470441
    H           -2.606952762794    -1.041905761889     0.568960228824

  Mulliken Charges: (a.u.)
   Center  Symbol    Alpha    Beta     Spin     Total
       1     H     0.42961  0.42961  0.00000  0.14079
       2     N     3.68996  3.68996  0.00000 -0.37991
       3     C     3.03216  3.03216  0.00000 -0.06432
       4     H     0.43087  0.43087  0.00000  0.13825
       5     C     3.08329  3.08329  0.00000 -0.16658
       6     H     0.45572  0.45572  0.00000  0.08856
       7     H     0.46533  0.46533  0.00000  0.06934
       8     C     3.08750  3.08750  0.00000 -0.17500
       9     H     0.45297  0.45297  0.00000  0.09406
      10     H     0.45233  0.45233  0.00000  0.09534
      11     C     3.15011  3.15011  0.00000 -0.30023
      12     H     0.45497  0.45497  0.00000  0.09007
      13     H     0.45651  0.45651  0.00000  0.08699
      14     H     0.45475  0.45475  0.00000  0.09049
      15     H     0.44885  0.44885  0.00000  0.10231
      16     H     0.45507  0.45507  0.00000  0.08985

   Total alpha = 21.00000, Total beta = 21.00000, Total charge = -0.00000

*** Psi4 exiting successfully. Buy a developer a beer!
