  ==> Input File <==

--------------------------------------------------------------------------
set {
	reference rhf
	basis 6-31G*
}

set_num_threads( 4 )
memory 2 gb

molecule MOL {
0 1

H	 -3.420663	 1.227371	 -1.044276
O	 -3.452007	 0.283848	 -0.965577
C	 -3.181085	 -0.079926	 0.364119
C	 -1.765924	 0.277073	 0.805136
H	 -3.327791	 -1.152017	 0.410903
H	 -3.905698	 0.375695	 1.036898
C	 -0.938333	 -0.933192	 1.239725
H	 -1.260056	 0.794384	 -0.010614
H	 -1.832550	 0.993051	 1.622546
C	 0.486904	 -0.566720	 1.658742
H	 -0.907981	 -1.654187	 0.428580
H	 -1.442137	 -1.427661	 2.068626
C	 1.307263	 -1.782495	 2.098048
H	 0.981033	 -0.064790	 0.830296
H	 0.450481	 0.154232	 2.474527
C	 2.714253	 -1.455538	 2.611501
H	 1.382490	 -2.484203	 1.268807
H	 0.764964	 -2.301910	 2.885409
C	 3.660416	 -0.884371	 1.553697
H	 3.152782	 -2.364477	 3.016237
H	 2.640315	 -0.758562	 3.443944
H	 3.744197	 -1.554958	 0.702560
H	 4.656563	 -0.744976	 1.962471
H	 3.323497	 0.078551	 1.184334

	symmetry c1
}
set optking {
	frozen_dihedral = ("
		7 4 3 2
	")
}

ee = optimize('scf')
oeprop('DIPOLE', 'QUADRUPOLE', 'MULLIKEN_CHARGES')
f=open( 'psi4out.xyz', 'w' )
f.write( "24  " )
f.write( str(ee) + "\n" )
f.write( MOL.save_string_xyz() )
f.close()
--------------------------------------------------------------------------

    Molecular point group: c1
  Charge       = 0
  Multiplicity = 1
  Basis Set: 6-31G*
  Basis Set:
  @DF-RHF Final Energy:  -349.24094120466702
    Total Energy =                       -349.2409412046673651
    Molecular point group: c1
  Basis Set: 6-31G*
  Basis Set:
  Basis Set: 6-31G*
  Basis Set:
  @DF-RHF Final Energy:  -349.24132717879263
    Total Energy =                       -349.2413271787929148
  Basis Set: 6-31G*
  Basis Set:
  Basis Set: 6-31G*
  Basis Set:
  @DF-RHF Final Energy:  -349.24140814889500
    Total Energy =                       -349.2414081488948909
  Basis Set: 6-31G*
  Basis Set:
  Charge       = 0
  Multiplicity = 1
  Basis Set: 6-31G*
  Basis Set:

    Orbital Energies (a.u.)
    -----------------------

    Doubly Occupied:

       1A    -20.551403     2A    -11.266785     3A    -11.217076
       4A    -11.215646     5A    -11.215317     6A    -11.214257
       7A    -11.213455     8A    -11.208019     9A     -1.357778
      10A     -1.090579    11A     -1.048756    12A     -0.984121
      13A     -0.913492    14A     -0.851010    15A     -0.805170
      16A     -0.777751    17A     -0.687009    18A     -0.646570
      19A     -0.624580    20A     -0.615297    21A     -0.596864
      22A     -0.585263    23A     -0.564766    24A     -0.532336
      25A     -0.519472    26A     -0.516828    27A     -0.489234
      28A     -0.479058    29A     -0.464888    30A     -0.461455
      31A     -0.458790    32A     -0.453470    33A     -0.416219

  @DF-RHF Final Energy:  -349.24140719209845

   => Energetics <=

    Nuclear Repulsion Energy =            380.5032393849496657
    One-Electron Energy =               -1227.4038642539037482
    Two-Electron Energy =                 497.6592176768552918
    DFT Exchange-Correlation Energy =       0.0000000000000000
    Empirical Dispersion Energy =           0.0000000000000000
    PCM Polarization Energy =               0.0000000000000000
    EFP Energy =                            0.0000000000000000
    Total Energy =                       -349.2414071920987908
    Molecular point group: c1
  Basis Set: 6-31G*
  Basis Set:

  -Total Gradient:
     Atom            X                  Y                   Z
    ------   -----------------  -----------------  -----------------
       1        0.000006879827    -0.000016671966     0.000048596483
       2        0.000176766062    -0.000628320162    -0.000158933965
       3       -0.000245967749     0.000774589508    -0.000024861284
       4       -0.000125814012    -0.000012940605     0.000709665320
       5        0.000001414629     0.000023514882    -0.000088773991
       6       -0.000027570133    -0.000020640148    -0.000023296368
       7        0.000169060070    -0.000014550727    -0.000467494102
       8        0.000009974643    -0.000026580671     0.000031743635
       9        0.000009402408    -0.000031961260     0.000012644256
      10        0.000042374676    -0.000014000051    -0.000067397880
      11       -0.000067418463    -0.000035195893    -0.000021522665
      12        0.000032806284     0.000005001130     0.000027020193
      13       -0.000009017923     0.000014073564     0.000035503933
      14        0.000061256326     0.000024695725    -0.000010706280
      15       -0.000010029720    -0.000017962053    -0.000020203099
      16        0.000021307858    -0.000053150510    -0.000002207065
      17       -0.000001209121    -0.000007683843     0.000024770846
      18       -0.000018899690     0.000015919472     0.000005221433
      19       -0.000023463307     0.000016932184     0.000002912397
      20        0.000023111782     0.000000736578    -0.000015077005
      21        0.000003813047    -0.000022595296     0.000009203288
      22        0.000002221635    -0.000001311211     0.000014010175
      23       -0.000002060502     0.000012720674     0.000000795769
      24       -0.000028938631     0.000015380678    -0.000021614026

  **** Optimization is complete! (in 4 steps) ****
    Final optimized geometry and variables:
    Molecular point group: c1

    Geometry (in Angstrom), charge = 0, multiplicity = 1:

    H           -3.256826494904     1.838735675295    -2.180479459902
    O           -3.271465186359     0.895466906747    -2.098137191079
    C           -2.993826106962     0.540095115982    -0.766855100709
    C           -1.562505157624     0.900751251755    -0.323272755268
    H           -3.140645247204    -0.531370614515    -0.725429875228
    H           -3.727262506643     0.986266861574    -0.098964114828
    C           -0.737467141709    -0.311286130203     0.116912198562
    H           -1.063867877790     1.381883014349    -1.160266121390
    H           -1.589076791489     1.629228601530     0.484030590139
    C            0.688758000152     0.048622922153     0.535763301968
    H           -0.706268030877    -1.030706441494    -0.698966343364
    H           -1.240786329806    -0.809246582685     0.944432042677
    C            1.506942888626    -1.170436153622     0.970181611315
    H            1.181859052132     0.552651002519    -0.291585025914
    H            0.653212560927     0.766410539383     1.354250836059
    C            2.914992101714    -0.847361300063     1.483174493963
    H            1.580680226872    -1.869193292831     0.138381789640
    H            0.964662628529    -1.691745184774     1.756483284886
    C            3.857772308005    -0.265606726044     0.428191213962
    H            3.354999666366    -1.759717817787     1.878342623904
    H            2.842438816591    -0.158236182258     2.322237246918
    H            3.940978814778    -0.928758132289    -0.428721473106
    H            4.854447393389    -0.127948231179     0.836191713579
    H            3.518351515348     0.699714494024     0.067602068423

  Mulliken Charges: (a.u.)
   Center  Symbol    Alpha    Beta     Spin     Total
       1     H     0.28368  0.28368  0.00000  0.43264
       2     O     4.36975  4.36975  0.00000 -0.73950
       3     C     2.99676  2.99676  0.00000  0.00648
       4     C     3.17268  3.17268  0.00000 -0.34536
       5     H     0.41314  0.41314  0.00000  0.17372
       6     H     0.42927  0.42927  0.00000  0.14146
       7     C     3.15809  3.15809  0.00000 -0.31617
       8     H     0.41542  0.41542  0.00000  0.16917
       9     H     0.42209  0.42209  0.00000  0.15581
      10     C     3.15432  3.15432  0.00000 -0.30864
      11     H     0.41781  0.41781  0.00000  0.16438
      12     H     0.42352  0.42352  0.00000  0.15296
      13     C     3.15260  3.15260  0.00000 -0.30520
      14     H     0.42059  0.42059  0.00000  0.15882
      15     H     0.42474  0.42474  0.00000  0.15052
      16     C     3.15232  3.15232  0.00000 -0.30463
      17     H     0.42339  0.42339  0.00000  0.15321
      18     H     0.42254  0.42254  0.00000  0.15492
      19     C     3.24121  3.24121  0.00000 -0.48242
      20     H     0.42092  0.42092  0.00000  0.15817
      21     H     0.42370  0.42370  0.00000  0.15260
      22     H     0.42190  0.42190  0.00000  0.15621
      23     H     0.41935  0.41935  0.00000  0.16130
      24     H     0.42022  0.42022  0.00000  0.15956

   Total alpha = 33.00000, Total beta = 33.00000, Total charge = -0.00000
