                              Psi4 1.0.54 Driver

  ==> Input File <==

--------------------------------------------------------------------------
set {
	reference rhf
	basis cc-pvtz
}

set_num_threads( 4 )
memory 2 gb

molecule MOL {
0 1

O	 2.865883	 1.357220	 0.134683
C	 2.837193	 0.172311	 0.207327
C	 1.538775	 -0.608669	 0.203762
C	 4.107242	 -0.641855	 0.308980
C	 0.286398	 0.250444	 0.102237
H	 1.586447	 -1.319240	 -0.618360
H	 1.518539	 -1.214316	 1.106972
C	 -0.995117	 -0.578309	 0.102325
H	 0.338078	 0.848956	 -0.800108
H	 0.270212	 0.954074	 0.926722
C	 -2.258482	 0.271340	 0.000669
H	 -0.970805	 -1.283347	 -0.725688
H	 -1.039185	 -1.177420	 1.009180
C	 -3.544441	 -0.550271	 -0.000253
H	 -2.215471	 0.870396	 -0.905640
H	 -2.284089	 0.975889	 0.828366
C	 -4.804551	 0.308747	 0.000556
H	 -3.553737	 -1.201524	 -0.870151
H	 -3.553831	 -1.203282	 0.868313
H	 -4.842050	 0.949078	 -0.874436
H	 -5.698404	 -0.304480	 -0.000254
H	 -4.842277	 0.947103	 0.876982
H	 4.172745	 -1.337918	 -0.520028
H	 4.964145	 0.013929	 0.301439
H	 4.103782	 -1.227507	 1.221691

	symmetry c1
}
set optking {
	frozen_dihedral = ("
		15 11 14 18
	")
}

ee,wfn = optimize('scf', return_wfn=True)
oeprop( wfn, 'DIPOLE', 'QUADRUPOLE', 'MULLIKEN_CHARGES')
f=open( 'psi4out.xyz', 'w' )
f.write( "25  " )
f.write( str(ee) + "\n" )
f.write( MOL.save_string_xyz() )
f.close()
--------------------------------------------------------------------------

    Molecular point group: c1
  Charge       = 0
  Multiplicity = 1
  Basis Set: CC-PVTZ
  Basis Set:
  @DF-RHF Final Energy:  -387.27460339396669
    Total Energy =                       -387.2746033939663448
    Molecular point group: c1
  Basis Set: CC-PVTZ
  Basis Set:
  Basis Set: CC-PVTZ
  Basis Set:
  @DF-RHF Final Energy:  -387.27461103723493
    Total Energy =                       -387.2746110372349904
  Basis Set: CC-PVTZ
  Basis Set:
  Basis Set: CC-PVTZ
  Basis Set:
  @DF-RHF Final Energy:  -387.27461337390019
    Total Energy =                       -387.2746133739003653
  Basis Set: CC-PVTZ
  Basis Set:
  Basis Set: CC-PVTZ
  Basis Set:
  @DF-RHF Final Energy:  -387.27460125318424
    Total Energy =                       -387.2746012531837323
  Basis Set: CC-PVTZ
  Basis Set:
  Charge       = 0
  Multiplicity = 1
  Basis Set: CC-PVTZ
  Basis Set:

    Orbital Energies (a.u.)
    -----------------------

    Doubly Occupied:

       1A    -20.538874     2A    -11.320511     3A    -11.230166
       4A    -11.226591     5A    -11.215216     6A    -11.214598
       7A    -11.213572     8A    -11.211553     9A    -11.206418
      10A     -1.398901    11A     -1.095192    12A     -1.057667
      13A     -1.015561    14A     -0.970168    15A     -0.891485
      16A     -0.814686    17A     -0.791316    18A     -0.730997
      19A     -0.662990    20A     -0.654294    21A     -0.633386
      22A     -0.626866    23A     -0.596920    24A     -0.585298
      25A     -0.567677    26A     -0.559907    27A     -0.541261
      28A     -0.527179    29A     -0.513311    30A     -0.491844
      31A     -0.490056    32A     -0.473823    33A     -0.463786
      34A     -0.463235    35A     -0.452700    36A     -0.401390

  @DF-RHF Final Energy:  -387.27461510744337

   => Energetics <=

    Nuclear Repulsion Energy =            439.1256927585965855
    One-Electron Energy =               -1395.1018234714970276
    Two-Electron Energy =                 568.7015156054569616
    DFT Exchange-Correlation Energy =       0.0000000000000000
    Empirical Dispersion Energy =           0.0000000000000000
    PCM Polarization Energy =               0.0000000000000000
    EFP Energy =                            0.0000000000000000
    Total Energy =                       -387.2746151074434238
    Molecular point group: c1
  Basis Set: CC-PVTZ
  Basis Set:

  -Total Gradient:
     Atom            X                  Y                   Z
    ------   -----------------  -----------------  -----------------
       1        0.000006996117     0.000046265355    -0.000008007927
       2       -0.000019872289    -0.000047859161     0.000015964265
       3       -0.000001783110     0.000000866007    -0.000004597902
       4        0.000002264168     0.000005831521    -0.000004783276
       5        0.000006257310     0.000001408576     0.000006158965
       6       -0.000000336126    -0.000001933597    -0.000001032012
       7       -0.000000314185     0.000000597913     0.000000270180
       8       -0.000018151677     0.000026987474    -0.000004364939
       9       -0.000001084253    -0.000000974307    -0.000002157000
      10       -0.000000560685     0.000001870361     0.000001348892
      11       -0.000552797184     0.000852904442     0.000364596292
      12        0.000003438952    -0.000011953183    -0.000014585928
      13        0.000004619967    -0.000013589049     0.000015229777
      14        0.000523567851    -0.000833476887     0.000433195281
      15        0.000383948892    -0.000589415913    -0.000396026037
      16        0.000001377078     0.000012034820     0.000018553676
      17        0.000038406051    -0.000030018638     0.000000404623
      18       -0.000361448794     0.000572089142    -0.000438542205
      19       -0.000003957653    -0.000011547375     0.000016988686
      20       -0.000002878977     0.000014787383    -0.000023150852
      21       -0.000016610339    -0.000011035142    -0.000001047727
      22       -0.000004267505     0.000021141836     0.000025074128
      23        0.000001111250    -0.000006126054    -0.000010107201
      24        0.000013035170     0.000006003750    -0.000000482239
      25       -0.000000960027    -0.000004859274     0.000011100478

  **** Optimization is complete! (in 5 steps) ****
    Final optimized geometry and variables:
    Molecular point group: c1

    Geometry (in Angstrom), charge = 0, multiplicity = 1:

    O            2.868662492329     1.353396564229     0.009146032243
    C            2.839743664385     0.168714515983     0.084814475788
    C            1.541009699902    -0.611895999005     0.087894770647
    C            4.109842802503    -0.645852366438     0.183880783462
    C            0.288579991151     0.247311935597    -0.011901785770
    H            1.585783167112    -1.324740716786    -0.732414493920
    H            1.523701779539    -1.214995213325     0.992877452019
    C           -0.993248851520    -0.580950577648    -0.005985609665
    H            0.337781216317     0.843713434165    -0.915801060417
    H            0.275035749236     0.952956142322     0.810974427415
    C           -2.256955852249     0.269287334611    -0.102800552739
    H           -0.972597667653    -1.286495551866    -0.833797626944
    H           -1.033702036621    -1.179615821733     0.901328672412
    C           -3.541658726590    -0.554467001745    -0.114585721373
    H           -2.210492864066     0.871064108555    -1.007097212348
    H           -2.283736864753     0.967848268094     0.729750701276
    C           -4.802308052088     0.304168139749    -0.128582338761
    H           -3.543236658740    -1.202127299897    -0.987143044938
    H           -3.560612012347    -1.207412261887     0.753724659169
    H           -4.826189239291     0.949711166134    -1.000347374875
    H           -5.695769261949    -0.309445083565    -0.147537584459
    H           -4.854433505171     0.937369575916     0.750864069973
    H            4.171740897587    -1.344115576127    -0.643557722351
    H            4.967210470450     0.009337409238     0.171322597652
    H            4.109428414307    -1.229013050199     1.098214131673

  Mulliken Charges: (a.u.)
   Center  Symbol    Alpha    Beta     Spin     Total
       1     O     4.17076  4.17076  0.00000 -0.34153
       2     C     2.86223  2.86223  0.00000  0.27553
       3     C     3.11398  3.11398  0.00000 -0.22796
       4     C     3.15126  3.15126  0.00000 -0.30251
       5     C     3.08300  3.08300  0.00000 -0.16601
       6     H     0.44560  0.44560  0.00000  0.10881
       7     H     0.44562  0.44562  0.00000  0.10877
       8     C     3.09016  3.09016  0.00000 -0.18033
       9     H     0.44607  0.44607  0.00000  0.10785
      10     H     0.44609  0.44609  0.00000  0.10782
      11     C     3.08613  3.08613  0.00000 -0.17227
      12     H     0.45609  0.45609  0.00000  0.08782
      13     H     0.45604  0.45604  0.00000  0.08792
      14     C     3.08433  3.08433  0.00000 -0.16866
      15     H     0.45360  0.45360  0.00000  0.09280
      16     H     0.45391  0.45391  0.00000  0.09218
      17     C     3.15033  3.15033  0.00000 -0.30067
      18     H     0.45488  0.45488  0.00000  0.09025
      19     H     0.45536  0.45536  0.00000  0.08927
      20     H     0.45477  0.45477  0.00000  0.09047
      21     H     0.44873  0.44873  0.00000  0.10253
      22     H     0.45487  0.45487  0.00000  0.09026
      23     H     0.45042  0.45042  0.00000  0.09917
      24     H     0.43536  0.43536  0.00000  0.12929
      25     H     0.45040  0.45040  0.00000  0.09921

   Total alpha = 36.00000, Total beta = 36.00000, Total charge = -0.00000

*** Psi4 exiting successfully. Buy a developer a beer!
