  ==> Input File <==

--------------------------------------------------------------------------
set {
	reference rhf
	basis 6-31G*
}

set_num_threads( 4 )
memory 2 gb

molecule MOL {
0 1

H	 2.591676	 2.013956	 0.335017
O	 3.341076	 1.666752	 -0.126416
C	 3.569581	 0.339145	 0.272707
C	 2.296526	 -0.392807	 0.682954
H	 4.014582	 -0.152864	 -0.582615
H	 4.299028	 0.304448	 1.081090
C	 1.610392	 0.196299	 1.917880
H	 1.607055	 -0.382855	 -0.157223
H	 2.550466	 -1.434387	 0.872673
C	 0.366442	 -0.592717	 2.336045
H	 1.334867	 1.227545	 1.715435
H	 2.315923	 0.217373	 2.748615
C	 -0.310611	 -0.095324	 3.618441
H	 -0.354907	 -0.582199	 1.520942
H	 0.648375	 -1.634001	 2.477264
C	 -0.940683	 1.296465	 3.516404
H	 -1.085791	 -0.807401	 3.893865
H	 0.411638	 -0.105492	 4.433358
C	 -1.693803	 1.704292	 4.784443
H	 -1.625606	 1.319294	 2.669958
H	 -0.174733	 2.039748	 3.308671
C	 -2.318285	 3.095807	 4.687624
H	 -2.472460	 0.973294	 4.991381
H	 -1.013370	 1.672671	 5.632910
H	 -3.028881	 3.150441	 3.867690
H	 -2.846178	 3.354855	 5.600235
H	 -1.560203	 3.855246	 4.517540

	symmetry c1
}
set optking {
	frozen_dihedral = ("
		4 3 2 1
	")
}

ee = optimize('scf')
oeprop('DIPOLE', 'QUADRUPOLE', 'MULLIKEN_CHARGES')
f=open( 'psi4out.xyz', 'w' )
f.write( "27  " )
f.write( str(ee) + "\n" )
f.write( MOL.save_string_xyz() )
f.close()
--------------------------------------------------------------------------

    Molecular point group: c1
  Charge       = 0
  Multiplicity = 1
  Basis Set: 6-31G*
  Basis Set:
  @DF-RHF Final Energy:  -388.27943776744951
    Total Energy =                       -388.2794377674497355
    Molecular point group: c1
  Basis Set: 6-31G*
  Basis Set:
  Basis Set: 6-31G*
  Basis Set:
  @DF-RHF Final Energy:  -388.27950243071501
    Total Energy =                       -388.2795024307150697
  Basis Set: 6-31G*
  Basis Set:
  Basis Set: 6-31G*
  Basis Set:
  @DF-RHF Final Energy:  -388.27968832986028
    Total Energy =                       -388.2796883298599369
  Basis Set: 6-31G*
  Basis Set:
  Basis Set: 6-31G*
  Basis Set:
  @DF-RHF Final Energy:  -388.27969953841716
    Total Energy =                       -388.2796995384175034
  Basis Set: 6-31G*
  Basis Set:
  Basis Set: 6-31G*
  Basis Set:
  @DF-RHF Final Energy:  -388.27970054368410
    Total Energy =                       -388.2797005436835889
  Basis Set: 6-31G*
  Basis Set:
  Basis Set: 6-31G*
  Basis Set:
  @DF-RHF Final Energy:  -388.27970375513860
    Total Energy =                       -388.2797037551381436
  Basis Set: 6-31G*
  Basis Set:
  Charge       = 0
  Multiplicity = 1
  Basis Set: 6-31G*
  Basis Set:

    Orbital Energies (a.u.)
    -----------------------

    Doubly Occupied:

       1A    -20.548881     2A    -11.266042     3A    -11.225524
       4A    -11.222071     5A    -11.221054     6A    -11.218256
       7A    -11.217705     8A    -11.216644     9A    -11.210651
      10A     -1.356508    11A     -1.098651    12A     -1.064504
      13A     -1.013722    14A     -0.950376    15A     -0.890732
      16A     -0.824613    17A     -0.805892    18A     -0.781675
      19A     -0.675010    20A     -0.657340    21A     -0.645945
      22A     -0.618263    23A     -0.607922    24A     -0.584934
      25A     -0.578914    26A     -0.561595    27A     -0.541165
      28A     -0.531126    29A     -0.507691    30A     -0.496635
      31A     -0.488917    32A     -0.479352    33A     -0.468987
      34A     -0.463308    35A     -0.451038    36A     -0.438459
      37A     -0.428456

  @DF-RHF Final Energy:  -388.27970401173542

   => Energetics <=

    Nuclear Repulsion Energy =            459.4555983494896623
    One-Electron Energy =               -1436.7534787987153777
    Two-Electron Energy =                 589.0181764374899558
    DFT Exchange-Correlation Energy =       0.0000000000000000
    Empirical Dispersion Energy =           0.0000000000000000
    PCM Polarization Energy =               0.0000000000000000
    EFP Energy =                            0.0000000000000000
    Total Energy =                       -388.2797040117357028
    Molecular point group: c1
  Basis Set: 6-31G*
  Basis Set:

  -Total Gradient:
     Atom            X                  Y                   Z
    ------   -----------------  -----------------  -----------------
       1       -0.001253093065    -0.000772302414    -0.001595525283
       2        0.001619626322     0.001200025960     0.002560430706
       3       -0.000505408446    -0.000907299479    -0.002279186668
       4        0.000146106690     0.000466153638     0.001301803698
       5        0.000014364953    -0.000013988541     0.000002203402
       6       -0.000012058454     0.000019215912    -0.000004485486
       7       -0.000012587177    -0.000000569190     0.000014017336
       8        0.000010169915     0.000002549321    -0.000001796354
       9       -0.000007129140    -0.000003923033    -0.000002758107
      10        0.000004202158     0.000003891783     0.000011536590
      11       -0.000013687386     0.000014508121     0.000018971189
      12       -0.000001811382    -0.000005956596    -0.000005281930
      13       -0.000016426699     0.000001325305    -0.000015076569
      14        0.000001105290    -0.000001644204     0.000000645414
      15        0.000002492872    -0.000001014078     0.000008513127
      16       -0.000004090454    -0.000004782476    -0.000008283732
      17        0.000005662476    -0.000007565747     0.000004535431
      18        0.000006568559     0.000004986807    -0.000009717032
      19       -0.000002339388    -0.000002419298     0.000001150383
      20        0.000005672406     0.000002456157    -0.000004260749
      21        0.000009301613     0.000005104307     0.000001468618
      22        0.000001268637     0.000000537284    -0.000000254634
      23        0.000001666363     0.000000103017    -0.000000735111
      24        0.000000214480     0.000001073176     0.000002210832
      25       -0.000000001823    -0.000000551257    -0.000000015290
      26        0.000000632295    -0.000000326818     0.000000005736
      27       -0.000000421621     0.000000412342    -0.000000115508

  **** Optimization is complete! (in 7 steps) ****
    Final optimized geometry and variables:
    Molecular point group: c1

    Geometry (in Angstrom), charge = 0, multiplicity = 1:

    H            1.911591513683     1.191049084183    -2.153994175976
    O            2.670534571030     0.810721359686    -2.569796622900
    C            2.882561855730    -0.495668039261    -2.096907821712
    C            1.605859633771    -1.219553139407    -1.681269701892
    H            3.365365091504    -1.035780224135    -2.901910057991
    H            3.576518013481    -0.474416066198    -1.257917780311
    C            0.916319244024    -0.628157910635    -0.447088036507
    H            0.916431720013    -1.226705752334    -2.523028193394
    H            1.860541322846    -2.257521124590    -1.478884728327
    C           -0.332177455106    -1.415436547166    -0.038888379274
    H            0.641409797689     0.407928766294    -0.631905864985
    H            1.620722191071    -0.612338921094     0.382845755024
    C           -1.010114551508    -0.925538814071     1.245871209569
    H           -1.051860883414    -1.396960979334    -0.855453040816
    H           -0.053624129476    -2.458495855484     0.095027572592
    C           -1.635593932729     0.469032515795     1.153805626058
    H           -1.787880688936    -1.637552364681     1.513653371632
    H           -0.289487380556    -0.944475331210     2.061834040565
    C           -2.393985087486     0.866661164549     2.421965869838
    H           -2.316407998953     0.502068313843     0.304214667449
    H           -0.866310577785     1.212207747013     0.958085477549
    C           -3.014135024477     2.260738512219     2.335312396321
    H           -3.175546191231     0.135752808532     2.617829096656
    H           -1.717742181077     0.825095589722     3.273249602380
    H           -3.720620981608     2.325191535174     1.512520049467
    H           -3.545861496305     2.512252930860     3.247731538136
    H           -2.253143342932     3.019667486147     2.176552074523

  Mulliken Charges: (a.u.)
   Center  Symbol    Alpha    Beta     Spin     Total
       1     H     0.27804  0.27804  0.00000  0.44392
       2     O     4.37778  4.37778  0.00000 -0.75555
       3     C     2.98044  2.98044  0.00000  0.03913
       4     C     3.18004  3.18004  0.00000 -0.36009
       5     H     0.41772  0.41772  0.00000  0.16455
       6     H     0.43116  0.43116  0.00000  0.13768
       7     C     3.16001  3.16001  0.00000 -0.32002
       8     H     0.41597  0.41597  0.00000  0.16806
       9     H     0.41905  0.41905  0.00000  0.16189
      10     C     3.15236  3.15236  0.00000 -0.30472
      11     H     0.42912  0.42912  0.00000  0.14175
      12     H     0.41946  0.41946  0.00000  0.16109
      13     C     3.15367  3.15367  0.00000 -0.30734
      14     H     0.42212  0.42212  0.00000  0.15576
      15     H     0.42044  0.42044  0.00000  0.15912
      16     C     3.15306  3.15306  0.00000 -0.30612
      17     H     0.42065  0.42065  0.00000  0.15870
      18     H     0.42314  0.42314  0.00000  0.15372
      19     C     3.15128  3.15128  0.00000 -0.30256
      20     H     0.42420  0.42420  0.00000  0.15161
      21     H     0.42326  0.42326  0.00000  0.15347
      22     C     3.23936  3.23936  0.00000 -0.47872
      23     H     0.42268  0.42268  0.00000  0.15464
      24     H     0.42267  0.42267  0.00000  0.15466
      25     H     0.42165  0.42165  0.00000  0.15671
      26     H     0.41881  0.41881  0.00000  0.16238
      27     H     0.42187  0.42187  0.00000  0.15626

   Total alpha = 37.00000, Total beta = 37.00000, Total charge =  0.00000
