                              Psi4 1.0.54 Driver

  ==> Input File <==

--------------------------------------------------------------------------
set {
	reference rhf
	basis cc-pvtz
}

set_num_threads( 4 )
memory 2 gb

molecule MOL {
0 1

H	 -2.044579	 -0.883726	 0.435910
O	 -1.432053	 -0.565244	 -0.200812
C	 -0.727158	 0.534527	 0.310686
C	 0.680222	 0.664433	 -0.252229
H	 -1.306802	 1.408001	 0.044211
H	 -0.690821	 0.490158	 1.397609
C	 1.605391	 -0.489360	 0.123098
H	 0.615089	 0.745647	 -1.332226
H	 1.101414	 1.597893	 0.110950
H	 1.247627	 -1.432485	 -0.275204
H	 2.601435	 -0.332816	 -0.273062
H	 1.691776	 -0.589902	 1.200774

	symmetry c1
}
set optking {
	frozen_dihedral = ("
		1 2 3 4
	")
}

ee,wfn = optimize('scf', return_wfn=True)
oeprop( wfn, 'DIPOLE', 'QUADRUPOLE', 'MULLIKEN_CHARGES')
f=open( 'psi4out.xyz', 'w' )
f.write( "12  " )
f.write( str(ee) + "\n" )
f.write( MOL.save_string_xyz() )
f.close()
--------------------------------------------------------------------------

    Molecular point group: c1
  Charge       = 0
  Multiplicity = 1
  Basis Set: CC-PVTZ
  Basis Set:
  @DF-RHF Final Energy:  -193.18922465601989
    Total Energy =                       -193.1892246560197748
    Molecular point group: c1
  Basis Set: CC-PVTZ
  Basis Set:
  Basis Set: CC-PVTZ
  Basis Set:
  @DF-RHF Final Energy:  -193.03116988856323
    Total Energy =                       -193.0311698885632268
  Basis Set: CC-PVTZ
  Basis Set:
  Basis Set: CC-PVTZ
  Basis Set:
  @DF-RHF Final Energy:  -193.13858169240928
    Total Energy =                       -193.1385816924092182
  Basis Set: CC-PVTZ
  Basis Set:
  Basis Set: CC-PVTZ
  Basis Set:
  @DF-RHF Final Energy:  -193.18758362330124
    Total Energy =                       -193.1875836233014354
  Basis Set: CC-PVTZ
  Basis Set:
  @DF-RHF Final Energy:  -193.18960791603922
    Total Energy =                       -193.1896079160391935
  Basis Set: CC-PVTZ
  Basis Set:
  @DF-RHF Final Energy:  -193.19051711154762
    Total Energy =                       -193.1905171115475355
  Basis Set: CC-PVTZ
  Basis Set:
  Basis Set: CC-PVTZ
  Basis Set:
  @DF-RHF Final Energy:  -193.19062974274215
    Total Energy =                       -193.1906297427422032
  Basis Set: CC-PVTZ
  Basis Set:
  Basis Set: CC-PVTZ
  Basis Set:
  @DF-RHF Final Energy:  -193.19063515159382
    Total Energy =                       -193.1906351515936819
  Basis Set: CC-PVTZ
  Basis Set:
  Charge       = 0
  Multiplicity = 1
  Basis Set: CC-PVTZ
  Basis Set:

    Orbital Energies (a.u.)
    -----------------------

    Doubly Occupied:

       1A    -20.546041     2A    -11.266425     3A    -11.212952
       4A    -11.202785     5A     -1.363838     6A     -1.048406
       7A     -0.920504     8A     -0.799450     9A     -0.708987
      10A     -0.641854    11A     -0.591236    12A     -0.583341
      13A     -0.529875    14A     -0.504095    15A     -0.485559
      16A     -0.466407    17A     -0.434859

  @DF-RHF Final Energy:  -193.19063610295359

   => Energetics <=

    Nuclear Repulsion Energy =            133.3399572114830676
    One-Electron Energy =                -526.4479570133983088
    Two-Electron Energy =                 199.9173636989614806
    DFT Exchange-Correlation Energy =       0.0000000000000000
    Empirical Dispersion Energy =           0.0000000000000000
    PCM Polarization Energy =               0.0000000000000000
    EFP Energy =                            0.0000000000000000
    Total Energy =                       -193.1906361029537607
    Molecular point group: c1
  Basis Set: CC-PVTZ
  Basis Set:

  -Total Gradient:
     Atom            X                  Y                   Z
    ------   -----------------  -----------------  -----------------
       1        0.000606351676    -0.001202959423     0.000376771249
       2       -0.000688664927     0.001262200099    -0.000190432601
       3       -0.000128925081     0.000481708955    -0.000853855023
       4        0.000262591471    -0.000530758113     0.000620874206
       5       -0.000010011735    -0.000010696963     0.000001569298
       6       -0.000018391678    -0.000008787446    -0.000004636117
       7        0.000014173635     0.000008973647     0.000024170954
       8       -0.000029520217     0.000056152211     0.000000164297
       9       -0.000005139553    -0.000041148250    -0.000003470408
      10        0.000019322670     0.000019425575    -0.000003663495
      11       -0.000039828064     0.000005020727     0.000020932412
      12        0.000018041804    -0.000039131020     0.000011575227

  **** Optimization is complete! (in 9 steps) ****
    Final optimized geometry and variables:
    Molecular point group: c1

    Geometry (in Angstrom), charge = 0, multiplicity = 1:

    H           -1.975975818763     0.117245579007     1.016764982351
    O           -1.479711803249     0.127530262818     0.220651361983
    C           -0.272957221311     0.824931080305     0.401922010557
    C            0.787226394664     0.253707844590    -0.520767186114
    H           -0.420807898860     1.879406143964     0.186287736554
    H            0.060533836652     0.745212602430     1.433991889338
    C            1.161471093614    -1.188728508029    -0.199359698790
    H            0.424641570474     0.321967856983    -1.541451460887
    H            1.666955575236     0.887793134222    -0.457136015401
    H            0.296833509728    -1.835566469236    -0.265709964798
    H            1.911392548024    -1.556692936347    -0.889835099211
    H            1.567774518323    -1.272545922117     0.804001619804

  Mulliken Charges: (a.u.)
   Center  Symbol    Alpha    Beta     Spin     Total
       1     H     0.39286  0.39286  0.00000  0.21427
       2     O     4.20334  4.20334  0.00000 -0.40668
       3     C     2.97159  2.97159  0.00000  0.05682
       4     C     3.08005  3.08005  0.00000 -0.16010
       5     H     0.46353  0.46353  0.00000  0.07293
       6     H     0.47405  0.47405  0.00000  0.05190
       7     C     3.15169  3.15169  0.00000 -0.30338
       8     H     0.45208  0.45208  0.00000  0.09583
       9     H     0.45548  0.45548  0.00000  0.08903
      10     H     0.44594  0.44594  0.00000  0.10811
      11     H     0.44987  0.44987  0.00000  0.10026
      12     H     0.45950  0.45950  0.00000  0.08100

   Total alpha = 17.00000, Total beta = 17.00000, Total charge = -0.00000

*** Psi4 exiting successfully. Buy a developer a beer!
