  ==> Input File <==

--------------------------------------------------------------------------
set {
	reference rhf
	basis 6-31G*
}

set_num_threads( 4 )
memory 2 gb

molecule MOL {
0 1

O	 -1.487788	 1.240889	 -0.102860
C	 -1.083277	 0.139568	 0.115197
C	 0.323299	 -0.082943	 0.642902
C	 -1.933017	 -1.084621	 -0.143902
C	 1.355627	 -0.005344	 -0.493127
H	 0.396251	 -1.044647	 1.143147
H	 0.528637	 0.693580	 1.371677
C	 2.028116	 1.363715	 -0.574868
H	 2.114359	 -0.772086	 -0.352752
H	 0.855909	 -0.228812	 -1.429868
H	 2.747122	 1.394919	 -1.387118
H	 2.556031	 1.599088	 0.344768
H	 1.297268	 2.147859	 -0.748150
H	 -1.393885	 -1.806447	 -0.750509
H	 -2.850323	 -0.799888	 -0.640100
H	 -2.169004	 -1.571158	 0.798858

	symmetry c1
}
set optking {
	frozen_dihedral = ("
		9 5 3 2
	")
}

ee = optimize('scf')
oeprop('DIPOLE', 'QUADRUPOLE', 'MULLIKEN_CHARGES')
f=open( 'psi4out.xyz', 'w' )
f.write( "16  " )
f.write( str(ee) + "\n" )
f.write( MOL.save_string_xyz() )
f.close()
--------------------------------------------------------------------------

    Molecular point group: c1
  Charge       = 0
  Multiplicity = 1
  Basis Set: 6-31G*
  Basis Set:
  @DF-RHF Final Energy:  -270.02613650973524
    Total Energy =                       -270.0261365097351245
    Molecular point group: c1
  Basis Set: 6-31G*
  Basis Set:
  Basis Set: 6-31G*
  Basis Set:
  @DF-RHF Final Energy:  -270.02640887559494
    Total Energy =                       -270.0264088755949956
  Basis Set: 6-31G*
  Basis Set:
  Basis Set: 6-31G*
  Basis Set:
  @DF-RHF Final Energy:  -270.02425581723162
    Total Energy =                       -270.0242558172316194
  Basis Set: 6-31G*
  Basis Set:
  Basis Set: 6-31G*
  Basis Set:
  @DF-RHF Final Energy:  -270.02665770861483
    Total Energy =                       -270.0266577086147208
  Basis Set: 6-31G*
  Basis Set:
  @DF-RHF Final Energy:  -270.02670263700571
    Total Energy =                       -270.0267026370057124
  Basis Set: 6-31G*
  Basis Set:
  @DF-RHF Final Energy:  -270.02672027393078
    Total Energy =                       -270.0267202739307777
  Basis Set: 6-31G*
  Basis Set:
  Basis Set: 6-31G*
  Basis Set:
  @DF-RHF Final Energy:  -270.02672977453244
    Total Energy =                       -270.0267297745323845
  Basis Set: 6-31G*
  Basis Set:
  Basis Set: 6-31G*
  Basis Set:
  @DF-RHF Final Energy:  -270.02673590361076
    Total Energy =                       -270.0267359036108701
  Basis Set: 6-31G*
  Basis Set:
  Charge       = 0
  Multiplicity = 1
  Basis Set: 6-31G*
  Basis Set:

    Orbital Energies (a.u.)
    -----------------------

    Doubly Occupied:

       1A    -20.548142     2A    -11.325118     3A    -11.234773
       4A    -11.229848     5A    -11.228722     6A    -11.213918
       7A     -1.393457     8A     -1.080655     9A     -1.012090
      10A     -0.947081    11A     -0.830876    12A     -0.734911
      13A     -0.657428    14A     -0.643567    15A     -0.617202
      16A     -0.593043    17A     -0.584188    18A     -0.558944
      19A     -0.543223    20A     -0.509988    21A     -0.493764
      22A     -0.487584    23A     -0.471788    24A     -0.397318

  @DF-RHF Final Energy:  -270.02673631237178

   => Energetics <=

    Nuclear Repulsion Energy =            239.8182982944370565
    One-Electron Energy =                -841.0148123959987743
    Two-Electron Energy =                 331.1697777891896521
    DFT Exchange-Correlation Energy =       0.0000000000000000
    Empirical Dispersion Energy =           0.0000000000000000
    PCM Polarization Energy =               0.0000000000000000
    EFP Energy =                            0.0000000000000000
    Total Energy =                       -270.0267363123720088
    Molecular point group: c1
  Basis Set: 6-31G*
  Basis Set:

  -Total Gradient:
     Atom            X                  Y                   Z
    ------   -----------------  -----------------  -----------------
       1        0.000020404689    -0.000031114689    -0.000006542164
       2       -0.000321064658    -0.002802297715    -0.000337694818
       3       -0.000126356864     0.003230847831     0.000069303350
       4       -0.000014175868    -0.000017061024     0.000004006708
       5        0.002665725690     0.002172227337     0.002337297749
       6       -0.000009676575     0.000011006746    -0.000015125887
       7        0.000016255429    -0.000001084429    -0.000010213873
       8       -0.000000356371     0.000000948611     0.000006737908
       9       -0.002231888685    -0.002579087218    -0.002040322340
      10        0.000001681169     0.000007248702     0.000017243982
      11        0.000002066034     0.000008023204    -0.000000983997
      12       -0.000001412124    -0.000003942152     0.000000251037
      13       -0.000001662873     0.000002582615    -0.000004311111
      14       -0.000001119265     0.000001009130    -0.000004731735
      15       -0.000004661525    -0.000003514791    -0.000008705677
      16        0.000006241799     0.000004207837    -0.000006209133

  **** Optimization is complete! (in 9 steps) ****
    Final optimized geometry and variables:
    Molecular point group: c1

    Geometry (in Angstrom), charge = 0, multiplicity = 1:

    O           -1.407004492988     0.984608417963     0.154610345524
    C           -0.947344810153    -0.112713704539     0.253366665792
    C            0.461305567981    -0.337598184348     0.769423833001
    C           -1.735206909759    -1.339745185017    -0.152848828836
    C            1.487085979797    -0.308263720238    -0.391712801077
    H            0.507573254694    -1.295126372283     1.279121916172
    H            0.687155165365     0.436865744219     1.492338793106
    C            2.142522173505     1.058785770344    -0.571137874317
    H            2.233676534463    -1.079886819473    -0.234302325390
    H            0.991555070337    -0.584247516595    -1.320217372914
    H            2.814029219556     1.060040573507    -1.423936116694
    H            2.718460719420     1.332304052323     0.307825121788
    H            1.392226770025     1.826009899297    -0.729990348807
    H           -1.141942838472    -1.998442550214    -0.779408305276
    H           -2.634249396532    -1.044372849809    -0.675599141618
    H           -2.007427232088    -1.902028827722     0.736641009128

  Mulliken Charges: (a.u.)
   Center  Symbol    Alpha    Beta     Spin     Total
       1     O     4.26108  4.26108  0.00000 -0.52217
       2     C     2.73990  2.73990  0.00000  0.52019
       3     C     3.20309  3.20309  0.00000 -0.40618
       4     C     3.28929  3.28929  0.00000 -0.57858
       5     C     3.16193  3.16193  0.00000 -0.32386
       6     H     0.41420  0.41420  0.00000  0.17161
       7     H     0.39907  0.39907  0.00000  0.20186
       8     C     3.24135  3.24135  0.00000 -0.48269
       9     H     0.41434  0.41434  0.00000  0.17132
      10     H     0.41766  0.41766  0.00000  0.16469
      11     H     0.41852  0.41852  0.00000  0.16297
      12     H     0.41990  0.41990  0.00000  0.16021
      13     H     0.40669  0.40669  0.00000  0.18661
      14     H     0.40994  0.40994  0.00000  0.18013
      15     H     0.39685  0.39685  0.00000  0.20629
      16     H     0.40619  0.40619  0.00000  0.18761

   Total alpha = 24.00000, Total beta = 24.00000, Total charge =  0.00000
