  ==> Input File <==

--------------------------------------------------------------------------
set {
	reference rhf
	basis 6-31G*
}

set_num_threads( 4 )
memory 2 gb

molecule MOL {
0 1

O	 1.386848	 2.097206	 0.222745
C	 0.344197	 2.485797	 0.641069
C	 -0.951655	 1.712232	 0.625861
O	 0.183721	 3.681498	 1.193955
C	 -0.823008	 0.326187	 0.001381
H	 -1.305103	 1.650732	 1.651535
H	 -1.683999	 2.316014	 0.096863
C	 -2.149452	 -0.435131	 -0.000098
H	 -0.072393	 -0.241430	 0.542284
H	 -0.452785	 0.424506	 -1.014285
C	 -3.368779	 0.488503	 -0.000883
H	 -2.193746	 -1.087250	 -0.871175
H	 -2.195311	 -1.087803	 0.870418
C	 -4.693822	 -0.272754	 -0.001129
H	 -3.325798	 1.139422	 -0.871284
H	 -3.326423	 1.139959	 0.869145
H	 -4.781274	 -0.907928	 -0.878124
H	 -5.538651	 0.408946	 -0.001420
H	 -4.781694	 -0.907783	 0.875984
C	 1.327952	 4.511837	 1.272864
H	 2.099245	 4.040743	 1.865068
H	 0.998557	 5.424122	 1.745211
H	 1.715383	 4.719889	 0.285890

	symmetry c1
}
set optking {
	frozen_dihedral = ("
		9 5 8 12
	")
}

ee = optimize('scf')
oeprop('DIPOLE', 'QUADRUPOLE', 'MULLIKEN_CHARGES')
f=open( 'psi4out.xyz', 'w' )
f.write( "23  " )
f.write( str(ee) + "\n" )
f.write( MOL.save_string_xyz() )
f.close()
--------------------------------------------------------------------------

    Molecular point group: c1
  Charge       = 0
  Multiplicity = 1
  Basis Set: 6-31G*
  Basis Set:
  @DF-RHF Final Energy:  -422.96627021320705
    Total Energy =                       -422.9662702132065988
    Molecular point group: c1
  Basis Set: 6-31G*
  Basis Set:
  Basis Set: 6-31G*
  Basis Set:
  @DF-RHF Final Energy:  -422.96674477614539
    Total Energy =                       -422.9667447761453332
  Basis Set: 6-31G*
  Basis Set:
  Basis Set: 6-31G*
  Basis Set:
  @DF-RHF Final Energy:  -422.96934251457589
    Total Energy =                       -422.9693425145760557
  Basis Set: 6-31G*
  Basis Set:
  Basis Set: 6-31G*
  Basis Set:
  @DF-RHF Final Energy:  -422.96947548771203
    Total Energy =                       -422.9694754877118612
  Basis Set: 6-31G*
  Basis Set:
  Basis Set: 6-31G*
  Basis Set:
  @DF-RHF Final Energy:  -422.96967020488262
    Total Energy =                       -422.9696702048829593
  Basis Set: 6-31G*
  Basis Set:
  Basis Set: 6-31G*
  Basis Set:
  @DF-RHF Final Energy:  -422.96971050935946
    Total Energy =                       -422.9697105093594018
  Basis Set: 6-31G*
  Basis Set:
  Charge       = 0
  Multiplicity = 1
  Basis Set: 6-31G*
  Basis Set:

    Orbital Energies (a.u.)
    -----------------------

    Doubly Occupied:

       1A    -20.603250     2A    -20.545197     3A    -11.371828
       4A    -11.280614     5A    -11.234599     6A    -11.219723
       7A    -11.219146     8A    -11.218129     9A    -11.211190
      10A     -1.469010    11A     -1.362443    12A     -1.092052
      13A     -1.041492    14A     -0.986327    15A     -0.932546
      16A     -0.853029    17A     -0.792049    18A     -0.759518
      19A     -0.699361    20A     -0.683232    21A     -0.670806
      22A     -0.648800    23A     -0.611789    24A     -0.600874
      25A     -0.576922    26A     -0.560207    27A     -0.550106
      28A     -0.526093    29A     -0.521077    30A     -0.511268
      31A     -0.494990    32A     -0.466261    33A     -0.461028
      34A     -0.456185    35A     -0.452119    36A     -0.437434

  @DF-RHF Final Energy:  -422.96970981904462

   => Energetics <=

    Nuclear Repulsion Energy =            458.5508463827712831
    One-Electron Energy =               -1484.7997338621462404
    Two-Electron Energy =                 603.2791776603303333
    DFT Exchange-Correlation Energy =       0.0000000000000000
    Empirical Dispersion Energy =           0.0000000000000000
    PCM Polarization Energy =               0.0000000000000000
    EFP Energy =                            0.0000000000000000
    Total Energy =                       -422.9697098190445104
    Molecular point group: c1
  Basis Set: 6-31G*
  Basis Set:

  -Total Gradient:
     Atom            X                  Y                   Z
    ------   -----------------  -----------------  -----------------
       1        0.000053250103    -0.000045205679     0.000113694848
       2       -0.000093461685     0.000117293970    -0.000331222598
       3        0.000062111160     0.000086789577     0.000160193460
       4       -0.000005066139    -0.000110446864     0.000099812177
       5        0.001349289552    -0.002787115293    -0.007295877658
       6        0.000025235447     0.000021411318    -0.000029283765
       7       -0.000018526861     0.000051402692    -0.000008796625
       8        0.003156497538    -0.004753334842     0.005183961833
       9       -0.001663007151     0.002939139703     0.005354667062
      10       -0.000017876184    -0.000019059319    -0.000021036199
      11       -0.000124558427     0.000094238119     0.000248042589
      12       -0.002811003368     0.004453987006    -0.003392924903
      13        0.000019454853     0.000040375991     0.000040569039
      14        0.000072196676    -0.000043414696    -0.000075732121
      15        0.000035981551     0.000011924771     0.000015064510
      16       -0.000071379489    -0.000029291755    -0.000030064395
      17       -0.000016846574    -0.000058862121    -0.000003094907
      18        0.000057470912     0.000023126261    -0.000031878176
      19       -0.000016004037     0.000009110535     0.000010052991
      20       -0.000000997213    -0.000007517125    -0.000001388645
      21       -0.000001393269    -0.000000029789    -0.000002159461
      22        0.000004710986     0.000002644272    -0.000002073340
      23        0.000003921620     0.000002833264    -0.000000525719

  **** Optimization is complete! (in 7 steps) ****
    Final optimized geometry and variables:
    Molecular point group: c1

    Geometry (in Angstrom), charge = 0, multiplicity = 1:

    O            2.346488098874     0.423798832136    -0.241103366595
    C            1.330231223607     0.859540930296     0.195497902797
    C           -0.005205280729     0.154827167650     0.193842476449
    O            1.237880795336     2.057798650580     0.758961752495
    C            0.060869592653    -1.233092361761    -0.447752858801
    H           -0.338597822655     0.099751504973     1.226485897625
    H           -0.708238361322     0.809121336964    -0.310298591034
    C           -1.255596603171    -2.037993902051    -0.391150850464
    H            0.826845216354    -1.779823368522     0.090342384196
    H            0.398331262321    -1.129854026743    -1.472260521207
    C           -2.553857018117    -1.221878755473    -0.451167938764
    H           -1.275701878293    -2.701772260231    -1.251636490757
    H           -1.272502154965    -2.659260358182     0.500174427350
    C           -3.791729108368    -2.116302188803    -0.517513082938
    H           -2.536382920090    -0.571994576998    -1.323910598125
    H           -2.635780878897    -0.571463869041     0.415007351805
    H           -3.770257087033    -2.753401417785    -1.397081260528
    H           -4.701219672834    -1.525118969887    -0.559174060117
    H           -3.856074504415    -2.761078719976     0.354560129054
    C            2.423402144017     2.828983351059     0.826855691752
    H            3.178309649200     2.315580144812     1.404845188883
    H            2.147035233267     3.753276111106     1.309884660587
    H            2.807024135740     3.024570664829    -0.164163442786

  Mulliken Charges: (a.u.)
   Center  Symbol    Alpha    Beta     Spin     Total
       1     O     4.28605  4.28605  0.00000 -0.57210
       2     C     2.60454  2.60454  0.00000  0.79093
       3     C     3.21249  3.21249  0.00000 -0.42498
       4     O     4.30748  4.30748  0.00000 -0.61497
       5     C     3.15456  3.15456  0.00000 -0.30911
       6     H     0.40098  0.40098  0.00000  0.19803
       7     H     0.39865  0.39865  0.00000  0.20270
       8     C     3.15452  3.15452  0.00000 -0.30904
       9     H     0.40904  0.40904  0.00000  0.18192
      10     H     0.41066  0.41066  0.00000  0.17868
      11     C     3.15787  3.15787  0.00000 -0.31573
      12     H     0.41894  0.41894  0.00000  0.16211
      13     H     0.42060  0.42060  0.00000  0.15881
      14     C     3.23885  3.23885  0.00000 -0.47771
      15     H     0.42282  0.42282  0.00000  0.15435
      16     H     0.42178  0.42178  0.00000  0.15644
      17     H     0.42103  0.42103  0.00000  0.15794
      18     H     0.41866  0.41866  0.00000  0.16267
      19     H     0.42130  0.42130  0.00000  0.15740
      20     C     3.09235  3.09235  0.00000 -0.18469
      21     H     0.40916  0.40916  0.00000  0.18168
      22     H     0.40852  0.40852  0.00000  0.18296
      23     H     0.40915  0.40915  0.00000  0.18170

   Total alpha = 36.00000, Total beta = 36.00000, Total charge = -0.00000
