  ==> Input File <==

--------------------------------------------------------------------------
set {
	reference rhf
	basis 6-31G*
}

set_num_threads( 4 )
memory 2 gb

molecule MOL {
0 1

H	 2.591676	 2.013956	 0.335017
O	 3.341076	 1.666752	 -0.126416
C	 3.569581	 0.339145	 0.272707
C	 4.832976	 0.172072	 1.109755
H	 2.703880	 0.054254	 0.856722
H	 3.604898	 -0.318854	 -0.594801
C	 6.125044	 0.504896	 0.359651
H	 4.749196	 0.803606	 1.990386
H	 4.873512	 -0.857804	 1.460583
C	 7.378024	 0.275417	 1.209474
H	 6.092184	 1.540895	 0.034086
H	 6.188011	 -0.105286	 -0.541489
C	 8.704410	 0.512220	 0.478060
H	 7.334400	 0.912618	 2.090904
H	 7.364984	 -0.749006	 1.575654
C	 8.963749	 1.964399	 0.067698
H	 9.515013	 0.185044	 1.125899
H	 8.747228	 -0.125038	 -0.403930
C	 10.342914	 2.168423	 -0.562948
H	 8.871234	 2.606625	 0.942396
H	 8.203651	 2.296054	 -0.635551
C	 10.601850	 3.615914	 -0.979345
H	 11.110513	 1.852791	 0.140370
H	 10.440830	 1.520359	 -1.431459
H	 10.543244	 4.285787	 -0.126080
H	 11.587335	 3.728392	 -1.420708
H	 9.871916	 3.950328	 -1.711279

	symmetry c1
}
set optking {
	frozen_dihedral = ("
		4 3 2 1
	")
}

ee = optimize('scf')
oeprop('DIPOLE', 'QUADRUPOLE', 'MULLIKEN_CHARGES')
f=open( 'psi4out.xyz', 'w' )
f.write( "27  " )
f.write( str(ee) + "\n" )
f.write( MOL.save_string_xyz() )
f.close()
--------------------------------------------------------------------------

    Molecular point group: c1
  Charge       = 0
  Multiplicity = 1
  Basis Set: 6-31G*
  Basis Set:
  @DF-RHF Final Energy:  -388.27890126012591
    Total Energy =                       -388.2789012601256218
    Molecular point group: c1
  Basis Set: 6-31G*
  Basis Set:
  Basis Set: 6-31G*
  Basis Set:
  @DF-RHF Final Energy:  -388.28009993124641
    Total Energy =                       -388.2800999312469230
  Basis Set: 6-31G*
  Basis Set:
  Basis Set: 6-31G*
  Basis Set:
  @DF-RHF Final Energy:  -388.28050808894750
    Total Energy =                       -388.2805080889480678
  Basis Set: 6-31G*
  Basis Set:
  Basis Set: 6-31G*
  Basis Set:
  @DF-RHF Final Energy:  -388.28051192661383
    Total Energy =                       -388.2805119266132579
  Basis Set: 6-31G*
  Basis Set:
  Basis Set: 6-31G*
  Basis Set:
  @DF-RHF Final Energy:  -388.28050793911518
    Total Energy =                       -388.2805079391154095
  Basis Set: 6-31G*
  Basis Set:
  Basis Set: 6-31G*
  Basis Set:
  @DF-RHF Final Energy:  -388.28052017482656
    Total Energy =                       -388.2805201748262789
  Basis Set: 6-31G*
  Basis Set:
  Charge       = 0
  Multiplicity = 1
  Basis Set: 6-31G*
  Basis Set:

    Orbital Energies (a.u.)
    -----------------------

    Doubly Occupied:

       1A    -20.551945     2A    -11.268263     3A    -11.211919
       4A    -11.210428     5A    -11.209356     6A    -11.208650
       7A    -11.207081     8A    -11.205871     9A    -11.204385
      10A     -1.358098    11A     -1.087796    12A     -1.055811
      13A     -1.007297    14A     -0.942454    15A     -0.880017
      16A     -0.813849    17A     -0.796550    18A     -0.771410
      19A     -0.695559    20A     -0.646626    21A     -0.639307
      22A     -0.605754    23A     -0.591019    24A     -0.583812
      25A     -0.567648    26A     -0.548196    27A     -0.535476
      28A     -0.520996    29A     -0.506800    30A     -0.493036
      31A     -0.475560    32A     -0.467786    33A     -0.461210
      34A     -0.454354    35A     -0.446053    36A     -0.434354
      37A     -0.420991

  @DF-RHF Final Energy:  -388.28051984012455

   => Energetics <=

    Nuclear Repulsion Energy =            459.8252789093780279
    One-Electron Energy =               -1438.0401620419615938
    Two-Electron Energy =                 589.9343632924590111
    DFT Exchange-Correlation Energy =       0.0000000000000000
    Empirical Dispersion Energy =           0.0000000000000000
    PCM Polarization Energy =               0.0000000000000000
    EFP Energy =                            0.0000000000000000
    Total Energy =                       -388.2805198401244979
    Molecular point group: c1
  Basis Set: 6-31G*
  Basis Set:

  -Total Gradient:
     Atom            X                  Y                   Z
    ------   -----------------  -----------------  -----------------
       1       -0.000696492159    -0.000259621379    -0.000891588490
       2        0.000925146661     0.000442298552     0.000802637708
       3       -0.000674260275     0.000129190272     0.000574283681
       4        0.000391587754    -0.000127103999    -0.000545874046
       5        0.000046819723    -0.000106766306     0.000006458603
       6       -0.000034562958    -0.000026607302    -0.000009490014
       7       -0.000025468407     0.000018075487     0.000008219342
       8        0.000064982757     0.000000305947     0.000033022545
       9        0.000010150813     0.000002540436    -0.000001934204
      10       -0.000005587686    -0.000072164988     0.000010797309
      11       -0.000011779675    -0.000030877705    -0.000017683837
      12        0.000011805324     0.000021375505     0.000005918190
      13       -0.000008319642    -0.000006221018     0.000004833476
      14        0.000013361649     0.000001448581    -0.000000033926
      15        0.000000519260    -0.000002585496     0.000011695881
      16        0.000000919252     0.000003949329     0.000016363490
      17       -0.000009690257     0.000006922213     0.000009827935
      18        0.000016475907    -0.000002650829     0.000006925526
      19       -0.000006649478     0.000002594185    -0.000019297920
      20        0.000014098600     0.000001305508     0.000001209896
      21       -0.000019267120     0.000006381347     0.000000671391
      22       -0.000001301936    -0.000003133920    -0.000006904199
      23       -0.000007134492     0.000004232164     0.000001370528
      24        0.000004123626    -0.000003335286    -0.000001115064
      25       -0.000000714078    -0.000001430630     0.000001497811
      26        0.000000157000     0.000000880986    -0.000000687566
      27        0.000001079846     0.000000998347    -0.000001124043

  **** Optimization is complete! (in 7 steps) ****
    Final optimized geometry and variables:
    Molecular point group: c1

    Geometry (in Angstrom), charge = 0, multiplicity = 1:

    H           -4.307320486201     0.844447173958     0.154148417104
    O           -3.584557713887     0.446316694402    -0.305635477848
    C           -3.456590800694    -0.906246376904     0.070087754668
    C           -2.205615505692    -1.137567110363     0.907202498193
    H           -4.335834815522    -1.236358409038     0.617424774078
    H           -3.406767480381    -1.496286909578    -0.839694832200
    C           -0.912768716796    -0.789251451890     0.168389910000
    H           -2.278457212390    -0.545252886882     1.817291976296
    H           -2.185707256409    -2.182591388421     1.213541493423
    C            0.334112165049    -0.998347177346     1.031970109253
    H           -0.972843295599     0.238830389151    -0.169075918542
    H           -0.836289193515    -1.406162673431    -0.726382811050
    C            1.663227707020    -0.758175445802     0.306494694840
    H            0.280443301320    -0.349636140933     1.905026006400
    H            0.330010762552    -2.018026009155     1.412921318235
    C            1.906878953874     0.690627872870    -0.124491651597
    H            2.474271547035    -1.066380362107     0.963457078102
    H            1.717964720980    -1.407458876041    -0.565990919803
    C            3.281919943823     0.899725039914    -0.762409735254
    H            1.811322694063     1.343449677485     0.742198717011
    H            1.140608176432     1.004531529866    -0.828499394341
    C            3.525783681037     2.344437968555    -1.197286582451
    H            4.055491934533     0.599640549243    -0.058573965138
    H            3.382522318007     0.242498253877    -1.623725001974
    H            3.464749480999     3.023855413142    -0.351674847091
    H            4.508284550458     2.460962696045    -1.644551466712
    H            2.789158128331     2.663120051533    -1.929403248042

  Mulliken Charges: (a.u.)
   Center  Symbol    Alpha    Beta     Spin     Total
       1     H     0.27962  0.27962  0.00000  0.44076
       2     O     4.37191  4.37191  0.00000 -0.74382
       3     C     3.00107  3.00107  0.00000 -0.00214
       4     C     3.15668  3.15668  0.00000 -0.31336
       5     H     0.42885  0.42885  0.00000  0.14229
       6     H     0.42140  0.42140  0.00000  0.15720
       7     C     3.15742  3.15742  0.00000 -0.31484
       8     H     0.42385  0.42385  0.00000  0.15229
       9     H     0.42614  0.42614  0.00000  0.14773
      10     C     3.15289  3.15289  0.00000 -0.30578
      11     H     0.40536  0.40536  0.00000  0.18927
      12     H     0.42611  0.42611  0.00000  0.14777
      13     C     3.15274  3.15274  0.00000 -0.30548
      14     H     0.42455  0.42455  0.00000  0.15090
      15     H     0.42431  0.42431  0.00000  0.15138
      16     C     3.15290  3.15290  0.00000 -0.30580
      17     H     0.42323  0.42323  0.00000  0.15353
      18     H     0.42449  0.42449  0.00000  0.15102
      19     C     3.15098  3.15098  0.00000 -0.30197
      20     H     0.42515  0.42515  0.00000  0.14969
      21     H     0.41972  0.41972  0.00000  0.16056
      22     C     3.23903  3.23903  0.00000 -0.47806
      23     H     0.42409  0.42409  0.00000  0.15182
      24     H     0.42350  0.42350  0.00000  0.15301
      25     H     0.42228  0.42228  0.00000  0.15544
      26     H     0.42031  0.42031  0.00000  0.15938
      27     H     0.42140  0.42140  0.00000  0.15721

   Total alpha = 37.00000, Total beta = 37.00000, Total charge = -0.00000
