                              Psi4 1.0.54 Driver

  ==> Input File <==

--------------------------------------------------------------------------
set {
	reference rhf
	basis cc-pvtz
}

set_num_threads( 4 )
memory 2 gb

molecule MOL {
0 1

H	 1.252159	 -1.993370	 1.421171
C	 1.419722	 -0.912325	 1.515604
C	 0.183720	 -0.062959	 1.407561
O	 2.513148	 -0.496034	 1.685180
C	 -0.554654	 -0.292621	 0.086567
H	 0.469009	 0.974231	 1.524535
H	 -0.468294	 -0.330164	 2.236631
C	 -1.846385	 0.513195	 -0.016346
H	 0.100922	 -0.030606	 -0.738967
H	 -0.781517	 -1.349994	 -0.023743
C	 -3.089953	 -0.365049	 -0.098564
H	 -1.798267	 1.154820	 -0.891143
H	 -1.925398	 1.173265	 0.842889
H	 -3.055079	 -1.012299	 -0.968245
H	 -3.988403	 0.236438	 -0.170014
H	 -3.183055	 -0.995885	 0.779079

	symmetry c1
}
set optking {
	frozen_dihedral = ("
		9 5 8 12
	")
}

ee,wfn = optimize('scf', return_wfn=True)
oeprop( wfn, 'DIPOLE', 'QUADRUPOLE', 'MULLIKEN_CHARGES')
f=open( 'psi4out.xyz', 'w' )
f.write( "16  " )
f.write( str(ee) + "\n" )
f.write( MOL.save_string_xyz() )
f.close()
--------------------------------------------------------------------------

    Molecular point group: c1
  Charge       = 0
  Multiplicity = 1
  Basis Set: CC-PVTZ
  Basis Set:
  @DF-RHF Final Energy:  -270.11318441284072
    Total Energy =                       -270.1131844128407238
    Molecular point group: c1
  Basis Set: CC-PVTZ
  Basis Set:
  Basis Set: CC-PVTZ
  Basis Set:
  @DF-RHF Final Energy:  -270.11344061202180
    Total Energy =                       -270.1134406120216909
  Basis Set: CC-PVTZ
  Basis Set:
  Basis Set: CC-PVTZ
  Basis Set:
  @DF-RHF Final Energy:  -270.11328742258513
    Total Energy =                       -270.1132874225852447
  Basis Set: CC-PVTZ
  Basis Set:
  Basis Set: CC-PVTZ
  Basis Set:
  @DF-RHF Final Energy:  -270.11350936937902
    Total Energy =                       -270.1135093693789599
  Basis Set: CC-PVTZ
  Basis Set:
  Basis Set: CC-PVTZ
  Basis Set:
  @DF-RHF Final Energy:  -270.11351502468756
    Total Energy =                       -270.1135150246876719
  Basis Set: CC-PVTZ
  Basis Set:
  Charge       = 0
  Multiplicity = 1
  Basis Set: CC-PVTZ
  Basis Set:

    Orbital Energies (a.u.)
    -----------------------

    Doubly Occupied:

       1A    -20.552237     2A    -11.321155     3A    -11.234845
       4A    -11.234100     5A    -11.227263     6A    -11.218137
       7A     -1.406877     8A     -1.095610     9A     -1.019352
      10A     -0.907910    11A     -0.812798    12A     -0.794700
      13A     -0.681714    14A     -0.642050    15A     -0.632582
      16A     -0.613179    17A     -0.576781    18A     -0.556680
      19A     -0.532481    20A     -0.511337    21A     -0.488181
      22A     -0.484206    23A     -0.472334    24A     -0.411215

  @DF-RHF Final Energy:  -270.11351538172244

   => Energetics <=

    Nuclear Repulsion Energy =            229.9336778912620787
    One-Electron Energy =                -821.2389339521166676
    Two-Electron Energy =                 321.1917406791319536
    DFT Exchange-Correlation Energy =       0.0000000000000000
    Empirical Dispersion Energy =           0.0000000000000000
    PCM Polarization Energy =               0.0000000000000000
    EFP Energy =                            0.0000000000000000
    Total Energy =                       -270.1135153817226637
    Molecular point group: c1
  Basis Set: CC-PVTZ
  Basis Set:

  -Total Gradient:
     Atom            X                  Y                   Z
    ------   -----------------  -----------------  -----------------
       1       -0.000015817439    -0.000019619988    -0.000017892489
       2       -0.000020931690     0.000030472212     0.000017804029
       3       -0.000009200398    -0.000004866613    -0.000082142985
       4        0.000062665828     0.000017720199     0.000019226000
       5        0.000598587482     0.001060195420     0.000825341153
       6       -0.000018294905     0.000002434888     0.000025560444
       7        0.000016058278    -0.000023048139     0.000018831902
       8       -0.000603708970    -0.001003591055    -0.000849954832
       9       -0.000411689279    -0.000745795470    -0.000517024420
      10       -0.000027756594     0.000007863304    -0.000005847075
      11       -0.000008864231    -0.000030446019     0.000003343043
      12        0.000394770741     0.000702540001     0.000567500897
      13        0.000017432211    -0.000007176177    -0.000010559266
      14        0.000006541152    -0.000003893617     0.000005961146
      15        0.000018450705     0.000016526876     0.000003532107
      16        0.000001757111     0.000000684179    -0.000003679651

  **** Optimization is complete! (in 6 steps) ****
    Final optimized geometry and variables:
    Molecular point group: c1

    Geometry (in Angstrom), charge = 0, multiplicity = 1:

    H            1.477777006445    -1.726486041448     0.667143111393
    C            1.653291250083    -0.646048125460     0.754749773184
    C            0.423090630541     0.211577152271     0.644753177321
    O            2.750150133957    -0.236314837433     0.918604630200
    C           -0.312645314846    -0.009280896727    -0.680118955073
    H            0.713400705988     1.246879617357     0.765365757407
    H           -0.234739390156    -0.053978781608     1.470025492005
    C           -1.626213896803     0.793034251778    -0.786664895621
    H            0.349400740153     0.248030281898    -1.499194970256
    H           -0.526122922859    -1.068106439933    -0.793186115233
    C           -2.871516208027    -0.085364646507    -0.854771937736
    H           -1.590938727037     1.435068153108    -1.659061536833
    H           -1.712136032986     1.460925112004     0.064083907497
    H           -2.847682763687    -0.729765543911    -1.726890423777
    H           -3.771649463405     0.515624431077    -0.910428388803
    H           -2.950994821314    -0.720126090495     0.021946248860

  Mulliken Charges: (a.u.)
   Center  Symbol    Alpha    Beta     Spin     Total
       1     H     0.46528  0.46528  0.00000  0.06943
       2     C     2.90980  2.90980  0.00000  0.18041
       3     C     3.07896  3.07896  0.00000 -0.15793
       4     O     4.16352  4.16352  0.00000 -0.32704
       5     C     3.10865  3.10865  0.00000 -0.21729
       6     H     0.44167  0.44167  0.00000  0.11665
       7     H     0.45003  0.45003  0.00000  0.09994
       8     C     3.08937  3.08937  0.00000 -0.17874
       9     H     0.43971  0.43971  0.00000  0.12057
      10     H     0.45209  0.45209  0.00000  0.09583
      11     C     3.14678  3.14678  0.00000 -0.29356
      12     H     0.44605  0.44605  0.00000  0.10789
      13     H     0.45206  0.45206  0.00000  0.09589
      14     H     0.45324  0.45324  0.00000  0.09352
      15     H     0.44731  0.44731  0.00000  0.10538
      16     H     0.45547  0.45547  0.00000  0.08906

   Total alpha = 24.00000, Total beta = 24.00000, Total charge = -0.00000

*** Psi4 exiting successfully. Buy a developer a beer!
