  ==> Input File <==

--------------------------------------------------------------------------
set {
	reference rhf
	basis 6-31G*
}

set_num_threads( 4 )
memory 2 gb

molecule MOL {
0 1

H	 -3.161837	 0.500524	 -0.000234
C	 -2.367097	 -0.232926	 -0.000000
O	 -1.158440	 0.455814	 -0.000122
H	 -2.468853	 -0.861886	 -0.882833
H	 -2.468942	 -0.861421	 0.883154
C	 -0.881970	 1.130132	 -1.190388
C	 0.456890	 1.834304	 -1.055261
H	 -1.670253	 1.853236	 -1.404001
H	 -0.857263	 0.426403	 -2.023493
C	 0.842987	 2.603015	 -2.318151
H	 0.406781	 2.509072	 -0.206238
H	 1.214132	 1.092268	 -0.821451
H	 0.109337	 3.368146	 -2.556386
H	 1.801883	 3.094918	 -2.194068
H	 0.921754	 1.941323	 -3.176267

	symmetry c1
}
set optking {
	frozen_dihedral = ("
		6 3 2 4
	")
}

ee = optimize('scf')
oeprop('DIPOLE', 'QUADRUPOLE', 'MULLIKEN_CHARGES')
f=open( 'psi4out.xyz', 'w' )
f.write( "15  " )
f.write( str(ee) + "\n" )
f.write( MOL.save_string_xyz() )
f.close()
--------------------------------------------------------------------------

    Molecular point group: c1
  Charge       = 0
  Multiplicity = 1
  Basis Set: 6-31G*
  Basis Set:
  @DF-RHF Final Energy:  -232.13806855175534
    Total Energy =                       -232.1380685517553388
    Molecular point group: c1
  Basis Set: 6-31G*
  Basis Set:
  Basis Set: 6-31G*
  Basis Set:
  @DF-RHF Final Energy:  -232.13891913690270
    Total Energy =                       -232.1389191369027003
  Basis Set: 6-31G*
  Basis Set:
  Basis Set: 6-31G*
  Basis Set:
  @DF-RHF Final Energy:  -232.13915813475867
    Total Energy =                       -232.1391581347587589
  Basis Set: 6-31G*
  Basis Set:
  Basis Set: 6-31G*
  Basis Set:
  @DF-RHF Final Energy:  -232.13915947534909
    Total Energy =                       -232.1391594753490608
  Basis Set: 6-31G*
  Basis Set:
  Charge       = 0
  Multiplicity = 1
  Basis Set: 6-31G*
  Basis Set:

    Orbital Energies (a.u.)
    -----------------------

    Doubly Occupied:

       1A    -20.553153     2A    -11.266356     3A    -11.264002
       4A    -11.214266     5A    -11.212948     6A     -1.377975
       7A     -1.057262     8A     -0.955289     9A     -0.877340
      10A     -0.809144    11A     -0.674489    12A     -0.653980
      13A     -0.630407    14A     -0.607332    15A     -0.565645
      16A     -0.541238    17A     -0.502758    18A     -0.489442
      19A     -0.478066    20A     -0.461463    21A     -0.413233

  @DF-RHF Final Energy:  -232.13915980339149

   => Energetics <=

    Nuclear Repulsion Energy =            189.7098601553000492
    One-Electron Energy =                -690.4864633815905108
    Two-Electron Energy =                 268.6374434228988548
    DFT Exchange-Correlation Energy =       0.0000000000000000
    Empirical Dispersion Energy =           0.0000000000000000
    PCM Polarization Energy =               0.0000000000000000
    EFP Energy =                            0.0000000000000000
    Total Energy =                       -232.1391598033916353
    Molecular point group: c1
  Basis Set: 6-31G*
  Basis Set:

  -Total Gradient:
     Atom            X                  Y                   Z
    ------   -----------------  -----------------  -----------------
       1        0.000004044120     0.000001479669    -0.000000257008
       2        0.001115445742    -0.002020838573     0.000822894569
       3       -0.001028594200     0.001830560120     0.000420095796
       4       -0.000684208455     0.001232116229    -0.000785964986
       5        0.000005198766     0.000001892112    -0.000002085691
       6        0.000585188233    -0.001040025525    -0.000458360431
       7       -0.000000507376    -0.000002886823     0.000001500135
       8       -0.000001553991    -0.000003421161     0.000003161740
       9       -0.000000187603    -0.000000683555     0.000006025570
      10        0.000006222103    -0.000001643601    -0.000004281048
      11       -0.000005288419    -0.000003271020    -0.000001245409
      12        0.000002967646     0.000002921433     0.000001153701
      13        0.000001270271     0.000000889951     0.000001166601
      14        0.000001825165     0.000001109811    -0.000003368238
      15       -0.000001822001     0.000001800932    -0.000000435300

  **** Optimization is complete! (in 5 steps) ****
    Final optimized geometry and variables:
    Molecular point group: c1

    Geometry (in Angstrom), charge = 0, multiplicity = 1:

    H           -2.567082881808    -0.677884302501     0.933019254986
    C           -1.724571391097    -1.367258153335     0.905616795467
    O           -0.512017534537    -0.684533466767     0.904288373567
    H           -1.832215281193    -1.994075333623     0.022299376014
    H           -1.753102688947    -1.989811257714     1.789327356534
    C           -0.232056848718    -0.008297170151    -0.284331608831
    C            1.107958084683     0.692769966610    -0.144685138278
    H           -1.017706258823     0.717355252397    -0.499676833603
    H           -0.206891087770    -0.711846697732    -1.117225865885
    C            1.501342444687     1.458334181238    -1.407307390277
    H            1.056358840457     1.368976592849     0.703091532883
    H            1.862083393676    -0.051116698508     0.093322886698
    H            0.770688121330     2.225002167768    -1.649765144728
    H            2.461001979074     1.948033176029    -1.280242523704
    H            1.581698560750     0.795082984812    -2.264089878717

  Mulliken Charges: (a.u.)
   Center  Symbol    Alpha    Beta     Spin     Total
       1     H     0.42958  0.42958  0.00000  0.14085
       2     C     3.07889  3.07889  0.00000 -0.15778
       3     O     4.30619  4.30619  0.00000 -0.61238
       4     H     0.43116  0.43116  0.00000  0.13769
       5     H     0.41235  0.41235  0.00000  0.17529
       6     C     2.98158  2.98158  0.00000  0.03684
       7     C     3.15985  3.15985  0.00000 -0.31971
       8     H     0.43367  0.43367  0.00000  0.13266
       9     H     0.43305  0.43305  0.00000  0.13389
      10     C     3.24792  3.24792  0.00000 -0.49584
      11     H     0.41433  0.41433  0.00000  0.17134
      12     H     0.41430  0.41430  0.00000  0.17139
      13     H     0.42084  0.42084  0.00000  0.15832
      14     H     0.41540  0.41540  0.00000  0.16919
      15     H     0.42088  0.42088  0.00000  0.15825

   Total alpha = 21.00000, Total beta = 21.00000, Total charge = -0.00000
