  ==> Input File <==

--------------------------------------------------------------------------
set {
	reference rhf
	basis cc-pvtz
}

set_num_threads( 4 )
memory 2 gb

molecule MOL {
0 1

H	 0.386329	 1.895405	 0.491332
O	 0.057669	 1.301365	 -0.158528
C	 0.004145	 -0.005141	 0.363049
C	 1.199168	 -0.827145	 -0.096690
C	 -1.316386	 -0.602081	 -0.083515
H	 0.012026	 0.043363	 1.450619
H	 1.216685	 -0.896776	 -1.178167
H	 2.129940	 -0.372354	 0.228035
H	 1.160783	 -1.829622	 0.314294
H	 -1.357882	 -0.655920	 -1.165207
H	 -2.140147	 0.011735	 0.257253
H	 -1.440790	 -1.601175	 0.317669

	symmetry c1
}
set optking {
	frozen_dihedral = ("
		1 2 3 4
	")
}

ee = optimize('scf')
oeprop('DIPOLE', 'QUADRUPOLE', 'MULLIKEN_CHARGES')
f=open( 'psi4out.xyz', 'w' )
f.write( "12  " )
f.write( str(ee) + "\n" )
f.write( MOL.save_string_xyz() )
f.close()
--------------------------------------------------------------------------

    Molecular point group: c1
  Charge       = 0
  Multiplicity = 1
  Basis Set: CC-PVTZ
  Basis Set:
  @DF-RHF Final Energy:  -193.19436340127331
    Total Energy =                       -193.1943634012733355
    Molecular point group: c1
  Basis Set: CC-PVTZ
  Basis Set:
  Basis Set: CC-PVTZ
  Basis Set:
  @DF-RHF Final Energy:  -193.19452617418540
    Total Energy =                       -193.1945261741855404
  Basis Set: CC-PVTZ
  Basis Set:
  Basis Set: CC-PVTZ
  Basis Set:
  @DF-RHF Final Energy:  -193.19456138233036
    Total Energy =                       -193.1945613823303347
  Basis Set: CC-PVTZ
  Basis Set:
  Charge       = 0
  Multiplicity = 1
  Basis Set: CC-PVTZ
  Basis Set:

    Orbital Energies (a.u.)
    -----------------------

    Doubly Occupied:

       1A    -20.543142     2A    -11.274668     3A    -11.205818
       4A    -11.204632     5A     -1.363021     6A     -1.042780
       7A     -0.936412     8A     -0.800342     9A     -0.713775
      10A     -0.611482    11A     -0.600454    12A     -0.557051
      13A     -0.538345    14A     -0.525930    15A     -0.507022
      16A     -0.465640    17A     -0.432538

  @DF-RHF Final Energy:  -193.19456178837328

   => Energetics <=

    Nuclear Repulsion Energy =            135.5391710208602376
    One-Electron Energy =                -530.8213661189191725
    Two-Electron Energy =                 202.0876333096855433
    DFT Exchange-Correlation Energy =       0.0000000000000000
    Empirical Dispersion Energy =           0.0000000000000000
    PCM Polarization Energy =               0.0000000000000000
    EFP Energy =                            0.0000000000000000
    Total Energy =                       -193.1945617883733917
    Molecular point group: c1
  Basis Set: CC-PVTZ
  Basis Set:

  -Total Gradient:
     Atom            X                  Y                   Z
    ------   -----------------  -----------------  -----------------
       1       -0.001373551267     0.000282635558     0.000429115575
       2        0.001509303429    -0.000415205801    -0.000772543173
       3        0.000354699242     0.000542827696     0.001014813376
       4       -0.000494852111    -0.000315770128    -0.000697385843
       5       -0.000000753043    -0.000047846178     0.000024560658
       6       -0.000009367694    -0.000030580298    -0.000009008986
       7       -0.000002847379     0.000004227578     0.000007781549
       8       -0.000021505011     0.000009813529    -0.000000072854
       9        0.000015735231    -0.000038318717    -0.000001793567
      10        0.000014856258     0.000009111508     0.000001812524
      11        0.000010243688     0.000005613796     0.000003916652
      12       -0.000001961344    -0.000006508543    -0.000001195911

  **** Optimization is complete! (in 4 steps) ****
    Final optimized geometry and variables:
    Molecular point group: c1

    Geometry (in Angstrom), charge = 0, multiplicity = 1:

    H            0.416878691076     1.898613366659     0.465436256192
    O            0.084489392461     1.298907535498    -0.174696251994
    C            0.003733546527    -0.004876894664     0.360933213996
    C            1.198575401119    -0.827409739035    -0.096425860795
    C           -1.314338667602    -0.611531774646    -0.087013000026
    H            0.008540996411     0.050521975662     1.446662034280
    H            1.216937765825    -0.887004179405    -1.178329587496
    H            2.125641512932    -0.370768257665     0.230671114689
    H            1.155671673183    -1.834264520572     0.304445335994
    H           -1.360828871283    -0.642078143049    -1.169537838177
    H           -2.145468886815    -0.016391516778     0.269529611489
    H           -1.424362169123    -1.621935468633     0.290284510553

  Mulliken Charges: (a.u.)
   Center  Symbol    Alpha    Beta     Spin     Total
       1     H     0.39155  0.39155  0.00000  0.21690
       2     O     4.21046  4.21046  0.00000 -0.42092
       3     C     2.92574  2.92574  0.00000  0.14851
       4     C     3.13786  3.13786  0.00000 -0.27573
       5     C     3.13804  3.13804  0.00000 -0.27608
       6     H     0.46735  0.46735  0.00000  0.06530
       7     H     0.45243  0.45243  0.00000  0.09515
       8     H     0.45519  0.45519  0.00000  0.08963
       9     H     0.45914  0.45914  0.00000  0.08172
      10     H     0.45217  0.45217  0.00000  0.09566
      11     H     0.45046  0.45046  0.00000  0.09908
      12     H     0.45961  0.45961  0.00000  0.08078

   Total alpha = 17.00000, Total beta = 17.00000, Total charge =  0.00000
