  ==> Input File <==

--------------------------------------------------------------------------
set {
	reference rhf
	basis 6-31G*
}

set_num_threads( 4 )
memory 2 gb

molecule MOL {
0 1

H	 -4.236494	 0.538104	 0.039757
O	 -3.517110	 -0.026191	 -0.205115
C	 -2.306886	 0.532354	 0.237577
C	 -1.177863	 -0.397191	 -0.171080
H	 -2.156308	 1.517575	 -0.201710
H	 -2.315015	 0.655684	 1.319734
C	 0.198102	 0.111031	 0.262842
H	 -1.208843	 -0.518759	 -1.250427
H	 -1.368741	 -1.376554	 0.258909
C	 1.331804	 -0.827780	 -0.158768
H	 0.361943	 1.100838	 -0.156218
H	 0.217265	 0.229072	 1.345532
C	 2.723619	 -0.410569	 0.329459
H	 1.342964	 -0.912588	 -1.244120
H	 1.116806	 -1.824343	 0.220779
C	 3.416902	 0.636321	 -0.544449
H	 3.351539	 -1.296971	 0.375230
H	 2.650345	 -0.038668	 1.349501
H	 3.493006	 0.296598	 -1.573932
H	 2.884354	 1.581607	 -0.546568
H	 4.423251	 0.831414	 -0.186741

	symmetry c1
}
set optking {
	frozen_dihedral = ("
		16 13 10 14
	")
}

ee = optimize('scf')
oeprop('DIPOLE', 'QUADRUPOLE', 'MULLIKEN_CHARGES')
f=open( 'psi4out.xyz', 'w' )
f.write( "21  " )
f.write( str(ee) + "\n" )
f.write( MOL.save_string_xyz() )
f.close()
--------------------------------------------------------------------------

    Molecular point group: c1
  Charge       = 0
  Multiplicity = 1
  Basis Set: 6-31G*
  Basis Set:
  @DF-RHF Final Energy:  -310.21174198569111
    Total Energy =                       -310.2117419856909351
    Molecular point group: c1
  Basis Set: 6-31G*
  Basis Set:
  Basis Set: 6-31G*
  Basis Set:
  @DF-RHF Final Energy:  -310.21199101799243
    Total Energy =                       -310.2119910179922044
  Basis Set: 6-31G*
  Basis Set:
  Basis Set: 6-31G*
  Basis Set:
  @DF-RHF Final Energy:  -310.21205369644696
    Total Energy =                       -310.2120536964471285
  Basis Set: 6-31G*
  Basis Set:
  Basis Set: 6-31G*
  Basis Set:
  @DF-RHF Final Energy:  -310.21205834415559
    Total Energy =                       -310.2120583441556505
  Basis Set: 6-31G*
  Basis Set:
  Basis Set: 6-31G*
  Basis Set:
  @DF-RHF Final Energy:  -310.21206467164689
    Total Energy =                       -310.2120646716470560
  Basis Set: 6-31G*
  Basis Set:
  Charge       = 0
  Multiplicity = 1
  Basis Set: 6-31G*
  Basis Set:

    Orbital Energies (a.u.)
    -----------------------

    Doubly Occupied:

       1A    -20.551817     2A    -11.267052     3A    -11.215784
       4A    -11.214954     5A    -11.213471     6A    -11.210565
       7A    -11.208416     8A     -1.358636     9A     -1.085984
      10A     -1.033279    11A     -0.954872    12A     -0.872849
      13A     -0.805933    14A     -0.782908    15A     -0.692475
      16A     -0.661418    17A     -0.618777    18A     -0.611125
      19A     -0.586277    20A     -0.566656    21A     -0.537972
      22A     -0.520270    23A     -0.508756    24A     -0.487237
      25A     -0.479519    26A     -0.462644    27A     -0.455261
      28A     -0.442167    29A     -0.433977

  @DF-RHF Final Energy:  -310.21206476603885

   => Energetics <=

    Nuclear Repulsion Energy =            311.8702266986002201
    One-Electron Energy =               -1038.4824831729072230
    Two-Electron Energy =                 416.4001917082682667
    DFT Exchange-Correlation Energy =       0.0000000000000000
    Empirical Dispersion Energy =           0.0000000000000000
    PCM Polarization Energy =               0.0000000000000000
    EFP Energy =                            0.0000000000000000
    Total Energy =                       -310.2120647660387931
    Molecular point group: c1
  Basis Set: 6-31G*
  Basis Set:

  -Total Gradient:
     Atom            X                  Y                   Z
    ------   -----------------  -----------------  -----------------
       1       -0.000000425202    -0.000000756795     0.000000923713
       2       -0.000000106507    -0.000000181692    -0.000000141950
       3        0.000001633252    -0.000003299607     0.000007979279
       4        0.000007218108     0.000003785320    -0.000015790988
       5       -0.000001250427    -0.000005726487    -0.000002994216
       6        0.000000516482     0.000005623022     0.000004258810
       7       -0.000000963286    -0.000000791837     0.000011085933
       8       -0.000005809286     0.000004505172    -0.000004825838
       9        0.000006636622     0.000001954023    -0.000005395762
      10        0.001199201140    -0.003435151174    -0.000143154729
      11        0.000002820093    -0.000008287743    -0.000005285954
      12       -0.000007005877    -0.000003283116     0.000001733600
      13       -0.001244078249     0.002416752272     0.001354534816
      14       -0.000728879142     0.002365047269    -0.000202109358
      15        0.000009005204    -0.000009095023     0.000004749400
      16        0.000764803037    -0.001322668874    -0.001000710872
      17       -0.000005163403    -0.000000093086    -0.000002764657
      18       -0.000003035486     0.000001903321    -0.000000790949
      19       -0.000000149330    -0.000001608495    -0.000008499632
      20        0.000004908705    -0.000005449048     0.000009074722
      21        0.000000123567    -0.000003177424    -0.000001875368

  **** Optimization is complete! (in 6 steps) ****
    Final optimized geometry and variables:
    Molecular point group: c1

    Geometry (in Angstrom), charge = 0, multiplicity = 1:

    H           -4.239317825692     0.627989279279     0.036105019753
    O           -3.523312151299     0.064094634736    -0.219387227369
    C           -2.315893270804     0.577255639130     0.282042609268
    C           -1.192243467576    -0.350448277659    -0.145199555323
    H           -2.137267445726     1.580711819071    -0.102029786962
    H           -2.350392782328     0.645367215791     1.368533841689
    C            0.180413445575     0.111070825083     0.346468970921
    H           -1.198634243098    -0.418218780832    -1.229622240920
    H           -1.409497864187    -1.346479730922     0.230921639969
    C            1.309952856335    -0.836837299325    -0.069877227457
    H            0.381587974462     1.110832481780    -0.033129504866
    H            0.169019005639     0.193168962601     1.432210285511
    C            2.703061068490    -0.373409824045     0.380288265499
    H            1.297688964782    -0.934733182071    -1.153689175542
    H            1.104849832377    -1.823597820138     0.337249701991
    C            3.329284348439     0.681360132843    -0.533851863215
    H            3.367799312228    -1.233064895662     0.412331592047
    H            2.650365151256     0.004575596889     1.398837197882
    H            3.449837434049     0.295422311910    -1.541985845230
    H            2.720635499358     1.578565926975    -0.594784198815
    H            4.309991102454     0.976541555710    -0.173355877345

  Mulliken Charges: (a.u.)
   Center  Symbol    Alpha    Beta     Spin     Total
       1     H     0.28118  0.28118  0.00000  0.43763
       2     O     4.37179  4.37179  0.00000 -0.74358
       3     C     2.98972  2.98972  0.00000  0.02055
       4     C     3.15910  3.15910  0.00000 -0.31820
       5     H     0.43295  0.43295  0.00000  0.13411
       6     H     0.43284  0.43284  0.00000  0.13432
       7     C     3.16139  3.16139  0.00000 -0.32279
       8     H     0.41477  0.41477  0.00000  0.17046
       9     H     0.41493  0.41493  0.00000  0.17015
      10     C     3.15253  3.15253  0.00000 -0.30505
      11     H     0.42270  0.42270  0.00000  0.15460
      12     H     0.42374  0.42374  0.00000  0.15252
      13     C     3.15397  3.15397  0.00000 -0.30795
      14     H     0.42238  0.42238  0.00000  0.15524
      15     H     0.42018  0.42018  0.00000  0.15965
      16     C     3.24025  3.24025  0.00000 -0.48049
      17     H     0.42045  0.42045  0.00000  0.15910
      18     H     0.42285  0.42285  0.00000  0.15430
      19     H     0.42120  0.42120  0.00000  0.15761
      20     H     0.42161  0.42161  0.00000  0.15679
      21     H     0.41949  0.41949  0.00000  0.16103

   Total alpha = 29.00000, Total beta = 29.00000, Total charge = -0.00000
