  ==> Input File <==

--------------------------------------------------------------------------
set {
	reference rhf
	basis 6-31G*
}

set_num_threads( 4 )
memory 2 gb

molecule MOL {
0 1

O	 -0.988096	 -1.408613	 0.050699
C	 -0.676749	 -0.249230	 -0.009274
C	 -1.746085	 0.827156	 -0.009539
N	 0.623947	 0.147590	 -0.102813
H	 -1.701500	 1.431508	 -0.908902
H	 -2.703425	 0.330732	 0.036390
H	 -1.647323	 1.487769	 0.845106
C	 1.618298	 -0.536428	 0.700469
C	 1.047164	 1.409033	 -0.670170
H	 2.532539	 -0.645714	 0.127550
H	 1.250031	 -1.509655	 0.974606
H	 1.846241	 0.021266	 1.606251
H	 2.022802	 1.283620	 -1.124526
H	 0.370190	 1.745564	 -1.439187
H	 1.126927	 2.188155	 0.085753

	symmetry c1
}
set optking {
	frozen_dihedral = ("
		8 4 2 3
	")
}

ee = optimize('scf')
oeprop('DIPOLE', 'QUADRUPOLE', 'MULLIKEN_CHARGES')
f=open( 'psi4out.xyz', 'w' )
f.write( "15  " )
f.write( str(ee) + "\n" )
f.write( MOL.save_string_xyz() )
f.close()
--------------------------------------------------------------------------

    Molecular point group: c1
  Charge       = 0
  Multiplicity = 1
  Basis Set: 6-31G*
  Basis Set:
  @DF-RHF Final Energy:  -286.01891453063968
    Total Energy =                       -286.0189145306396199
    Molecular point group: c1
  Basis Set: 6-31G*
  Basis Set:
  Basis Set: 6-31G*
  Basis Set:
  @DF-RHF Final Energy:  -286.02138909100466
    Total Energy =                       -286.0213890910047212
  Basis Set: 6-31G*
  Basis Set:
  Basis Set: 6-31G*
  Basis Set:
  @DF-RHF Final Energy:  -286.02226438116224
    Total Energy =                       -286.0222643811622447
  Basis Set: 6-31G*
  Basis Set:
  Basis Set: 6-31G*
  Basis Set:
  @DF-RHF Final Energy:  -286.02273607022977
    Total Energy =                       -286.0227360702294845
  Basis Set: 6-31G*
  Basis Set:
  @DF-RHF Final Energy:  -286.02305062822069
    Total Energy =                       -286.0230506282206306
  @DF-RHF Final Energy:  -286.02330325480614
    Total Energy =                       -286.0233032548060805
  Basis Set: 6-31G*
  Basis Set:
  @DF-RHF Final Energy:  -286.02333892221122
    Total Energy =                       -286.0233389222111668
  Basis Set: 6-31G*
  Basis Set:
  Basis Set: 6-31G*
  Basis Set:
  @DF-RHF Final Energy:  -286.02334785939598
    Total Energy =                       -286.0233478593959262
  Basis Set: 6-31G*
  Basis Set:
  Basis Set: 6-31G*
  Basis Set:
  @DF-RHF Final Energy:  -286.02334947756162
    Total Energy =                       -286.0233494775614531
  Basis Set: 6-31G*
  Basis Set:
  Charge       = 0
  Multiplicity = 1
  Basis Set: 6-31G*
  Basis Set:

    Orbital Energies (a.u.)
    -----------------------

    Doubly Occupied:

       1A    -20.522425     2A    -15.579743     3A    -11.344296
       4A    -11.263307     5A    -11.250710     6A    -11.230585
       7A     -1.390077     8A     -1.242693     9A     -1.013836
      10A     -0.969504    11A     -0.917370    12A     -0.737479
      13A     -0.681979    14A     -0.659520    15A     -0.650162
      16A     -0.590297    17A     -0.576458    18A     -0.571229
      19A     -0.561421    20A     -0.550418    21A     -0.528206
      22A     -0.502144    23A     -0.415084    24A     -0.368878

  @DF-RHF Final Energy:  -286.02334937301043

   => Energetics <=

    Nuclear Repulsion Energy =            252.6617822541470275
    One-Electron Energy =                -889.1346213268316205
    Two-Electron Energy =                 350.4494896996741318
    DFT Exchange-Correlation Energy =       0.0000000000000000
    Empirical Dispersion Energy =           0.0000000000000000
    PCM Polarization Energy =               0.0000000000000000
    EFP Energy =                            0.0000000000000000
    Total Energy =                       -286.0233493730104328
    Molecular point group: c1
  Basis Set: 6-31G*
  Basis Set:

  -Total Gradient:
     Atom            X                  Y                   Z
    ------   -----------------  -----------------  -----------------
       1       -0.000181686282    -0.000002186296    -0.000027723435
       2       -0.001453698566     0.000734738011    -0.008850029802
       3        0.000869928776     0.001236942721     0.007498441168
       4        0.001319656753    -0.008017703781    -0.003834670247
       5       -0.000020713025    -0.000035671373     0.000009999799
       6       -0.000007978604     0.000006276759    -0.000011916215
       7       -0.000008192491     0.000008484938     0.000013897695
       8       -0.000628649592     0.005878280378     0.005223979932
       9        0.000141164705     0.000131713621     0.000002823154
      10       -0.000015388883    -0.000015992376     0.000009329927
      11       -0.000009629278     0.000015476010     0.000003190995
      12        0.000005364465     0.000006791551    -0.000008564576
      13       -0.000007498437     0.000015619617     0.000020194781
      14       -0.000020337577     0.000018668568    -0.000026752286
      15        0.000017658035     0.000018561656    -0.000022200891

  **** Optimization is complete! (in 10 steps) ****
    Final optimized geometry and variables:
    Molecular point group: c1

    Geometry (in Angstrom), charge = 0, multiplicity = 1:

    O           -0.986176886009    -1.403733596333     0.290131659173
    C           -0.667310870228    -0.293012512370    -0.026580041336
    C           -1.709179500482     0.807729579615    -0.097417219710
    N            0.652961715686     0.045229864025    -0.231654143604
    H           -1.801226452106     1.232690903776    -1.090889520225
    H           -2.657812314857     0.378063373374     0.186670566481
    H           -1.454261739944     1.611680561267     0.584646147089
    C            1.635295123662    -0.604635051711     0.620646917902
    C            1.026409785668     1.392361268841    -0.613399951428
    H            2.585176659592    -0.665972735332     0.102670156234
    H            1.302918944702    -1.601004781110     0.858011352787
    H            1.782558102830    -0.044949778494     1.543163335200
    H            2.027720400914     1.367548233996    -1.024646839766
    H            0.371205252629     1.776225850440    -1.381410048917
    H            1.026584539133     2.087580579616     0.225994445268

  Mulliken Charges: (a.u.)
   Center  Symbol    Alpha    Beta     Spin     Total
       1     O     4.29363  4.29363  0.00000 -0.58727
       2     C     2.62958  2.62958  0.00000  0.74085
       3     C     3.29747  3.29747  0.00000 -0.59494
       4     N     3.81548  3.81548  0.00000 -0.63095
       5     H     0.40604  0.40604  0.00000  0.18792
       6     H     0.39062  0.39062  0.00000  0.21876
       7     H     0.40757  0.40757  0.00000  0.18486
       8     C     3.15128  3.15128  0.00000 -0.30257
       9     C     3.14586  3.14586  0.00000 -0.29172
      10     H     0.41504  0.41504  0.00000  0.16993
      11     H     0.38571  0.38571  0.00000  0.22857
      12     H     0.42320  0.42320  0.00000  0.15360
      13     H     0.40748  0.40748  0.00000  0.18503
      14     H     0.40905  0.40905  0.00000  0.18190
      15     H     0.42199  0.42199  0.00000  0.15602

   Total alpha = 24.00000, Total beta = 24.00000, Total charge = -0.00000
