                              Psi4 1.0.54 Driver

  ==> Input File <==

--------------------------------------------------------------------------
set {
	reference rhf
	basis cc-pvtz
}

set_num_threads( 4 )
memory 2 gb

molecule MOL {
0 1

H	 0.480180	 -2.178171	 -0.848041
C	 -0.301835	 -1.444787	 -1.053097
N	 -0.537714	 -0.645117	 0.000000
O	 -0.855429	 -1.396402	 -2.105670
C	 -1.522613	 0.412524	 0.000000
H	 -0.000238	 -0.798372	 0.817078
H	 -2.150256	 0.356137	 -0.880771
H	 -1.005621	 1.357208	 0.000000
H	 -2.150256	 0.356137	 0.880771

	symmetry c1
}
set optking {
	frozen_dihedral = ("
		6 3 5 7
	")
}

ee,wfn = optimize('scf', return_wfn=True)
oeprop( wfn, 'DIPOLE', 'QUADRUPOLE', 'MULLIKEN_CHARGES')
f=open( 'psi4out.xyz', 'w' )
f.write( "9  " )
f.write( str(ee) + "\n" )
f.write( MOL.save_string_xyz() )
f.close()
--------------------------------------------------------------------------

    Molecular point group: c1
  Charge       = 0
  Multiplicity = 1
  Basis Set: CC-PVTZ
  Basis Set:
  @DF-RHF Final Energy:  -208.04298402417464
    Total Energy =                       -208.0429840241746433
    Molecular point group: c1
  Basis Set: CC-PVTZ
  Basis Set:
  Basis Set: CC-PVTZ
  Basis Set:
  @DF-RHF Final Energy:  -208.04345838829357
    Total Energy =                       -208.0434583882936579
  Basis Set: CC-PVTZ
  Basis Set:
  Basis Set: CC-PVTZ
  Basis Set:
  @DF-RHF Final Energy:  -208.04355139331258
    Total Energy =                       -208.0435513933127538
  Basis Set: CC-PVTZ
  Basis Set:
  Basis Set: CC-PVTZ
  Basis Set:
  @DF-RHF Final Energy:  -208.04347299807986
    Total Energy =                       -208.0434729980798636
  Basis Set: CC-PVTZ
  Basis Set:
  @DF-RHF Final Energy:  -208.04357676575927
    Total Energy =                       -208.0435767657595534
  Basis Set: CC-PVTZ
  Basis Set:
  @DF-RHF Final Energy:  -208.04358052613202
    Total Energy =                       -208.0435805261320752
  Basis Set: CC-PVTZ
  Basis Set:
  Basis Set: CC-PVTZ
  Basis Set:
  @DF-RHF Final Energy:  -208.04358954794628
    Total Energy =                       -208.0435895479463113
  Basis Set: CC-PVTZ
  Basis Set:
  Basis Set: CC-PVTZ
  Basis Set:
  @DF-RHF Final Energy:  -208.04359071385369
    Total Energy =                       -208.0435907138536606
  Basis Set: CC-PVTZ
  Basis Set:
  Charge       = 0
  Multiplicity = 1
  Basis Set: CC-PVTZ
  Basis Set:

    Orbital Energies (a.u.)
    -----------------------

    Doubly Occupied:

       1A    -20.516166     2A    -15.585042     3A    -11.337518
       4A    -11.259251     5A     -1.393702     6A     -1.239883
       7A     -0.970388     8A     -0.808269     9A     -0.748799
      10A     -0.646386    11A     -0.629345    12A     -0.596865
      13A     -0.555392    14A     -0.542073    15A     -0.428274
      16A     -0.395980

  @DF-RHF Final Energy:  -208.04359084768433

   => Energetics <=

    Nuclear Repulsion Energy =            122.7164358070913011
    One-Electron Energy =                -526.2133897635968651
    Two-Electron Energy =                 195.4533631088212644
    DFT Exchange-Correlation Energy =       0.0000000000000000
    Empirical Dispersion Energy =           0.0000000000000000
    PCM Polarization Energy =               0.0000000000000000
    EFP Energy =                            0.0000000000000000
    Total Energy =                       -208.0435908476842712
    Molecular point group: c1
  Basis Set: CC-PVTZ
  Basis Set:

  -Total Gradient:
     Atom            X                  Y                   Z
    ------   -----------------  -----------------  -----------------
       1        0.000004406404     0.000003300258     0.000011641658
       2       -0.000042017836    -0.000009591049    -0.000087147052
       3       -0.000126258304    -0.000068954244     0.000102065969
       4        0.000030567833    -0.000002625516     0.000047675018
       5       -0.000051234234    -0.000070806004     0.000075779136
       6        0.000102464939     0.000089098826    -0.000066869146
       7        0.000080648146     0.000073401973    -0.000069193790
       8       -0.000007095508    -0.000017664949     0.000002155593
       9        0.000008518561     0.000003840703    -0.000016107389

  **** Optimization is complete! (in 9 steps) ****
    Final optimized geometry and variables:
    Molecular point group: c1

    Geometry (in Angstrom), charge = 0, multiplicity = 1:

    H            1.309869232802    -1.405921461715    -0.090294341659
    C            0.509671429271    -0.686585325709    -0.274879474529
    N            0.290444021453     0.114544021366     0.781143266281
    O           -0.082027965607    -0.656107405792    -1.306995682463
    C           -0.686691660308     1.179391267233     0.785163242638
    H            0.893859249395     0.016044492993     1.559847471200
    H           -1.360501418210     1.028865994024    -0.041695060218
    H           -0.217871172092     2.150643839333     0.677682028306
    H           -1.251293954398     1.163997116666     1.708090288049

  Mulliken Charges: (a.u.)
   Center  Symbol    Alpha    Beta     Spin     Total
       1     H     0.46295  0.46295  0.00000  0.07410
       2     C     2.88098  2.88098  0.00000  0.23805
       3     N     3.60785  3.60785  0.00000 -0.21570
       4     O     4.21485  4.21485  0.00000 -0.42969
       5     C     3.08070  3.08070  0.00000 -0.16140
       6     H     0.40973  0.40973  0.00000  0.18055
       7     H     0.43358  0.43358  0.00000  0.13284
       8     H     0.45535  0.45535  0.00000  0.08930
       9     H     0.45402  0.45402  0.00000  0.09196

   Total alpha = 16.00000, Total beta = 16.00000, Total charge =  0.00000

*** Psi4 exiting successfully. Buy a developer a beer!
