  ==> Input File <==

--------------------------------------------------------------------------
set {
	reference rhf
	basis 6-31G*
}

set_num_threads( 1 )
memory 2 gb

molecule MOL {
0 1

H	 3.463771	 0.168298	 -0.756243
C	 2.752674	 -0.045734	 0.033351
C	 1.322923	 0.120767	 -0.479465
H	 2.934561	 -1.059086	 0.377456
H	 2.958358	 0.631174	 0.856809
C	 0.306652	 -0.176050	 0.621399
H	 1.144658	 -0.551717	 -1.312180
H	 1.166477	 1.131798	 -0.836680
N	 -1.068537	 -0.011044	 0.085269
H	 0.372515	 -1.192590	 0.973735
H	 0.391664	 0.520566	 1.441230
O	 -1.179439	 0.309845	 -1.057580
O	 -1.970499	 -0.180736	 0.847958

	symmetry c1
}
set optking {
	frozen_dihedral = ("
		7 3 6 9
	")
}

ee = energy('scf')
oeprop('DIPOLE', 'QUADRUPOLE', 'MULLIKEN_CHARGES')
f=open( 'psi4out.xyz', 'w' )
f.write( "13  " )
f.write( str(ee) + "\n" )
f.write( MOL.save_string_xyz() )
f.close()
--------------------------------------------------------------------------

    Molecular point group: c1

    Geometry (in Angstrom), charge = 0, multiplicity = 1:

       Center              X                  Y                   Z               Mass
    ------------   -----------------  -----------------  -----------------  -----------------
           H          3.466348486900     0.164435737183    -0.764042326771     1.007825032070
           C          2.755251486900    -0.049596262817     0.025551673229    12.000000000000
           C          1.325500486900     0.116904737183    -0.487264326771    12.000000000000
           H          2.937138486900    -1.062948262817     0.369656673229     1.007825032070
           H          2.960935486900     0.627311737183     0.849009673229     1.007825032070
           C          0.309229486900    -0.179912262817     0.613599673229    12.000000000000
           H          1.147235486900    -0.555579262817    -1.319979326771     1.007825032070
           H          1.169054486900     1.127935737183    -0.844479326771     1.007825032070
           N         -1.065959513100    -0.014906262817     0.077469673229    14.003074004780
           H          0.375092486900    -1.196452262817     0.965935673229     1.007825032070
           H          0.394241486900     0.516703737183     1.433430673229     1.007825032070
           O         -1.176861513100     0.305982737183    -1.065379326771    15.994914619560
           O         -1.967921513100    -0.184598262817     0.840158673229    15.994914619560

  Charge       = 0
  Multiplicity = 1
  Basis Set: 6-31G*
  Basis Set:

    Orbital Energies (a.u.)
    -----------------------

    Doubly Occupied:

       1A    -20.603990     2A    -20.599369     3A    -15.848944
       4A    -11.300796     5A    -11.246612     6A    -11.234587
       7A     -1.632235     8A     -1.418032     9A     -1.133551
      10A     -1.025541    11A     -0.882566    12A     -0.822517
      13A     -0.762140    14A     -0.752765    15A     -0.726693
      16A     -0.654825    17A     -0.604848    18A     -0.579411
      19A     -0.551209    20A     -0.518336    21A     -0.509794
      22A     -0.485411    23A     -0.472461    24A     -0.448387

  @DF-RHF Final Energy:  -321.73305548852284

   => Energetics <=

    Nuclear Repulsion Energy =            248.2855282333858042
    One-Electron Energy =                -930.4071416469025735
    Two-Electron Energy =                 360.3885579249941884
    DFT Exchange-Correlation Energy =       0.0000000000000000
    Empirical Dispersion Energy =           0.0000000000000000
    PCM Polarization Energy =               0.0000000000000000
    EFP Energy =                            0.0000000000000000
    Total Energy =                       -321.7330554885226093

  Mulliken Charges: (a.u.)
   Center  Symbol    Alpha    Beta     Spin     Total
       1     H     0.40832  0.40832  0.00000  0.18335
       2     C     3.24875  3.24875  0.00000 -0.49751
       3     C     3.16469  3.16469  0.00000 -0.32938
       4     H     0.41774  0.41774  0.00000  0.16451
       5     H     0.41788  0.41788  0.00000  0.16424
       6     C     3.09146  3.09146  0.00000 -0.18291
       7     H     0.40138  0.40138  0.00000  0.19723
       8     H     0.40126  0.40126  0.00000  0.19748
       9     N     3.22315  3.22315  0.00000  0.55371
      10     H     0.38494  0.38494  0.00000  0.23012
      11     H     0.38454  0.38454  0.00000  0.23091
      12     O     4.22639  4.22639  0.00000 -0.45279
      13     O     4.22948  4.22948  0.00000 -0.45897

   Total alpha = 24.00000, Total beta = 24.00000, Total charge =  0.00000
