                              Psi4 1.0.54 Driver

  ==> Input File <==

--------------------------------------------------------------------------
set {
	reference rhf
	basis cc-pvtz
}

set_num_threads( 4 )
memory 2 gb

molecule MOL {
0 1

O	 1.771102	 1.427221	 -0.359773
C	 1.482220	 0.504478	 -1.042512
C	 0.163977	 -0.225703	 -1.015852
O	 2.302263	 -0.017102	 -1.940231
C	 -0.824290	 0.329213	 -0.000115
H	 -0.243272	 -0.189217	 -2.020972
H	 0.380342	 -1.271385	 -0.823043
C	 -2.146151	 -0.432825	 -0.000068
H	 -1.003427	 1.377282	 -0.211620
H	 -0.378973	 0.294093	 0.987685
C	 -3.366283	 0.483552	 0.000557
H	 -2.189286	 -1.084450	 -0.869996
H	 -2.188867	 -1.085083	 0.869399
C	 -4.687436	 -0.278003	 0.000108
H	 -3.325150	 1.134819	 -0.867957
H	 -3.325087	 1.133730	 0.869885
H	 -4.773783	 -0.912098	 -0.876078
H	 -5.531922	 0.401392	 0.000363
H	 -4.773901	 -0.912898	 0.875703
C	 3.579682	 0.572841	 -2.072491
H	 3.492741	 1.609818	 -2.361166
H	 4.087509	 0.013769	 -2.841514
H	 4.126553	 0.510401	 -1.143380

	symmetry c1
}
set optking {
	frozen_dihedral = ("
		9 5 8 12
	")
}

ee,wfn = optimize('scf', return_wfn=True)
oeprop( wfn, 'DIPOLE', 'QUADRUPOLE', 'MULLIKEN_CHARGES')
f=open( 'psi4out.xyz', 'w' )
f.write( "23  " )
f.write( str(ee) + "\n" )
f.write( MOL.save_string_xyz() )
f.close()
--------------------------------------------------------------------------

    Molecular point group: c1
  Charge       = 0
  Multiplicity = 1
  Basis Set: CC-PVTZ
  Basis Set:
  @DF-RHF Final Energy:  -423.12602128972662
    Total Energy =                       -423.1260212897268502
    Molecular point group: c1
  Basis Set: CC-PVTZ
  Basis Set:
  Basis Set: CC-PVTZ
  Basis Set:
  @DF-RHF Final Energy:  -423.12629014527369
    Total Energy =                       -423.1262901452734013
  Basis Set: CC-PVTZ
  Basis Set:
  Basis Set: CC-PVTZ
  Basis Set:
  @DF-RHF Final Energy:  -423.12625646999328
    Total Energy =                       -423.1262564699928816
  Basis Set: CC-PVTZ
  Basis Set:
  Basis Set: CC-PVTZ
  Basis Set:
  @DF-RHF Final Energy:  -423.12635147750052
    Total Energy =                       -423.1263514775008616
  Basis Set: CC-PVTZ
  Basis Set:
  Basis Set: CC-PVTZ
  Basis Set:
  @DF-RHF Final Energy:  -423.12636598817204
    Total Energy =                       -423.1263659881717558
  Basis Set: CC-PVTZ
  Basis Set:
  Charge       = 0
  Multiplicity = 1
  Basis Set: CC-PVTZ
  Basis Set:

    Orbital Energies (a.u.)
    -----------------------

    Doubly Occupied:

       1A    -20.596307     2A    -20.534196     3A    -11.364466
       4A    -11.278488     5A    -11.234380     6A    -11.216811
       7A    -11.215782     8A    -11.215168     9A    -11.207904
      10A     -1.472196    11A     -1.365792    12A     -1.092632
      13A     -1.044904    14A     -0.987422    15A     -0.932399
      16A     -0.845524    17A     -0.796223    18A     -0.769563
      19A     -0.701364    20A     -0.685812    21A     -0.676069
      22A     -0.643028    23A     -0.615434    24A     -0.600549
      25A     -0.573662    26A     -0.560593    27A     -0.556034
      28A     -0.528391    29A     -0.523035    30A     -0.503903
      31A     -0.489595    32A     -0.470983    33A     -0.465147
      34A     -0.462515    35A     -0.454519    36A     -0.438151

  @DF-RHF Final Energy:  -423.12636679770031

   => Energetics <=

    Nuclear Repulsion Energy =            453.1704052599982901
    One-Electron Energy =               -1474.3556568206263364
    Two-Electron Energy =                 598.0588847629279599
    DFT Exchange-Correlation Energy =       0.0000000000000000
    Empirical Dispersion Energy =           0.0000000000000000
    PCM Polarization Energy =               0.0000000000000000
    EFP Energy =                            0.0000000000000000
    Total Energy =                       -423.1263667977001433
    Molecular point group: c1
  Basis Set: CC-PVTZ
  Basis Set:

  -Total Gradient:
     Atom            X                  Y                   Z
    ------   -----------------  -----------------  -----------------
       1       -0.000008656349     0.000001927233    -0.000020508414
       2        0.000052009047    -0.000032761883     0.000019161843
       3        0.000014317969     0.000056300311     0.000037775731
       4        0.000015120213     0.000011009635    -0.000016657932
       5        0.000692589590    -0.001307140003    -0.003565589019
       6       -0.000018907260     0.000008661970     0.000010832946
       7       -0.000002921103     0.000002723493     0.000007203023
       8       -0.001729090090     0.003098153754    -0.001352607321
       9       -0.000279488165     0.000595109500     0.003143216072
      10        0.000032587851    -0.000012539653    -0.000017210088
      11        0.000029781318    -0.000062836638     0.000060917652
      12        0.001336994558    -0.002379165451     0.001700862491
      13       -0.000043992473     0.000014298722     0.000021911509
      14       -0.000077223336     0.000026019229    -0.000044887842
      15        0.000031264330     0.000014360271    -0.000022421267
      16        0.000013544379     0.000001995352     0.000037261523
      17       -0.000014391887    -0.000021170072    -0.000023128062
      18       -0.000051420445    -0.000009392976    -0.000011543706
      19        0.000001729907    -0.000010139282     0.000037235440
      20        0.000008987487     0.000008933430    -0.000005089498
      21        0.000002072902    -0.000005597816     0.000002040622
      22       -0.000004035311    -0.000000108292    -0.000000079657
      23       -0.000000873132     0.000001359168     0.000001303949

  **** Optimization is complete! (in 6 steps) ****
    Final optimized geometry and variables:
    Molecular point group: c1

    Geometry (in Angstrom), charge = 0, multiplicity = 1:

    O            1.934332857292     1.154564438034     0.368220067434
    C            1.650689366839     0.231730448432    -0.316628920167
    C            0.324163608824    -0.484071326753    -0.316262639018
    O            2.484461727666    -0.302268403905    -1.194268891721
    C           -0.681105125885     0.084468472112     0.674138685875
    H           -0.060937631039    -0.447896542939    -1.330020475505
    H            0.524092274964    -1.531328176240    -0.113791916280
    C           -2.015622911938    -0.683364363721     0.685709071558
    H           -0.853019435909     1.132707358371     0.461021339366
    H           -0.241573831564     0.071929473016     1.663943385962
    C           -3.243092244735     0.221447825544     0.730422547354
    H           -2.077655462066    -1.341657199400    -0.177006997295
    H           -2.038461486674    -1.347238880459     1.545392491793
    C           -4.556777719688    -0.550292304706     0.786582636403
    H           -3.240447994276     0.869022769302    -0.142172773748
    H           -3.171058274725     0.876674845098     1.594225806790
    H           -4.670015913504    -1.194041614140    -0.079611246360
    H           -5.406542896674     0.122137702578     0.811541678631
    H           -4.605101189381    -1.177051739964     1.670919951540
    C            3.770321296330     0.274107423303    -1.301636385591
    H            3.700241047651     1.310616513448    -1.596532212658
    H            4.288774921323    -0.293489673745    -2.057225723711
    H            4.296617528137     0.210333743049    -0.360791314905

  Mulliken Charges: (a.u.)
   Center  Symbol    Alpha    Beta     Spin     Total
       1     O     4.19671  4.19671  0.00000 -0.39343
       2     C     2.80878  2.80878  0.00000  0.38245
       3     C     3.09929  3.09929  0.00000 -0.19858
       4     O     4.14686  4.14686  0.00000 -0.29373
       5     C     3.08983  3.08983  0.00000 -0.17965
       6     H     0.43966  0.43966  0.00000  0.12068
       7     H     0.43842  0.43842  0.00000  0.12316
       8     C     3.09295  3.09295  0.00000 -0.18589
       9     H     0.44607  0.44607  0.00000  0.10785
      10     H     0.44379  0.44379  0.00000  0.11243
      11     C     3.08343  3.08343  0.00000 -0.16686
      12     H     0.45630  0.45630  0.00000  0.08739
      13     H     0.45168  0.45168  0.00000  0.09664
      14     C     3.15043  3.15043  0.00000 -0.30085
      15     H     0.45436  0.45436  0.00000  0.09129
      16     H     0.45152  0.45152  0.00000  0.09696
      17     H     0.45536  0.45536  0.00000  0.08928
      18     H     0.44796  0.44796  0.00000  0.10407
      19     H     0.45484  0.45484  0.00000  0.09031
      20     C     3.03780  3.03780  0.00000 -0.07559
      21     H     0.45433  0.45433  0.00000  0.09133
      22     H     0.44530  0.44530  0.00000  0.10940
      23     H     0.45433  0.45433  0.00000  0.09134

   Total alpha = 36.00000, Total beta = 36.00000, Total charge = -0.00000

*** Psi4 exiting successfully. Buy a developer a beer!
