  ==> Input File <==

--------------------------------------------------------------------------
set {
	reference rhf
	basis cc-pvtz
}

set_num_threads( 4 )
memory 2 gb

molecule MOL {
0 1

H	 2.190573	 -0.629143	 -0.208718
O	 1.355408	 -0.529451	 0.208662
C	 0.700177	 0.619554	 -0.266242
C	 -0.713111	 0.588314	 0.266177
H	 0.678680	 0.627133	 -1.351786
H	 1.199747	 1.521489	 0.077736
O	 -1.421673	 -0.521378	 -0.196983
H	 -1.244794	 1.469161	 -0.069059
H	 -0.685100	 0.604721	 1.352683
H	 -2.300872	 -0.252273	 -0.398518

	symmetry c1
}
set optking {
	frozen_dihedral = ("
		10 7 4 3
	")
}

ee = optimize('scf')
oeprop('DIPOLE', 'QUADRUPOLE', 'MULLIKEN_CHARGES')
f=open( 'psi4out.xyz', 'w' )
f.write( "10  " )
f.write( str(ee) + "\n" )
f.write( MOL.save_string_xyz() )
f.close()
--------------------------------------------------------------------------

    Molecular point group: c1
  Charge       = 0
  Multiplicity = 1
  Basis Set: CC-PVTZ
  Basis Set:
  @DF-RHF Final Energy:  -229.02096866254399
    Total Energy =                       -229.0209686625439076
    Molecular point group: c1
  Basis Set: CC-PVTZ
  Basis Set:
  Basis Set: CC-PVTZ
  Basis Set:
  @DF-RHF Final Energy:  -229.02225843624487
    Total Energy =                       -229.0222584362448117
  Basis Set: CC-PVTZ
  Basis Set:
  Basis Set: CC-PVTZ
  Basis Set:
  @DF-RHF Final Energy:  -229.02243804913650
    Total Energy =                       -229.0224380491363831
  Basis Set: CC-PVTZ
  Basis Set:
  Basis Set: CC-PVTZ
  Basis Set:
  @DF-RHF Final Energy:  -229.02245164481982
    Total Energy =                       -229.0224516448199097
  Basis Set: CC-PVTZ
  Basis Set:
  Basis Set: CC-PVTZ
  Basis Set:
  @DF-RHF Final Energy:  -229.02245364151409
    Total Energy =                       -229.0224536415140619
  Basis Set: CC-PVTZ
  Basis Set:
  Charge       = 0
  Multiplicity = 1
  Basis Set: CC-PVTZ
  Basis Set:

    Orbital Energies (a.u.)
    -----------------------

    Doubly Occupied:

       1A    -20.545694     2A    -20.545518     3A    -11.268870
       4A    -11.267900     5A     -1.374531     6A     -1.355024
       7A     -1.003597     8A     -0.833648     9A     -0.723603
      10A     -0.698175    11A     -0.633730    12A     -0.599213
      13A     -0.582134    14A     -0.521016    15A     -0.489282
      16A     -0.446988    17A     -0.434836

  @DF-RHF Final Energy:  -229.02245426870539

   => Energetics <=

    Nuclear Repulsion Energy =            133.3605376974449825
    One-Electron Energy =                -578.1184670299511481
    Two-Electron Energy =                 215.7354750638007204
    DFT Exchange-Correlation Energy =       0.0000000000000000
    Empirical Dispersion Energy =           0.0000000000000000
    PCM Polarization Energy =               0.0000000000000000
    EFP Energy =                            0.0000000000000000
    Total Energy =                       -229.0224542687054168
    Molecular point group: c1
  Basis Set: CC-PVTZ
  Basis Set:

  -Total Gradient:
     Atom            X                  Y                   Z
    ------   -----------------  -----------------  -----------------
       1        0.000012400765     0.000002788318     0.000012397435
       2       -0.000019820245     0.000008672356    -0.000020930076
       3       -0.000186686063     0.000505188446    -0.000649361985
       4        0.000423151490    -0.000550310622     0.000656373081
       5        0.000008479918    -0.000007813391    -0.000025929688
       6       -0.000004785371    -0.000024572509    -0.000021833223
       7       -0.000606095551    -0.000260354842     0.001316475705
       8       -0.000011246252    -0.000014536973     0.000013723669
       9       -0.000003111114    -0.000001328312     0.000015874783
      10        0.000387712422     0.000342267530    -0.001296789701

  **** Optimization is complete! (in 6 steps) ****
    Final optimized geometry and variables:
    Molecular point group: c1

    Geometry (in Angstrom), charge = 0, multiplicity = 1:

    H            2.230793076130    -0.627334967136    -0.186263716275
    O            1.419216068138    -0.511515454325     0.271418837040
    C            0.707559709547     0.564740454888    -0.268688758776
    C           -0.698354289724     0.555410332210     0.280758237906
    H            0.662002777359     0.500995007496    -1.351862833542
    H            1.178412832697     1.508801064179    -0.000468231087
    O           -1.422627914787    -0.524655724963    -0.242988816513
    H           -1.168863690643     1.499516315876     0.020374408670
    H           -0.656606347160     0.487826811084     1.363159987546
    H           -2.301197522944    -0.262459207191    -0.439853892532

  Mulliken Charges: (a.u.)
   Center  Symbol    Alpha    Beta     Spin     Total
       1     H     0.39524  0.39524  0.00000  0.20952
       2     O     4.19428  4.19428  0.00000 -0.38856
       3     C     2.95678  2.95678  0.00000  0.08644
       4     C     2.96385  2.96385  0.00000  0.07229
       5     H     0.47450  0.47450  0.00000  0.05100
       6     H     0.47883  0.47883  0.00000  0.04234
       7     O     4.19775  4.19775  0.00000 -0.39551
       8     H     0.47703  0.47703  0.00000  0.04595
       9     H     0.46854  0.46854  0.00000  0.06292
      10     H     0.39320  0.39320  0.00000  0.21361

   Total alpha = 17.00000, Total beta = 17.00000, Total charge =  0.00000
