  ==> Input File <==

--------------------------------------------------------------------------
set {
	reference rhf
	basis cc-pvtz
}

set_num_threads( 4 )
memory 2 gb

molecule MOL {
0 1

H	 1.239401	 1.545974	 0.862723
O	 0.430849	 1.057760	 0.899560
C	 0.489979	 0.078084	 0.002623
C	 -0.763662	 -0.754014	 0.000816
O	 1.435883	 -0.090283	 -0.686456
C	 -2.038001	 0.074705	 -0.000833
H	 -0.712945	 -1.405886	 -0.864342
H	 -0.715137	 -1.405770	 0.866182
H	 -2.087267	 0.710831	 -0.874232
H	 -2.903419	 -0.576199	 -0.001922
H	 -2.089467	 0.710909	 0.872389

	symmetry c1
}
set optking {
	frozen_dihedral = ("
		2 3 4 7
	")
}

ee = optimize('scf')
oeprop('DIPOLE', 'QUADRUPOLE', 'MULLIKEN_CHARGES')
f=open( 'psi4out.xyz', 'w' )
f.write( "11  " )
f.write( str(ee) + "\n" )
f.write( MOL.save_string_xyz() )
f.close()
--------------------------------------------------------------------------

    Molecular point group: c1
  Charge       = 0
  Multiplicity = 1
  Basis Set: CC-PVTZ
  Basis Set:
  @DF-RHF Final Energy:  -266.95107320671315
    Total Energy =                       -266.9510732067132039
    Molecular point group: c1
  Basis Set: CC-PVTZ
  Basis Set:
  Basis Set: CC-PVTZ
  Basis Set:
  @DF-RHF Final Energy:  -266.95135540562330
    Total Energy =                       -266.9513554056233033
  Basis Set: CC-PVTZ
  Basis Set:
  Basis Set: CC-PVTZ
  Basis Set:
  @DF-RHF Final Energy:  -266.95088461107298
    Total Energy =                       -266.9508846110726950
  Basis Set: CC-PVTZ
  Basis Set:
  Basis Set: CC-PVTZ
  Basis Set:
  @DF-RHF Final Energy:  -266.95143263815135
    Total Energy =                       -266.9514326381512319
  Basis Set: CC-PVTZ
  Basis Set:
  Charge       = 0
  Multiplicity = 1
  Basis Set: CC-PVTZ
  Basis Set:

    Orbital Energies (a.u.)
    -----------------------

    Doubly Occupied:

       1A    -20.606010     2A    -20.539894     3A    -11.373963
       4A    -11.242496     5A    -11.226232     6A     -1.478790
       7A     -1.369155     8A     -1.068468     9A     -0.912276
      10A     -0.823092    11A     -0.705827    12A     -0.684863
      13A     -0.651733    14A     -0.610135    15A     -0.592703
      16A     -0.550848    17A     -0.527002    18A     -0.512389
      19A     -0.481517    20A     -0.443647

  @DF-RHF Final Energy:  -266.95143435450461

   => Energetics <=

    Nuclear Repulsion Energy =            180.4165928472214091
    One-Electron Energy =                -721.9339749161634927
    Two-Electron Energy =                 274.5659477144374705
    DFT Exchange-Correlation Energy =       0.0000000000000000
    Empirical Dispersion Energy =           0.0000000000000000
    PCM Polarization Energy =               0.0000000000000000
    EFP Energy =                            0.0000000000000000
    Total Energy =                       -266.9514343545046131
    Molecular point group: c1
  Basis Set: CC-PVTZ
  Basis Set:

  -Total Gradient:
     Atom            X                  Y                   Z
    ------   -----------------  -----------------  -----------------
       1        0.000023942432     0.000047429051     0.000019756455
       2       -0.000191721715     0.000418190119    -0.000382199931
       3        0.000310293894    -0.000582319945     0.000344816249
       4        0.000226878045    -0.000459193914     0.000270814291
       5       -0.000094046457     0.000095690506     0.000109649234
       6        0.000067685114    -0.000028351692     0.000008892379
       7       -0.000327795930     0.000480963435    -0.000366920751
       8        0.000019735701     0.000005011721     0.000001725430
       9       -0.000014438210     0.000012274965    -0.000005185214
      10       -0.000013480130    -0.000004622951     0.000001651014
      11       -0.000007052747     0.000014928706    -0.000002999156

  **** Optimization is complete! (in 5 steps) ****
    Final optimized geometry and variables:
    Molecular point group: c1

    Geometry (in Angstrom), charge = 0, multiplicity = 1:

    H            1.350122636663     1.427934807117     0.799098812826
    O            0.527650954818     0.963379920517     0.838819114263
    C            0.560164716528    -0.022162343672    -0.053052426838
    C           -0.696103634949    -0.852626924331    -0.056790115328
    O            1.500602696631    -0.210908817791    -0.744811202446
    C           -1.988292153559    -0.038387744286    -0.058707849189
    H           -0.639774675648    -1.496476601787    -0.921581359541
    H           -0.657128343722    -1.481515027326     0.827078657049
    H           -2.039824860350     0.610313608659    -0.925190446851
    H           -2.840727843790    -0.704920204601    -0.091527154534
    H           -2.069668770413     0.575443206050     0.827048345081

  Mulliken Charges: (a.u.)
   Center  Symbol    Alpha    Beta     Spin     Total
       1     H     0.38042  0.38042  0.00000  0.23916
       2     O     4.16180  4.16180  0.00000 -0.32360
       3     C     2.80423  2.80423  0.00000  0.39154
       4     C     3.09107  3.09107  0.00000 -0.18213
       5     O     4.19328  4.19328  0.00000 -0.38657
       6     C     3.14594  3.14594  0.00000 -0.29188
       7     H     0.43452  0.43452  0.00000  0.13096
       8     H     0.44542  0.44542  0.00000  0.10916
       9     H     0.45045  0.45045  0.00000  0.09911
      10     H     0.44785  0.44785  0.00000  0.10431
      11     H     0.44502  0.44502  0.00000  0.10996

   Total alpha = 20.00000, Total beta = 20.00000, Total charge = -0.00000
