  ==> Input File <==

--------------------------------------------------------------------------
set {
	reference rhf
	basis 6-31G*
}

set_num_threads( 1 )
memory 2 gb

molecule MOL {
0 1

O	 1.470187	 1.951638	 0.411430
C	 0.588604	 2.058877	 1.201639
C	 -0.712384	 1.294283	 1.175348
O	 0.639710	 2.884998	 2.238967
C	 -0.823008	 0.326187	 0.001381
H	 -0.802226	 0.773651	 2.124866
H	 -1.517508	 2.023870	 1.161285
C	 -2.149452	 -0.435131	 -0.000098
H	 0.004819	 -0.374975	 0.036894
H	 -0.712344	 0.876568	 -0.927674
C	 -3.368779	 0.488503	 -0.000883
H	 -2.193746	 -1.087250	 -0.871175
H	 -2.195311	 -1.087803	 0.870418
C	 -4.693822	 -0.272754	 -0.001129
H	 -3.325798	 1.139422	 -0.871284
H	 -3.326423	 1.139959	 0.869145
H	 -4.781274	 -0.907928	 -0.878124
H	 -5.538651	 0.408946	 -0.001420
H	 -4.781694	 -0.907783	 0.875984
C	 1.813231	 3.664181	 2.382769
H	 2.679360	 3.028776	 2.499429
H	 1.664715	 4.260514	 3.269451
H	 1.953970	 4.301799	 1.521873

	symmetry c1
}
set optking {
	frozen_dihedral = ("
		15 11 8 12,
		1 2 3 6,
		9 5 3 6,
		1 2 4 20
	")
}

ee = energy('scf')
oeprop('DIPOLE', 'QUADRUPOLE', 'MULLIKEN_CHARGES')
f=open( 'psi4out.xyz', 'w' )
f.write( "23  " )
f.write( str(ee) + "\n" )
f.write( MOL.save_string_xyz() )
f.close()
--------------------------------------------------------------------------

    Molecular point group: c1

    Geometry (in Angstrom), charge = 0, multiplicity = 1:

       Center              X                  Y                   Z               Mass
    ------------   -----------------  -----------------  -----------------  -----------------
           O          2.249981522266     0.594633662286    -0.428363469403    15.994914619560
           C          1.368398522266     0.701872662286     0.361845530597    12.000000000000
           C          0.067410522266    -0.062721337714     0.335554530597    12.000000000000
           O          1.419504522266     1.527993662286     1.399173530597    15.994914619560
           C         -0.043213477734    -1.030817337714    -0.838412469403    12.000000000000
           H         -0.022431477734    -0.583353337714     1.285072530597     1.007825032070
           H         -0.737713477734     0.666865662286     0.321491530597     1.007825032070
           C         -1.369657477734    -1.792135337714    -0.839891469403    12.000000000000
           H          0.784613522266    -1.731979337714    -0.802899469403     1.007825032070
           H          0.067450522266    -0.480436337714    -1.767467469403     1.007825032070
           C         -2.588984477734    -0.868501337714    -0.840676469403    12.000000000000
           H         -1.413951477734    -2.444254337714    -1.710968469403     1.007825032070
           H         -1.415516477734    -2.444807337714     0.030624530597     1.007825032070
           C         -3.914027477734    -1.629758337714    -0.840922469403    12.000000000000
           H         -2.546003477734    -0.217582337714    -1.711077469403     1.007825032070
           H         -2.546628477734    -0.217045337714     0.029351530597     1.007825032070
           H         -4.001479477734    -2.264932337714    -1.717917469403     1.007825032070
           H         -4.758856477734    -0.948058337714    -0.841213469403     1.007825032070
           H         -4.001899477734    -2.264787337714     0.036190530597     1.007825032070
           C          2.593025522266     2.307176662286     1.542975530597    12.000000000000
           H          3.459154522266     1.671771662286     1.659635530597     1.007825032070
           H          2.444509522266     2.903509662286     2.429657530597     1.007825032070
           H          2.733764522266     2.944794662286     0.682079530597     1.007825032070

  Charge       = 0
  Multiplicity = 1
  Basis Set: 6-31G*
  Basis Set:

    Orbital Energies (a.u.)
    -----------------------

    Doubly Occupied:

       1A    -20.603447     2A    -20.545035     3A    -11.371950
       4A    -11.280720     5A    -11.234510     6A    -11.219220
       7A    -11.218428     8A    -11.217716     9A    -11.211091
      10A     -1.469077    11A     -1.362467    12A     -1.096475
      13A     -1.040790    14A     -0.987117    15A     -0.932833
      16A     -0.851508    17A     -0.793174    18A     -0.762887
      19A     -0.702399    20A     -0.682270    21A     -0.671964
      22A     -0.638079    23A     -0.621335    24A     -0.599666
      25A     -0.577529    26A     -0.557852    27A     -0.555358
      28A     -0.527470    29A     -0.520160    30A     -0.510973
      31A     -0.490779    32A     -0.467585    33A     -0.465453
      34A     -0.457187    35A     -0.452466    36A     -0.437172

  @DF-RHF Final Energy:  -422.97303683280580

   => Energetics <=

    Nuclear Repulsion Energy =            459.7549518657660315
    One-Electron Energy =               -1487.1876725605425236
    Two-Electron Energy =                 604.4596838619713708
    DFT Exchange-Correlation Energy =       0.0000000000000000
    Empirical Dispersion Energy =           0.0000000000000000
    PCM Polarization Energy =               0.0000000000000000
    EFP Energy =                            0.0000000000000000
    Total Energy =                       -422.9730368328050645

  Mulliken Charges: (a.u.)
   Center  Symbol    Alpha    Beta     Spin     Total
       1     O     4.28605  4.28605  0.00000 -0.57210
       2     C     2.60376  2.60376  0.00000  0.79247
       3     C     3.21301  3.21301  0.00000 -0.42603
       4     O     4.30726  4.30726  0.00000 -0.61452
       5     C     3.15305  3.15305  0.00000 -0.30610
       6     H     0.40108  0.40108  0.00000  0.19785
       7     H     0.39805  0.39805  0.00000  0.20389
       8     C     3.15461  3.15461  0.00000 -0.30921
       9     H     0.40961  0.40961  0.00000  0.18079
      10     H     0.41196  0.41196  0.00000  0.17608
      11     C     3.15768  3.15768  0.00000 -0.31535
      12     H     0.41794  0.41794  0.00000  0.16412
      13     H     0.42383  0.42383  0.00000  0.15235
      14     C     3.23828  3.23828  0.00000 -0.47656
      15     H     0.42158  0.42158  0.00000  0.15684
      16     H     0.42178  0.42178  0.00000  0.15644
      17     H     0.42096  0.42096  0.00000  0.15807
      18     H     0.41889  0.41889  0.00000  0.16221
      19     H     0.42154  0.42154  0.00000  0.15692
      20     C     3.09243  3.09243  0.00000 -0.18486
      21     H     0.40905  0.40905  0.00000  0.18190
      22     H     0.40849  0.40849  0.00000  0.18301
      23     H     0.40911  0.40911  0.00000  0.18178

   Total alpha = 36.00000, Total beta = 36.00000, Total charge =  0.00000
