                              Psi4 1.0.54 Driver

  ==> Input File <==

--------------------------------------------------------------------------
set {
	reference rhf
	basis cc-pvtz
}

set_num_threads( 4 )
memory 2 gb

molecule MOL {
0 1

H	 -3.162190	 0.493205	 -0.000107
C	 -2.363908	 -0.234727	 0.000005
O	 -1.158738	 0.454634	 -0.000087
H	 -2.464314	 -0.863616	 -0.882153
H	 -2.464327	 -0.863359	 0.882345
C	 -0.028611	 -0.359694	 0.000037
C	 1.212847	 0.509314	 -0.000053
H	 -0.034155	 -1.007047	 -0.877198
H	 -0.034195	 -1.006836	 0.877430
C	 1.100360	 1.685345	 -0.963717
H	 1.383378	 0.868144	 1.008949
H	 2.065954	 -0.107158	 -0.261055
H	 0.266324	 2.329500	 -0.705770
H	 1.999600	 2.288653	 -0.943518
H	 0.953764	 1.347684	 -1.984286

	symmetry c1
}
set optking {
	frozen_dihedral = ("
		11 7 6 8
	")
}

ee,wfn = optimize('scf', return_wfn=True)
oeprop( wfn, 'DIPOLE', 'QUADRUPOLE', 'MULLIKEN_CHARGES')
f=open( 'psi4out.xyz', 'w' )
f.write( "15  " )
f.write( str(ee) + "\n" )
f.write( MOL.save_string_xyz() )
f.close()
--------------------------------------------------------------------------

    Molecular point group: c1
  Charge       = 0
  Multiplicity = 1
  Basis Set: CC-PVTZ
  Basis Set:
  @DF-RHF Final Energy:  -232.22586232195081
    Total Energy =                       -232.2258623219506717
    Molecular point group: c1
  Basis Set: CC-PVTZ
  Basis Set:
  Basis Set: CC-PVTZ
  Basis Set:
  @DF-RHF Final Energy:  -232.22636018275128
    Total Energy =                       -232.2263601827510797
  Basis Set: CC-PVTZ
  Basis Set:
  Basis Set: CC-PVTZ
  Basis Set:
  @DF-RHF Final Energy:  -232.22665546049421
    Total Energy =                       -232.2266554604942712
  Basis Set: CC-PVTZ
  Basis Set:
  Basis Set: CC-PVTZ
  Basis Set:
  @DF-RHF Final Energy:  -232.22666511196090
    Total Energy =                       -232.2266651119608127
  Basis Set: CC-PVTZ
  Basis Set:
  Charge       = 0
  Multiplicity = 1
  Basis Set: CC-PVTZ
  Basis Set:

    Orbital Energies (a.u.)
    -----------------------

    Doubly Occupied:

       1A    -20.548772     2A    -11.264982     3A    -11.262667
       4A    -11.213924     5A    -11.201157     6A     -1.383404
       7A     -1.054122     8A     -0.951188     9A     -0.889592
      10A     -0.796971    11A     -0.673002    12A     -0.662145
      13A     -0.636086    14A     -0.596991    15A     -0.560740
      16A     -0.545194    17A     -0.504577    18A     -0.485527
      19A     -0.475295    20A     -0.460380    21A     -0.415472

  @DF-RHF Final Energy:  -232.22666578641525

   => Energetics <=

    Nuclear Repulsion Energy =            193.2534224356745085
    One-Electron Energy =                -697.7958064402074569
    Two-Electron Energy =                 272.3157182181176381
    DFT Exchange-Correlation Energy =       0.0000000000000000
    Empirical Dispersion Energy =           0.0000000000000000
    PCM Polarization Energy =               0.0000000000000000
    EFP Energy =                            0.0000000000000000
    Total Energy =                       -232.2266657864153103
    Molecular point group: c1
  Basis Set: CC-PVTZ
  Basis Set:

  -Total Gradient:
     Atom            X                  Y                   Z
    ------   -----------------  -----------------  -----------------
       1        0.000006932379     0.000007267928    -0.000001633017
       2        0.000013700176    -0.000020076318     0.000006189683
       3       -0.000016762376     0.000029445071     0.000002491289
       4       -0.000007189704    -0.000001709353    -0.000007883171
       5       -0.000006829769     0.000000688452     0.000002484039
       6       -0.002012874826     0.003030278902    -0.002604413447
       7       -0.002575928700     0.003610997047    -0.000464442505
       8        0.002122736272    -0.003120154978     0.002237988057
       9       -0.000017692236     0.000015632991     0.000005635164
      10        0.000026508689    -0.000019174588    -0.000000492970
      11        0.002472922750    -0.003547365824     0.000828718235
      12        0.000021872657    -0.000002454511    -0.000000799107
      13       -0.000011623803     0.000011301076     0.000008371369
      14       -0.000012201113    -0.000001814762    -0.000002775899
      15       -0.000003570400     0.000007138864    -0.000009437719

  **** Optimization is complete! (in 5 steps) ****
    Final optimized geometry and variables:
    Molecular point group: c1

    Geometry (in Angstrom), charge = 0, multiplicity = 1:

    H           -2.915448814065     0.018175236077     0.235666420448
    C           -2.096156792303    -0.685464359322     0.204686571193
    O           -0.911627099777     0.038372341431     0.209445514836
    H           -2.189329114080    -1.291378647197    -0.694153084198
    H           -2.166046618553    -1.342020250599     1.069463923373
    C            0.239621842295    -0.742072029006     0.168211579729
    C            1.481919169231     0.133094696078     0.205023522714
    H            0.250630613703    -1.373509992566    -0.720926092839
    H            0.255609703130    -1.421607569199     1.020435644773
    C            1.457636907674     1.298865940808    -0.775614471604
    H            1.646503918387     0.481401263531     1.219361469035
    H            2.328265599713    -0.511215919556    -0.019218498372
    H            0.654285272124     1.985014787960    -0.547015954114
    H            2.393209017552     1.845067425596    -0.740973031299
    H            1.315157028258     0.948397991688    -1.792798830716

  Mulliken Charges: (a.u.)
   Center  Symbol    Alpha    Beta     Spin     Total
       1     H     0.44728  0.44728  0.00000  0.10544
       2     C     3.03072  3.03072  0.00000 -0.06144
       3     O     4.17312  4.17312  0.00000 -0.34624
       4     H     0.47189  0.47189  0.00000  0.05622
       5     H     0.47150  0.47150  0.00000  0.05700
       6     C     2.97153  2.97153  0.00000  0.05693
       7     C     3.08317  3.08317  0.00000 -0.16635
       8     H     0.47285  0.47285  0.00000  0.05431
       9     H     0.46768  0.46768  0.00000  0.06465
      10     C     3.14522  3.14522  0.00000 -0.29044
      11     H     0.45296  0.45296  0.00000  0.09407
      12     H     0.45717  0.45717  0.00000  0.08566
      13     H     0.44504  0.44504  0.00000  0.10991
      14     H     0.45175  0.45175  0.00000  0.09649
      15     H     0.45811  0.45811  0.00000  0.08377

   Total alpha = 21.00000, Total beta = 21.00000, Total charge = -0.00000

*** Psi4 exiting successfully. Buy a developer a beer!
