                              Psi4 1.0.54 Driver

  ==> Input File <==

--------------------------------------------------------------------------
set {
	reference rhf
	basis cc-pvtz
}

set_num_threads( 4 )
memory 2 gb

molecule MOL {
0 1

O	 3.881312	 -0.330588	 -0.285988
C	 2.841259	 0.166180	 -0.000295
C	 1.542794	 -0.614730	 -0.000853
C	 2.744519	 1.624693	 0.386492
C	 0.288398	 0.247429	 0.000314
H	 1.557171	 -1.273139	 -0.866508
H	 1.557484	 -1.274998	 0.863344
C	 -0.993089	 -0.581367	 -0.000217
H	 0.305153	 0.900562	 -0.864701
H	 0.305567	 0.898805	 0.866656
C	 -2.258482	 0.271340	 0.000669
H	 -1.002280	 -1.233920	 -0.870484
H	 -1.002061	 -1.235367	 0.868958
C	 -3.544441	 -0.550271	 -0.000253
H	 -2.250545	 0.925250	 -0.867923
H	 -2.250598	 0.923423	 0.870642
C	 -4.804551	 0.308747	 0.000556
H	 -3.553737	 -1.201524	 -0.870151
H	 -3.553831	 -1.203282	 0.868313
H	 -4.842050	 0.949078	 -0.874436
H	 -5.698404	 -0.304480	 -0.000254
H	 -4.842277	 0.947103	 0.876982
H	 2.331082	 1.720428	 1.384466
H	 3.723242	 2.077916	 0.353590
H	 2.077271	 2.147357	 -0.290002

	symmetry c1
}
set optking {
	frozen_dihedral = ("
		1 2 3 6
	")
}

ee,wfn = optimize('scf', return_wfn=True)
oeprop( wfn, 'DIPOLE', 'QUADRUPOLE', 'MULLIKEN_CHARGES')
f=open( 'psi4out.xyz', 'w' )
f.write( "25  " )
f.write( str(ee) + "\n" )
f.write( MOL.save_string_xyz() )
f.close()
--------------------------------------------------------------------------

    Molecular point group: c1
  Charge       = 0
  Multiplicity = 1
  Basis Set: CC-PVTZ
  Basis Set:
  @DF-RHF Final Energy:  -387.26836756434653
    Total Energy =                       -387.2683675643464767
    Molecular point group: c1
  Basis Set: CC-PVTZ
  Basis Set:
  Basis Set: CC-PVTZ
  Basis Set:
  @DF-RHF Final Energy:  -387.26682314096780
    Total Energy =                       -387.2668231409677446
  Basis Set: CC-PVTZ
  Basis Set:
  Basis Set: CC-PVTZ
  Basis Set:
  @DF-RHF Final Energy:  -387.27049484309782
    Total Energy =                       -387.2704948430973673
  Basis Set: CC-PVTZ
  Basis Set:
  Basis Set: CC-PVTZ
  Basis Set:
  @DF-RHF Final Energy:  -387.27001046617545
    Total Energy =                       -387.2700104661754494
  Basis Set: CC-PVTZ
  Basis Set:
  Basis Set: CC-PVTZ
  Basis Set:
  @DF-RHF Final Energy:  -387.27063971980692
    Total Energy =                       -387.2706397198068089
  Basis Set: CC-PVTZ
  Basis Set:
  Basis Set: CC-PVTZ
  Basis Set:
  @DF-RHF Final Energy:  -387.27066325003057
    Total Energy =                       -387.2706632500303385
  Basis Set: CC-PVTZ
  Basis Set:
  Charge       = 0
  Multiplicity = 1
  Basis Set: CC-PVTZ
  Basis Set:

    Orbital Energies (a.u.)
    -----------------------

    Doubly Occupied:

       1A    -20.534673     2A    -11.320386     3A    -11.228961
       4A    -11.228061     5A    -11.226215     6A    -11.221747
       7A    -11.218610     8A    -11.217972     9A    -11.210728
      10A     -1.396041    11A     -1.102707    12A     -1.061738
      13A     -1.011020    14A     -0.972670    15A     -0.899130
      16A     -0.822291    17A     -0.797871    18A     -0.731764
      19A     -0.669627    20A     -0.650690    21A     -0.636665
      22A     -0.626523    23A     -0.598732    24A     -0.591096
      25A     -0.564267    26A     -0.561174    27A     -0.548080
      28A     -0.531017    29A     -0.524591    30A     -0.497124
      31A     -0.491874    32A     -0.472607    33A     -0.469851
      34A     -0.469109    35A     -0.461552    36A     -0.397763

  @DF-RHF Final Energy:  -387.27066374712786

   => Energetics <=

    Nuclear Repulsion Energy =            439.3585987946489695
    One-Electron Energy =               -1395.3286817237762989
    Two-Electron Energy =                 568.6994191819998150
    DFT Exchange-Correlation Energy =       0.0000000000000000
    Empirical Dispersion Energy =           0.0000000000000000
    PCM Polarization Energy =               0.0000000000000000
    EFP Energy =                            0.0000000000000000
    Total Energy =                       -387.2706637471275144
    Molecular point group: c1
  Basis Set: CC-PVTZ
  Basis Set:

  -Total Gradient:
     Atom            X                  Y                   Z
    ------   -----------------  -----------------  -----------------
       1        0.000075149601    -0.000244893814     0.001561172673
       2       -0.000259487926     0.000508592046    -0.002365108111
       3        0.000719688260    -0.001386157396     0.001768293912
       4       -0.000032362438     0.000079407685     0.000042267877
       5        0.000004135228     0.000019716863     0.000027219941
       6       -0.000543560981     0.001066775834    -0.000995582418
       7       -0.000002664994     0.000003267961    -0.000003969362
       8       -0.000009922124    -0.000011093370    -0.000001440022
       9       -0.000002726951    -0.000011508180     0.000007863052
      10       -0.000005085976     0.000001569447    -0.000004261633
      11        0.000019126528     0.000011958684    -0.000002602968
      12       -0.000006119783     0.000000807587     0.000003950893
      13       -0.000000234829     0.000007641899    -0.000003337292
      14       -0.000002101563    -0.000012571726    -0.000004557794
      15        0.000001971524    -0.000000192209     0.000004676298
      16        0.000008182195    -0.000005783583    -0.000003402680
      17        0.000015179335    -0.000002467092    -0.000001952846
      18       -0.000007184380     0.000002213537     0.000004900796
      19       -0.000001955127     0.000004456742    -0.000005449736
      20        0.000000557394    -0.000003040256     0.000005133341
      21        0.000007655288     0.000000693371     0.000000300099
      22        0.000002115539    -0.000005370313    -0.000004170440
      23        0.000021697696    -0.000010301346    -0.000034927488
      24        0.000001460036    -0.000019384334     0.000004817452
      25       -0.000003511530     0.000005661963     0.000000166457

  **** Optimization is complete! (in 7 steps) ****
    Final optimized geometry and variables:
    Molecular point group: c1

    Geometry (in Angstrom), charge = 0, multiplicity = 1:

    O            3.872577038154    -0.659477875113    -0.118295236036
    C            2.903400575952    -0.002101085771     0.082446011924
    C            1.535584217245    -0.669542240358     0.104908714872
    C            3.017464620628     1.476381940473     0.371408935131
    C            0.303143381181     0.224169280470    -0.012502113292
    H            1.543050618477    -1.399020225532    -0.695814524663
    H            1.497848185548    -1.233039954997     1.033465457166
    C           -0.994931370345    -0.579248715482     0.007697399152
    H            0.351065201383     0.795630430828    -0.935300768221
    H            0.283632613618     0.947464945983     0.796443842703
    C           -2.243552748122     0.288744574198    -0.116414897649
    H           -0.979547463757    -1.305050191058    -0.801242071211
    H           -1.045960428535    -1.153305427686     0.929586656939
    C           -3.542293403275    -0.512351380884    -0.097375946612
    H           -2.191580978137     0.863495348349    -1.038134531392
    H           -2.259225054618     1.014451255124     0.693417504104
    C           -4.786431954302     0.360542036799    -0.222220707177
    H           -3.528385857437    -1.237097631755    -0.906715225273
    H           -3.596182967684    -1.086254560333     0.823655903430
    H           -4.779368470369     0.921694037229    -1.150736346865
    H           -5.689507094712    -0.238504544354    -0.205355915155
    H           -4.847699801452     1.073803397569     0.593028771266
    H            2.594009099560     1.701461048354     1.344069355897
    H            4.057707570108     1.761785907159     0.353292287641
    H            2.466176486896     2.054399474392    -0.360608597757

  Mulliken Charges: (a.u.)
   Center  Symbol    Alpha    Beta     Spin     Total
       1     O     4.17557  4.17557  0.00000 -0.35114
       2     C     2.86155  2.86155  0.00000  0.27690
       3     C     3.09924  3.09924  0.00000 -0.19847
       4     C     3.16428  3.16428  0.00000 -0.32855
       5     C     3.10459  3.10459  0.00000 -0.20918
       6     H     0.43700  0.43700  0.00000  0.12599
       7     H     0.44004  0.44004  0.00000  0.11993
       8     C     3.09027  3.09027  0.00000 -0.18054
       9     H     0.44920  0.44920  0.00000  0.10161
      10     H     0.45033  0.45033  0.00000  0.09934
      11     C     3.08553  3.08553  0.00000 -0.17107
      12     H     0.45141  0.45141  0.00000  0.09717
      13     H     0.45288  0.45288  0.00000  0.09423
      14     C     3.08526  3.08526  0.00000 -0.17053
      15     H     0.45463  0.45463  0.00000  0.09073
      16     H     0.45506  0.45506  0.00000  0.08989
      17     C     3.15029  3.15029  0.00000 -0.30059
      18     H     0.45372  0.45372  0.00000  0.09256
      19     H     0.45401  0.45401  0.00000  0.09197
      20     H     0.45489  0.45489  0.00000  0.09022
      21     H     0.44763  0.44763  0.00000  0.10475
      22     H     0.45508  0.45508  0.00000  0.08985
      23     H     0.44780  0.44780  0.00000  0.10439
      24     H     0.43188  0.43188  0.00000  0.13623
      25     H     0.44785  0.44785  0.00000  0.10429

   Total alpha = 36.00000, Total beta = 36.00000, Total charge = -0.00000

*** Psi4 exiting successfully. Buy a developer a beer!
