  ==> Input File <==

--------------------------------------------------------------------------
set {
	reference rhf
	basis 6-31G*
}

set_num_threads( 1 )
memory 2 gb

molecule MOL {
0 1

H	 -3.420663	 1.227371	 -1.044276
O	 -3.452007	 0.283848	 -0.965577
C	 -3.181085	 -0.079926	 0.364119
C	 -1.765924	 0.277073	 0.805136
H	 -3.327791	 -1.152017	 0.410903
H	 -3.905698	 0.375695	 1.036898
C	 -0.677594	 -0.417312	 -0.014550
H	 -1.637766	 1.358238	 0.744969
H	 -1.659588	 0.017670	 1.857098
C	 0.738335	 -0.034840	 0.421385
H	 -0.814977	 -0.178223	 -1.064632
H	 -0.802730	 -1.495410	 0.071702
C	 1.367308	 -1.064374	 1.364007
H	 1.359521	 0.087751	 -0.462650
H	 0.715417	 0.935750	 0.915384
C	 2.752180	 -0.682436	 1.899178
H	 1.432067	 -2.025090	 0.855552
H	 0.700042	 -1.214502	 2.210195
C	 3.848894	 -0.615095	 0.834711
H	 3.042798	 -1.410509	 2.652665
H	 2.687855	 0.274967	 2.412445
H	 3.927723	 -1.555669	 0.295966
H	 4.814507	 -0.413429	 1.288317
H	 3.662027	 0.168083	 0.107472

	symmetry c1
}
set optking {
	frozen_dihedral = ("
		20 16 13 17,
		17 13 10 7,
		11 7 4 3,
		1 2 3 5,
		7 4 3 2
	")
}

ee = energy('scf')
oeprop('DIPOLE', 'QUADRUPOLE', 'MULLIKEN_CHARGES')
f=open( 'psi4out.xyz', 'w' )
f.write( "24  " )
f.write( str(ee) + "\n" )
f.write( MOL.save_string_xyz() )
f.close()
--------------------------------------------------------------------------

    Molecular point group: c1

    Geometry (in Angstrom), charge = 0, multiplicity = 1:

       Center              X                  Y                   Z               Mass
    ------------   -----------------  -----------------  -----------------  -----------------
           H         -3.322459098987     1.502097211813    -1.604279512817     1.007825032070
           O         -3.353803098987     0.558574211813    -1.525580512817    15.994914619560
           C         -3.082881098987     0.194800211813    -0.195884512817    12.000000000000
           C         -1.667720098987     0.551799211813     0.245132487183    12.000000000000
           H         -3.229587098987    -0.877290788187    -0.149100512817     1.007825032070
           H         -3.807494098987     0.650421211813     0.476894487183     1.007825032070
           C         -0.579390098987    -0.142585788187    -0.574553512817    12.000000000000
           H         -1.539562098987     1.632964211813     0.184965487183     1.007825032070
           H         -1.561384098987     0.292396211813     1.297094487183     1.007825032070
           C          0.836538901013     0.239886211813    -0.138618512817    12.000000000000
           H         -0.716773098987     0.096503211813    -1.624635512817     1.007825032070
           H         -0.704526098987    -1.220683788187    -0.488301512817     1.007825032070
           C          1.465511901013    -0.789647788187     0.804003487183    12.000000000000
           H          1.457724901013     0.362477211813    -1.022653512817     1.007825032070
           H          0.813620901013     1.210476211813     0.355380487183     1.007825032070
           C          2.850383901013    -0.407709788187     1.339174487183    12.000000000000
           H          1.530270901013    -1.750363788187     0.295548487183     1.007825032070
           H          0.798245901013    -0.939775788187     1.650191487183     1.007825032070
           C          3.947097901013    -0.340368788187     0.274707487183    12.000000000000
           H          3.141001901013    -1.135782788187     2.092661487183     1.007825032070
           H          2.786058901013     0.549693211813     1.852441487183     1.007825032070
           H          4.025926901013    -1.280942788187    -0.264037512817     1.007825032070
           H          4.912710901013    -0.138702788187     0.728313487183     1.007825032070
           H          3.760230901013     0.442809211813    -0.452531512817     1.007825032070

  Charge       = 0
  Multiplicity = 1
  Basis Set: 6-31G*
  Basis Set:

    Orbital Energies (a.u.)
    -----------------------

    Doubly Occupied:

       1A    -20.553444     2A    -11.267362     3A    -11.217581
       4A    -11.214310     5A    -11.212797     6A    -11.211080
       7A    -11.209883     8A    -11.207339     9A     -1.359993
      10A     -1.089530    11A     -1.047572    12A     -0.984927
      13A     -0.915366    14A     -0.851742    15A     -0.802339
      16A     -0.775655    17A     -0.679908    18A     -0.646621
      19A     -0.626945    20A     -0.619128    21A     -0.594746
      22A     -0.584894    23A     -0.567862    24A     -0.535378
      25A     -0.520870    26A     -0.510769    27A     -0.490567
      28A     -0.484003    29A     -0.466140    30A     -0.458582
      31A     -0.457678    32A     -0.437802    33A     -0.421895

  @DF-RHF Final Energy:  -349.24333049188226

   => Energetics <=

    Nuclear Repulsion Energy =            386.1667689897401488
    One-Electron Energy =               -1238.7707802238528529
    Two-Electron Energy =                 503.3606807422310112
    DFT Exchange-Correlation Energy =       0.0000000000000000
    Empirical Dispersion Energy =           0.0000000000000000
    PCM Polarization Energy =               0.0000000000000000
    EFP Energy =                            0.0000000000000000
    Total Energy =                       -349.2433304918816930

  Mulliken Charges: (a.u.)
   Center  Symbol    Alpha    Beta     Spin     Total
       1     H     0.28339  0.28339  0.00000  0.43323
       2     O     4.36824  4.36824  0.00000 -0.73648
       3     C     2.99632  2.99632  0.00000  0.00735
       4     C     3.17035  3.17035  0.00000 -0.34070
       5     H     0.41631  0.41631  0.00000  0.16739
       6     H     0.42837  0.42837  0.00000  0.14327
       7     C     3.15537  3.15537  0.00000 -0.31074
       8     H     0.42774  0.42774  0.00000  0.14452
       9     H     0.42218  0.42218  0.00000  0.15564
      10     C     3.15673  3.15673  0.00000 -0.31345
      11     H     0.40982  0.40982  0.00000  0.18035
      12     H     0.42155  0.42155  0.00000  0.15691
      13     C     3.15390  3.15390  0.00000 -0.30781
      14     H     0.41845  0.41845  0.00000  0.16311
      15     H     0.42417  0.42417  0.00000  0.15167
      16     C     3.15244  3.15244  0.00000 -0.30488
      17     H     0.42308  0.42308  0.00000  0.15384
      18     H     0.42346  0.42346  0.00000  0.15309
      19     C     3.24098  3.24098  0.00000 -0.48195
      20     H     0.42149  0.42149  0.00000  0.15702
      21     H     0.42395  0.42395  0.00000  0.15209
      22     H     0.42210  0.42210  0.00000  0.15580
      23     H     0.41956  0.41956  0.00000  0.16088
      24     H     0.42007  0.42007  0.00000  0.15986

   Total alpha = 33.00000, Total beta = 33.00000, Total charge = -0.00000
