  ==> Input File <==

--------------------------------------------------------------------------
set {
	reference rhf
	basis 6-31G*
}

set_num_threads( 1 )
memory 2 gb

molecule MOL {
0 1

H	 -3.931469	 1.100820	 -0.974822
O	 -3.452007	 0.283848	 -0.965577
C	 -3.181085	 -0.079926	 0.364119
C	 -1.765924	 0.277073	 0.805136
H	 -3.327791	 -1.152017	 0.410903
H	 -3.905698	 0.375695	 1.036898
C	 -0.677594	 -0.417312	 -0.014550
H	 -1.637766	 1.358238	 0.744969
H	 -1.659588	 0.017670	 1.857098
C	 0.738335	 -0.034840	 0.421385
H	 -0.814977	 -0.178223	 -1.064632
H	 -0.802730	 -1.495410	 0.071702
C	 1.822265	 -0.738362	 -0.399735
H	 0.853533	 1.043532	 0.342250
H	 0.871597	 -0.279636	 1.474438
C	 3.258060	 -0.455774	 0.057203
H	 1.718003	 -0.459167	 -1.447053
H	 1.651028	 -1.811884	 -0.354513
C	 3.709143	 0.994797	 -0.123830
H	 3.930637	 -1.101717	 -0.501982
H	 3.365259	 -0.739518	 1.102287
H	 3.601178	 1.310569	 -1.158127
H	 4.753787	 1.110486	 0.148516
H	 3.135362	 1.678896	 0.492569

	symmetry c1
}
set optking {
	frozen_dihedral = ("
		20 16 13 17,
		17 13 10 7,
		13 10 7 11,
		11 7 4 3,
		7 4 3 2
	")
}

ee = energy('scf')
oeprop('DIPOLE', 'QUADRUPOLE', 'MULLIKEN_CHARGES')
f=open( 'psi4out.xyz', 'w' )
f.write( "24  " )
f.write( str(ee) + "\n" )
f.write( MOL.save_string_xyz() )
f.close()
--------------------------------------------------------------------------

    Molecular point group: c1

    Geometry (in Angstrom), charge = 0, multiplicity = 1:

       Center              X                  Y                   Z               Mass
    ------------   -----------------  -----------------  -----------------  -----------------
           H         -3.927036054646     1.101918681192    -0.975424633028     1.007825032070
           O         -3.447574054646     0.284946681192    -0.966179633028    15.994914619560
           C         -3.176652054646    -0.078827318808     0.363516366972    12.000000000000
           C         -1.761491054646     0.278171681192     0.804533366972    12.000000000000
           H         -3.323358054646    -1.150918318808     0.410300366972     1.007825032070
           H         -3.901265054646     0.376793681192     1.036295366972     1.007825032070
           C         -0.673161054646    -0.416213318808    -0.015152633028    12.000000000000
           H         -1.633333054646     1.359336681192     0.744366366972     1.007825032070
           H         -1.655155054646     0.018768681192     1.856495366972     1.007825032070
           C          0.742767945354    -0.033741318808     0.420782366972    12.000000000000
           H         -0.810544054646    -0.177124318808    -1.065234633028     1.007825032070
           H         -0.798297054646    -1.494311318808     0.071099366972     1.007825032070
           C          1.826697945354    -0.737263318808    -0.400337633028    12.000000000000
           H          0.857965945354     1.044630681192     0.341647366972     1.007825032070
           H          0.876029945354    -0.278537318808     1.473835366972     1.007825032070
           C          3.262492945354    -0.454675318808     0.056600366972    12.000000000000
           H          1.722435945354    -0.458068318808    -1.447655633028     1.007825032070
           H          1.655460945354    -1.810785318808    -0.355115633028     1.007825032070
           C          3.713575945354     0.995895681192    -0.124432633028    12.000000000000
           H          3.935069945354    -1.100618318808    -0.502584633028     1.007825032070
           H          3.369691945354    -0.738419318808     1.101684366972     1.007825032070
           H          3.605610945354     1.311667681192    -1.158729633028     1.007825032070
           H          4.758219945354     1.111584681192     0.147913366972     1.007825032070
           H          3.139794945354     1.679994681192     0.491966366972     1.007825032070

  Charge       = 0
  Multiplicity = 1
  Basis Set: 6-31G*
  Basis Set:

    Orbital Energies (a.u.)
    -----------------------

    Doubly Occupied:

       1A    -20.552720     2A    -11.267742     3A    -11.213334
       4A    -11.212295     5A    -11.209792     6A    -11.209206
       7A    -11.207592     8A    -11.205683     9A     -1.359715
      10A     -1.085891    11A     -1.046102    12A     -0.983868
      13A     -0.912800    14A     -0.846620    15A     -0.795648
      16A     -0.773993    17A     -0.692174    18A     -0.650608
      19A     -0.623787    20A     -0.613613    21A     -0.586783
      22A     -0.581721    23A     -0.556914    24A     -0.538224
      25A     -0.518132    26A     -0.504298    27A     -0.495828
      28A     -0.476504    29A     -0.467561    30A     -0.454463
      31A     -0.452567    32A     -0.443262    33A     -0.419111

  @DF-RHF Final Energy:  -349.24613393727003

   => Energetics <=

    Nuclear Repulsion Energy =            384.0307920801691921
    One-Electron Energy =               -1234.6365306942479947
    Two-Electron Energy =                 501.3596046768089991
    DFT Exchange-Correlation Energy =       0.0000000000000000
    Empirical Dispersion Energy =           0.0000000000000000
    PCM Polarization Energy =               0.0000000000000000
    EFP Energy =                            0.0000000000000000
    Total Energy =                       -349.2461339372697466

  Mulliken Charges: (a.u.)
   Center  Symbol    Alpha    Beta     Spin     Total
       1     H     0.28074  0.28074  0.00000  0.43851
       2     O     4.36977  4.36977  0.00000 -0.73953
       3     C     3.00124  3.00124  0.00000 -0.00248
       4     C     3.15922  3.15922  0.00000 -0.31845
       5     H     0.41940  0.41940  0.00000  0.16120
       6     H     0.42918  0.42918  0.00000  0.14164
       7     C     3.15390  3.15390  0.00000 -0.30780
       8     H     0.42564  0.42564  0.00000  0.14872
       9     H     0.42517  0.42517  0.00000  0.14966
      10     C     3.15363  3.15363  0.00000 -0.30725
      11     H     0.40916  0.40916  0.00000  0.18167
      12     H     0.42505  0.42505  0.00000  0.14989
      13     C     3.15221  3.15221  0.00000 -0.30442
      14     H     0.42236  0.42236  0.00000  0.15528
      15     H     0.42614  0.42614  0.00000  0.14771
      16     C     3.15220  3.15220  0.00000 -0.30440
      17     H     0.42345  0.42345  0.00000  0.15310
      18     H     0.42250  0.42250  0.00000  0.15499
      19     C     3.24094  3.24094  0.00000 -0.48189
      20     H     0.42143  0.42143  0.00000  0.15715
      21     H     0.42405  0.42405  0.00000  0.15190
      22     H     0.42221  0.42221  0.00000  0.15557
      23     H     0.41994  0.41994  0.00000  0.16011
      24     H     0.42045  0.42045  0.00000  0.15910

   Total alpha = 33.00000, Total beta = 33.00000, Total charge = -0.00000
