  ==> Input File <==

--------------------------------------------------------------------------
set {
	reference rhf
	basis cc-pvtz
}

set_num_threads( 4 )
memory 2 gb

molecule MOL {
0 1

H	 2.342730	 0.877684	 -1.045694
C	 2.360424	 0.000000	 -0.411793
C	 1.173749	 0.000000	 0.526870
H	 3.286567	 0.000000	 0.151574
H	 2.342730	 -0.877684	 -1.045694
O	 -0.000000	 0.000000	 -0.223739
H	 1.203779	 0.876757	 1.172538
H	 1.203779	 -0.876757	 1.172538
C	 -1.173749	 0.000000	 0.526870
C	 -2.346149	 -0.274013	 -0.389471
H	 -1.299551	 0.961635	 1.022776
H	 -1.118543	 -0.759391	 1.305824
H	 -2.413820	 0.486914	 -1.156859
H	 -3.272049	 -0.278677	 0.174276
H	 -2.232620	 -1.235932	 -0.873512

	symmetry c1
}
set optking {
	frozen_dihedral = ("
		11 9 6 3
	")
}

ee = optimize('scf')
oeprop('DIPOLE', 'QUADRUPOLE', 'MULLIKEN_CHARGES')
f=open( 'psi4out.xyz', 'w' )
f.write( "15  " )
f.write( str(ee) + "\n" )
f.write( MOL.save_string_xyz() )
f.close()
--------------------------------------------------------------------------

    Molecular point group: c1
  Charge       = 0
  Multiplicity = 1
  Basis Set: CC-PVTZ
  Basis Set:
  @DF-RHF Final Energy:  -232.23335579567674
    Total Energy =                       -232.2333557956770846
    Molecular point group: c1
  Basis Set: CC-PVTZ
  Basis Set:
  Basis Set: CC-PVTZ
  Basis Set:
  @DF-RHF Final Energy:  -232.23337273897147
    Total Energy =                       -232.2333727389714682
  Basis Set: CC-PVTZ
  Basis Set:
  Charge       = 0
  Multiplicity = 1
  Basis Set: CC-PVTZ
  Basis Set:

    Orbital Energies (a.u.)
    -----------------------

    Doubly Occupied:

       1A    -20.545364     2A    -11.266255     3A    -11.266146
       4A    -11.207265     5A    -11.207118     6A     -1.381310
       7A     -1.045119     8A     -0.983345     9A     -0.846941
      10A     -0.826427    11A     -0.679846    12A     -0.669131
      13A     -0.609839    14A     -0.597640    15A     -0.549687
      16A     -0.531720    17A     -0.522909    18A     -0.493679
      19A     -0.487730    20A     -0.466541    21A     -0.413851

  @DF-RHF Final Energy:  -232.23337537440153

   => Energetics <=

    Nuclear Repulsion Energy =            191.3070423892516487
    One-Electron Energy =                -693.8851148649139304
    Two-Electron Energy =                 270.3446971012606355
    DFT Exchange-Correlation Energy =       0.0000000000000000
    Empirical Dispersion Energy =           0.0000000000000000
    PCM Polarization Energy =               0.0000000000000000
    EFP Energy =                            0.0000000000000000
    Total Energy =                       -232.2333753744016462
    Molecular point group: c1
  Basis Set: CC-PVTZ
  Basis Set:

  -Total Gradient:
     Atom            X                  Y                   Z
    ------   -----------------  -----------------  -----------------
       1        0.000007491293     0.000004643105    -0.000009164103
       2       -0.000023516855     0.000013984210    -0.000009669150
       3        0.000029423963    -0.001271728712     0.000037175053
       4       -0.000004926348     0.000006360304     0.000007990702
       5       -0.000001028735    -0.000003415312    -0.000001608785
       6       -0.000231925209     0.001827446344    -0.000320986335
       7        0.000006567228     0.000010329033    -0.000002379458
       8       -0.000001213713     0.000009692396    -0.000006088462
       9        0.000968517860    -0.001102311511     0.001541419458
      10        0.000045448632     0.000010309003     0.000019946239
      11       -0.000784582892     0.000560405842    -0.001185251237
      12        0.000006854192    -0.000029811482    -0.000050628691
      13       -0.000011936063    -0.000014758629     0.000010999079
      14       -0.000000423309     0.000005206722    -0.000004316359
      15       -0.000004750041    -0.000026351313    -0.000027437951

  **** Optimization is complete! (in 3 steps) ****
    Final optimized geometry and variables:
    Molecular point group: c1

    Geometry (in Angstrom), charge = 0, multiplicity = 1:

    H            2.334125902388     0.945409993729    -1.048097129006
    C            2.357204646302     0.064506600493    -0.418754797997
    C            1.172608493684     0.053400442398     0.522483727178
    H            3.284590413020     0.065983973700     0.142787129193
    H            2.342282930653    -0.809981584492    -1.057294768899
    O           -0.002561533322     0.045731299142    -0.225854211190
    H            1.199268346243     0.928822200295     1.170617428539
    H            1.209654808134    -0.824727696006     1.165531206871
    C           -1.177157168531     0.054019374340     0.523872439966
    C           -2.349857407994    -0.214530395732    -0.394833192070
    H           -1.302142205175     1.021361917539     1.008966005682
    H           -1.130303444875    -0.702790067632     1.304974324522
    H           -2.400937030370     0.537030635829    -1.172779166473
    H           -3.278802491886    -0.194945356522     0.163904433708
    H           -2.250405851143    -1.184674646943    -0.865670041666

  Mulliken Charges: (a.u.)
   Center  Symbol    Alpha    Beta     Spin     Total
       1     H     0.45153  0.45153  0.00000  0.09693
       2     C     3.13504  3.13504  0.00000 -0.27008
       3     C     2.96692  2.96692  0.00000  0.06616
       4     H     0.45890  0.45890  0.00000  0.08219
       5     H     0.45161  0.45161  0.00000  0.09677
       6     O     4.17911  4.17911  0.00000 -0.35823
       7     H     0.47410  0.47410  0.00000  0.05180
       8     H     0.47257  0.47257  0.00000  0.05486
       9     C     2.96740  2.96740  0.00000  0.06520
      10     C     3.13479  3.13479  0.00000 -0.26957
      11     H     0.47107  0.47107  0.00000  0.05787
      12     H     0.47445  0.47445  0.00000  0.05109
      13     H     0.45116  0.45116  0.00000  0.09767
      14     H     0.45903  0.45903  0.00000  0.08194
      15     H     0.45230  0.45230  0.00000  0.09540

   Total alpha = 21.00000, Total beta = 21.00000, Total charge =  0.00000
