  ==> Input File <==

--------------------------------------------------------------------------
set {
	reference rhf
	basis cc-pvtz
}

set_num_threads( 4 )
memory 2 gb

molecule MOL {
0 1

H	 -3.431247	 -0.761353	 -0.592740
O	 -3.110492	 -0.171307	 0.065529
C	 -1.774168	 -0.067297	 0.018427
C	 -1.011627	 -0.767380	 -0.908315
C	 -1.164798	 0.772486	 0.935823
H	 -1.491631	 -1.416987	 -1.616858
C	 0.355546	 -0.624156	 -0.912883
H	 -1.771237	 1.303178	 1.641952
C	 0.205308	 0.904832	 0.917992
H	 0.955045	 -1.158751	 -1.622754
C	 0.981121	 0.213562	 0.000000
H	 0.679119	 1.556074	 1.629262
C	 2.447402	 0.371303	 0.000000
O	 3.227427	 -0.521847	 0.000000
H	 2.796538	 1.409525	 0.000000

	symmetry c1
}
set optking {
	frozen_dihedral = ("
		7 11 13 14
	")
}

ee = optimize('scf')
oeprop('DIPOLE', 'QUADRUPOLE', 'MULLIKEN_CHARGES')
f=open( 'psi4out.xyz', 'w' )
f.write( "15  " )
f.write( str(ee) + "\n" )
f.write( MOL.save_string_xyz() )
f.close()
--------------------------------------------------------------------------

    Molecular point group: c1
  Charge       = 0
  Multiplicity = 1
  Basis Set: CC-PVTZ
  Basis Set:
  @DF-RHF Final Energy:  -418.43352438608298
    Total Energy =                       -418.4335243860825813
    Molecular point group: c1
  Basis Set: CC-PVTZ
  Basis Set:
  Basis Set: CC-PVTZ
  Basis Set:
  @DF-RHF Final Energy:  -418.43261405225007
    Total Energy =                       -418.4326140522501873
  Basis Set: CC-PVTZ
  Basis Set:
  Basis Set: CC-PVTZ
  Basis Set:
  @DF-RHF Final Energy:  -418.43419700254742
    Total Energy =                       -418.4341970025476485
  Basis Set: CC-PVTZ
  Basis Set:
  Basis Set: CC-PVTZ
  Basis Set:
  @DF-RHF Final Energy:  -418.43444745273428
    Total Energy =                       -418.4344474527346165
  Basis Set: CC-PVTZ
  Basis Set:
  Basis Set: CC-PVTZ
  Basis Set:
  @DF-RHF Final Energy:  -418.43445117561470
    Total Energy =                       -418.4344511756144129
  Basis Set: CC-PVTZ
  Basis Set:
  Basis Set: CC-PVTZ
  Basis Set:
  @DF-RHF Final Energy:  -418.43445336153292
    Total Energy =                       -418.4344533615327464
  Basis Set: CC-PVTZ
  Basis Set:
  Charge       = 0
  Multiplicity = 1
  Basis Set: CC-PVTZ
  Basis Set:

    Orbital Energies (a.u.)
    -----------------------

    Doubly Occupied:

       1A    -20.600704     2A    -20.553779     3A    -11.326674
       4A    -11.317061     5A    -11.254975     6A    -11.254140
       7A    -11.240953     8A    -11.239890     9A    -11.236505
      10A     -1.433142    11A     -1.408690    12A     -1.174256
      13A     -1.042933    14A     -1.041356    15A     -0.890797
      16A     -0.868447    17A     -0.799665    18A     -0.759526
      19A     -0.715988    20A     -0.673993    21A     -0.653435
      22A     -0.631667    23A     -0.611658    24A     -0.609342
      25A     -0.592502    26A     -0.565644    27A     -0.541952
      28A     -0.507732    29A     -0.494330    30A     -0.424071
      31A     -0.360334    32A     -0.329998

  @DF-RHF Final Energy:  -418.43445342297196

   => Energetics <=

    Nuclear Repulsion Energy =            401.5911482087325339
    One-Electron Energy =               -1365.7389237885793136
    Two-Electron Energy =                 545.7133221568747103
    DFT Exchange-Correlation Energy =       0.0000000000000000
    Empirical Dispersion Energy =           0.0000000000000000
    PCM Polarization Energy =               0.0000000000000000
    EFP Energy =                            0.0000000000000000
    Total Energy =                       -418.4344534229720693
    Molecular point group: c1
  Basis Set: CC-PVTZ
  Basis Set:

  -Total Gradient:
     Atom            X                  Y                   Z
    ------   -----------------  -----------------  -----------------
       1       -0.000002676490     0.000004760719    -0.000000838891
       2       -0.000035619712     0.000030574632    -0.000039497635
       3        0.000047503164    -0.000102281942     0.000082218503
       4       -0.000039386577     0.000037502570    -0.000002438369
       5       -0.000019634894     0.000000073749    -0.000057058931
       6       -0.000011205295     0.000000802806     0.000007801682
       7       -0.000919477675     0.005490989549    -0.004178165867
       8        0.000005011659    -0.000002561843    -0.000005150107
       9       -0.000010804732    -0.000164478069     0.000050586305
      10        0.000004697996    -0.000011031457     0.000018528796
      11        0.001499123030    -0.008042510201     0.009922517910
      12       -0.000003901121     0.000065275841    -0.000061281872
      13       -0.000712581375     0.002954657881    -0.014061387856
      14        0.000214028410    -0.000275927076     0.008369092064
      15       -0.000015076393     0.000014152839    -0.000044925732

  **** Optimization is complete! (in 7 steps) ****
    Final optimized geometry and variables:
    Molecular point group: c1

    Geometry (in Angstrom), charge = 0, multiplicity = 1:

    H           -3.443391726032    -0.751023195209    -0.593264151821
    O           -3.120687997908    -0.156878686592     0.060314408964
    C           -1.780691143494    -0.066286120706     0.016443449928
    C           -1.020207140933    -0.762593938210    -0.907442020299
    C           -1.166314418860     0.773726778813     0.932152282267
    H           -1.498761363939    -1.396923206014    -1.630753948421
    C            0.353610939999    -0.636701929323    -0.897220634610
    H           -1.771192522483     1.315055507049     1.631874100465
    C            0.202315977325     0.910529451127     0.912005696616
    H            0.945059278926    -1.183527242282    -1.605778581876
    C            0.981233623608     0.178562025026     0.027238251869
    H            0.671307191671     1.586414909758     1.603476686762
    C            2.452504179078     0.381956014115    -0.015108425833
    O            3.249782800140    -0.490249390477    -0.078989055560
    H            2.780818631917     1.422686419414     0.080344930023

  Mulliken Charges: (a.u.)
   Center  Symbol    Alpha    Beta     Spin     Total
       1     H     0.38592  0.38592  0.00000  0.22816
       2     O     4.16852  4.16852  0.00000 -0.33705
       3     C     2.85150  2.85150  0.00000  0.29699
       4     C     3.12671  3.12671  0.00000 -0.25342
       5     C     3.10212  3.10212  0.00000 -0.20425
       6     H     0.43175  0.43175  0.00000  0.13650
       7     C     3.08326  3.08326  0.00000 -0.16652
       8     H     0.41669  0.41669  0.00000  0.16662
       9     C     3.07490  3.07490  0.00000 -0.14981
      10     H     0.41266  0.41266  0.00000  0.17467
      11     C     2.97038  2.97038  0.00000  0.05925
      12     H     0.42233  0.42233  0.00000  0.15535
      13     C     2.92362  2.92362  0.00000  0.15276
      14     O     4.16816  4.16816  0.00000 -0.33632
      15     H     0.46148  0.46148  0.00000  0.07704

   Total alpha = 32.00000, Total beta = 32.00000, Total charge =  0.00000
