                              Psi4 1.0.54 Driver

  ==> Input File <==

--------------------------------------------------------------------------
set {
	reference rhf
	basis cc-pvtz
}

set_num_threads( 4 )
memory 2 gb

molecule MOL {
0 1

H	 -1.088256	 -1.364742	 0.152233
O	 -1.432053	 -0.565244	 -0.200812
C	 -0.727158	 0.534527	 0.310686
C	 0.680222	 0.664433	 -0.252229
H	 -1.306802	 1.408001	 0.044211
H	 -0.690821	 0.490158	 1.397609
C	 1.515506	 -0.606422	 -0.128643
H	 0.610590	 0.957409	 -1.294605
H	 1.177295	 1.475759	 0.272478
H	 1.080540	 -1.425192	 -0.691266
H	 2.516659	 -0.451713	 -0.512455
H	 1.604778	 -0.919457	 0.907212

	symmetry c1
}
set optking {
	frozen_dihedral = ("
		8 4 3 2
	")
}

ee,wfn = optimize('scf', return_wfn=True)
oeprop( wfn, 'DIPOLE', 'QUADRUPOLE', 'MULLIKEN_CHARGES')
f=open( 'psi4out.xyz', 'w' )
f.write( "12  " )
f.write( str(ee) + "\n" )
f.write( MOL.save_string_xyz() )
f.close()
--------------------------------------------------------------------------

    Molecular point group: c1
  Charge       = 0
  Multiplicity = 1
  Basis Set: CC-PVTZ
  Basis Set:
  @DF-RHF Final Energy:  -193.18988463509297
    Total Energy =                       -193.1898846350928807
    Molecular point group: c1
  Basis Set: CC-PVTZ
  Basis Set:
  Basis Set: CC-PVTZ
  Basis Set:
  @DF-RHF Final Energy:  -193.18997656499408
    Total Energy =                       -193.1899765649941401
  Basis Set: CC-PVTZ
  Basis Set:
  Basis Set: CC-PVTZ
  Basis Set:
  @DF-RHF Final Energy:  -193.19001050695269
    Total Energy =                       -193.1900105069526887
  Basis Set: CC-PVTZ
  Basis Set:
  Basis Set: CC-PVTZ
  Basis Set:
  @DF-RHF Final Energy:  -193.19001186707385
    Total Energy =                       -193.1900118670737356
  Basis Set: CC-PVTZ
  Basis Set:
  Charge       = 0
  Multiplicity = 1
  Basis Set: CC-PVTZ
  Basis Set:

    Orbital Energies (a.u.)
    -----------------------

    Doubly Occupied:

       1A    -20.545936     2A    -11.266212     3A    -11.217264
       4A    -11.214762     5A     -1.364330     6A     -1.051460
       7A     -0.929414     8A     -0.809324     9A     -0.698664
      10A     -0.636152    11A     -0.607461    12A     -0.588973
      13A     -0.537489    14A     -0.512206    15A     -0.494921
      16A     -0.468224    17A     -0.432423

  @DF-RHF Final Energy:  -193.19001209501215

   => Energetics <=

    Nuclear Repulsion Energy =            133.4246055614314059
    One-Electron Energy =                -526.4788059845045609
    Two-Electron Energy =                 199.8641883280609193
    DFT Exchange-Correlation Energy =       0.0000000000000000
    Empirical Dispersion Energy =           0.0000000000000000
    PCM Polarization Energy =               0.0000000000000000
    EFP Energy =                            0.0000000000000000
    Total Energy =                       -193.1900120950122357
    Molecular point group: c1
  Basis Set: CC-PVTZ
  Basis Set:

  -Total Gradient:
     Atom            X                  Y                   Z
    ------   -----------------  -----------------  -----------------
       1       -0.000004893148    -0.000015099202    -0.000000315744
       2        0.000840287719    -0.001354887785     0.001731930742
       3       -0.001110260549     0.002553826623    -0.002189667003
       4        0.000183343480    -0.003991331849    -0.000339875505
       5       -0.000006271563     0.000006402362     0.000004292544
       6       -0.000003082573    -0.000013909723    -0.000007021357
       7        0.000020525998    -0.000003631860    -0.000011528005
       8        0.000079632351     0.002807034406     0.000797281464
       9        0.000010336590     0.000000457146     0.000008793339
      10        0.000006340861     0.000022009818     0.000016268129
      11       -0.000012628522    -0.000012145890     0.000005140661
      12       -0.000003330651     0.000001275953    -0.000015299264

  **** Optimization is complete! (in 5 steps) ****
    Final optimized geometry and variables:
    Molecular point group: c1

    Geometry (in Angstrom), charge = 0, multiplicity = 1:

    H           -1.082176573944    -1.331049784597     0.209621805479
    O           -1.426624017009    -0.526706513410    -0.130898513016
    C           -0.700537737104     0.561907863168     0.373934296607
    C            0.704201509385     0.683501514946    -0.202650631743
    H           -1.273321277847     1.446513163496     0.131650949238
    H           -0.645204660444     0.500548145004     1.459317465433
    C            1.549542815670    -0.577386512222    -0.062904326860
    H            0.639392225526     0.982483509901    -1.243781536084
    H            1.195414655862     1.504230177994     0.314271731644
    H            1.134129425905    -1.399206836810    -0.634036277522
    H            2.556357823624    -0.409234131087    -0.425147236496
    H            1.623202053680    -0.889103475561     0.975103280100

  Mulliken Charges: (a.u.)
   Center  Symbol    Alpha    Beta     Spin     Total
       1     H     0.39135  0.39135  0.00000  0.21731
       2     O     4.20596  4.20596  0.00000 -0.41191
       3     C     2.97771  2.97771  0.00000  0.04457
       4     C     3.07989  3.07989  0.00000 -0.15979
       5     H     0.45028  0.45028  0.00000  0.09944
       6     H     0.47015  0.47015  0.00000  0.05970
       7     C     3.16356  3.16356  0.00000 -0.32713
       8     H     0.45246  0.45246  0.00000  0.09509
       9     H     0.45742  0.45742  0.00000  0.08517
      10     H     0.45242  0.45242  0.00000  0.09516
      11     H     0.44475  0.44475  0.00000  0.11050
      12     H     0.45405  0.45405  0.00000  0.09189

   Total alpha = 17.00000, Total beta = 17.00000, Total charge = -0.00000

*** Psi4 exiting successfully. Buy a developer a beer!
