  ==> Input File <==

--------------------------------------------------------------------------
set {
	reference rhf
	basis 6-31G*
}

set_num_threads( 1 )
memory 2 gb

molecule MOL {
0 1

H	 -0.614725	 -1.487730	 -0.561001
N	 -0.626943	 -0.667432	 -0.000092
C	 -1.814020	 -0.387047	 0.775118
C	 0.469286	 0.129090	 0.000148
H	 -2.680070	 -0.272768	 0.131765
H	 -1.654862	 0.532525	 1.314361
H	 -2.011138	 -1.182527	 1.486024
C	 1.788933	 -0.616240	 -0.000037
O	 0.411098	 1.327768	 -0.000049
H	 1.872803	 -1.245775	 -0.880381
H	 2.595421	 0.101576	 0.003713
H	 1.870096	 -1.252171	 0.875943

	symmetry c1
}
set optking {
	frozen_dihedral = ("
		4 2 3 5
	")
}

ee = energy('scf')
oeprop('DIPOLE', 'QUADRUPOLE', 'MULLIKEN_CHARGES')
f=open( 'psi4out.xyz', 'w' )
f.write( "12  " )
f.write( str(ee) + "\n" )
f.write( MOL.save_string_xyz() )
f.close()
--------------------------------------------------------------------------

    Molecular point group: c1

    Geometry (in Angstrom), charge = 0, multiplicity = 1:

       Center              X                  Y                   Z               Mass
    ------------   -----------------  -----------------  -----------------  -----------------
           H         -0.648938494000    -1.440594044766    -0.721017514014     1.007825032070
           N         -0.661156494000    -0.620296044766    -0.160108514014    14.003074004780
           C         -1.848233494000    -0.339911044766     0.615101485986    12.000000000000
           C          0.435072506000     0.176225955234    -0.159868514014    12.000000000000
           H         -2.714283494000    -0.225632044766    -0.028251514014     1.007825032070
           H         -1.689075494000     0.579660955234     1.154344485986     1.007825032070
           H         -2.045351494000    -1.135391044766     1.326007485986     1.007825032070
           C          1.754719506000    -0.569104044766    -0.160053514014    12.000000000000
           O          0.376884506000     1.374903955234    -0.160065514014    15.994914619560
           H          1.838589506000    -1.198639044766    -1.040397514014     1.007825032070
           H          2.561207506000     0.148711955234    -0.156303514014     1.007825032070
           H          1.835882506000    -1.205035044766     0.715926485986     1.007825032070

  Charge       = 0
  Multiplicity = 1
  Basis Set: 6-31G*
  Basis Set:

    Orbital Energies (a.u.)
    -----------------------

    Doubly Occupied:

       1A    -20.526324     2A    -15.568834     3A    -11.344516
       4A    -11.256968     5A    -11.227475     6A     -1.388247
       7A     -1.225132     8A     -1.012293     9A     -0.932971
      10A     -0.785085    11A     -0.687186    12A     -0.647294
      13A     -0.635056    14A     -0.585256    15A     -0.582344
      16A     -0.558526    17A     -0.547916    18A     -0.497784
      19A     -0.417268    20A     -0.378294

  @DF-RHF Final Energy:  -246.98931212556448

   => Energetics <=

    Nuclear Repulsion Energy =            181.0435184310991872
    One-Electron Energy =                -694.4559374915653507
    Two-Electron Energy =                 266.4231069349011705
    DFT Exchange-Correlation Energy =       0.0000000000000000
    Empirical Dispersion Energy =           0.0000000000000000
    PCM Polarization Energy =               0.0000000000000000
    EFP Energy =                            0.0000000000000000
    Total Energy =                       -246.9893121255649930

  Mulliken Charges: (a.u.)
   Center  Symbol    Alpha    Beta     Spin     Total
       1     H     0.31157  0.31157  0.00000  0.37685
       2     N     3.89339  3.89339  0.00000 -0.78679
       3     C     3.13702  3.13702  0.00000 -0.27404
       4     C     2.64382  2.64382  0.00000  0.71236
       5     H     0.41542  0.41542  0.00000  0.16916
       6     H     0.39565  0.39565  0.00000  0.20870
       7     H     0.41822  0.41822  0.00000  0.16356
       8     C     3.28645  3.28645  0.00000 -0.57290
       9     O     4.28407  4.28407  0.00000 -0.56814
      10     H     0.41269  0.41269  0.00000  0.17463
      11     H     0.39610  0.39610  0.00000  0.20780
      12     H     0.40560  0.40560  0.00000  0.18881

   Total alpha = 20.00000, Total beta = 20.00000, Total charge =  0.00000
