  ==> Input File <==

--------------------------------------------------------------------------
set {
	reference rhf
	basis 6-31G*
}

set_num_threads( 4 )
memory 2 gb

molecule MOL {
0 1

H	 -3.420663	 1.227371	 -1.044276
O	 -3.452007	 0.283848	 -0.965577
C	 -3.181085	 -0.079926	 0.364119
C	 -1.765924	 0.277073	 0.805136
H	 -3.327791	 -1.152017	 0.410903
H	 -3.905698	 0.375695	 1.036898
C	 -0.677594	 -0.417312	 -0.014550
H	 -1.637766	 1.358238	 0.744969
H	 -1.659588	 0.017670	 1.857098
C	 0.738335	 -0.034840	 0.421385
H	 -0.814977	 -0.178223	 -1.064632
H	 -0.802730	 -1.495410	 0.071702
C	 1.822265	 -0.738362	 -0.399735
H	 0.853533	 1.043532	 0.342250
H	 0.871597	 -0.279636	 1.474438
C	 3.258060	 -0.455774	 0.057203
H	 1.718003	 -0.459167	 -1.447053
H	 1.651028	 -1.811884	 -0.354513
C	 3.366197	 0.313147	 1.375335
H	 3.760840	 0.114173	 -0.720398
H	 3.800034	 -1.395612	 0.141886
H	 2.822488	 1.252789	 1.324411
H	 4.402373	 0.544119	 1.602993
H	 2.969036	 -0.254065	 2.210617

	symmetry c1
}
set optking {
	frozen_dihedral = ("
		20 16 13 17
	")
}

ee = optimize('scf')
oeprop('DIPOLE', 'QUADRUPOLE', 'MULLIKEN_CHARGES')
f=open( 'psi4out.xyz', 'w' )
f.write( "24  " )
f.write( str(ee) + "\n" )
f.write( MOL.save_string_xyz() )
f.close()
--------------------------------------------------------------------------

    Molecular point group: c1
  Charge       = 0
  Multiplicity = 1
  Basis Set: 6-31G*
  Basis Set:
  @DF-RHF Final Energy:  -349.23767064679049
    Total Energy =                       -349.2376706467905478
    Molecular point group: c1
  Basis Set: 6-31G*
  Basis Set:
  Basis Set: 6-31G*
  Basis Set:
  @DF-RHF Final Energy:  -349.23813536728119
    Total Energy =                       -349.2381353672812452
  Basis Set: 6-31G*
  Basis Set:
  Basis Set: 6-31G*
  Basis Set:
  @DF-RHF Final Energy:  -349.23981456509165
    Total Energy =                       -349.2398145650917058
  Basis Set: 6-31G*
  Basis Set:
  Basis Set: 6-31G*
  Basis Set:
  @DF-RHF Final Energy:  -349.23994613722573
    Total Energy =                       -349.2399461372259566
  Basis Set: 6-31G*
  Basis Set:
  Basis Set: 6-31G*
  Basis Set:
  @DF-RHF Final Energy:  -349.23994154729223
    Total Energy =                       -349.2399415472922328
  Basis Set: 6-31G*
  Basis Set:
  Basis Set: 6-31G*
  Basis Set:
  @DF-RHF Final Energy:  -349.23995071109510
    Total Energy =                       -349.2399507110954460
  Basis Set: 6-31G*
  Basis Set:
  Basis Set: 6-31G*
  Basis Set:
  @DF-RHF Final Energy:  -349.23995645683442
    Total Energy =                       -349.2399564568341930
  Basis Set: 6-31G*
  Basis Set:
  Charge       = 0
  Multiplicity = 1
  Basis Set: 6-31G*
  Basis Set:

    Orbital Energies (a.u.)
    -----------------------

    Doubly Occupied:

       1A    -20.553494     2A    -11.267595     3A    -11.217291
       4A    -11.214180     5A    -11.212283     6A    -11.211721
       7A    -11.210791     8A    -11.207676     9A     -1.360080
      10A     -1.086655    11A     -1.045602    12A     -0.985112
      13A     -0.915197    14A     -0.854108    15A     -0.802022
      16A     -0.768608    17A     -0.678922    18A     -0.656754
      19A     -0.627859    20A     -0.617274    21A     -0.590589
      22A     -0.586468    23A     -0.552800    24A     -0.545425
      25A     -0.515947    26A     -0.507985    27A     -0.502116
      28A     -0.471705    29A     -0.468871    30A     -0.458322
      31A     -0.452117    32A     -0.444857    33A     -0.418798

  @DF-RHF Final Energy:  -349.23995713136992

   => Energetics <=

    Nuclear Repulsion Energy =            385.0632494302544728
    One-Electron Energy =               -1236.5879636735173790
    Two-Electron Energy =                 502.2847571118929864
    DFT Exchange-Correlation Energy =       0.0000000000000000
    Empirical Dispersion Energy =           0.0000000000000000
    PCM Polarization Energy =               0.0000000000000000
    EFP Energy =                            0.0000000000000000
    Total Energy =                       -349.2399571313699198
    Molecular point group: c1
  Basis Set: 6-31G*
  Basis Set:

  -Total Gradient:
     Atom            X                  Y                   Z
    ------   -----------------  -----------------  -----------------
       1        0.000000143482     0.000001030073    -0.000001976176
       2       -0.000003693189     0.000006789552    -0.000001103446
       3        0.000011372045    -0.000019305960    -0.000009981829
       4        0.000010304126     0.000012794664     0.000002758222
       5       -0.000002827912    -0.000004032014     0.000003511336
       6        0.000009269820     0.000001261994     0.000000855694
       7        0.000001227804     0.000013104438     0.000000524147
       8       -0.000004207731     0.000004014045    -0.000000277792
       9        0.000008031643     0.000001193672    -0.000002358886
      10       -0.000013417065     0.000006587327     0.000078201521
      11       -0.000011880900     0.000011978430    -0.000003001488
      12        0.000009043003    -0.000004584479    -0.000003428972
      13        0.001713513873    -0.005269043406    -0.001767875477
      14       -0.000014529517    -0.000008194270    -0.000012211525
      15       -0.000009424602     0.000014425912     0.000030169661
      16       -0.001799567423     0.004972314919     0.002367870237
      17       -0.001079132377     0.003666773111     0.001074573779
      18        0.000042048723     0.000004961696     0.000001844689
      19       -0.000040389008     0.000024093208     0.000016207547
      20        0.001184298723    -0.003417796855    -0.001759452134
      21       -0.000003338936    -0.000023217224    -0.000029191807
      22        0.000011677619     0.000017281811     0.000010899328
      23       -0.000009504970    -0.000012760023     0.000001102337
      24       -0.000009017233     0.000000329378     0.000002341034

  **** Optimization is complete! (in 8 steps) ****
    Final optimized geometry and variables:
    Molecular point group: c1

    Geometry (in Angstrom), charge = 0, multiplicity = 1:

    H           -3.371282849659     1.315002211742    -1.284334030914
    O           -3.404976371448     0.371141753227    -1.211295879813
    C           -3.169133073492     0.000641180970     0.123265967639
    C           -1.765955643160     0.354978545951     0.603080291840
    H           -3.317160277281    -1.071549807770     0.160722083331
    H           -3.911083756974     0.453033727147     0.779043505616
    C           -0.656714103270    -0.335356499793    -0.191689365913
    H           -1.636258670345     1.436416174419     0.551877559975
    H           -1.687258989550     0.090120605152     1.656094844992
    C            0.747234835227     0.047766794314     0.281336996822
    H           -0.769345429324    -0.093716219893    -1.244090304062
    H           -0.782563410235    -1.413983512805    -0.111523053298
    C            1.842837084026    -0.663088906267    -0.523371584253
    H            0.868319855075     1.125699651680     0.194924305206
    H            0.843377554990    -0.187036373512     1.338357595210
    C            3.311086035626    -0.322691124827    -0.149893432444
    H            1.683649400248    -0.403070611456    -1.566383472156
    H            1.686268400618    -1.734955996546    -0.442101429354
    C            3.548240410293     0.400610630246     1.177437390130
    H            3.761432117011     0.248415609024    -0.956969765407
    H            3.877166330090    -1.250507950899    -0.126470443368
    H            3.067780717527     1.372558718152     1.207617277597
    H            4.612034575603     0.557740177900     1.327650047112
    H            3.182641089290    -0.176965360803     2.020736370589

  Mulliken Charges: (a.u.)
   Center  Symbol    Alpha    Beta     Spin     Total
       1     H     0.28341  0.28341  0.00000  0.43319
       2     O     4.36831  4.36831  0.00000 -0.73662
       3     C     2.99614  2.99614  0.00000  0.00772
       4     C     3.16881  3.16881  0.00000 -0.33762
       5     H     0.41635  0.41635  0.00000  0.16730
       6     H     0.42820  0.42820  0.00000  0.14361
       7     C     3.15200  3.15200  0.00000 -0.30401
       8     H     0.42838  0.42838  0.00000  0.14325
       9     H     0.42242  0.42242  0.00000  0.15517
      10     C     3.15466  3.15466  0.00000 -0.30932
      11     H     0.41227  0.41227  0.00000  0.17546
      12     H     0.42376  0.42376  0.00000  0.15249
      13     C     3.15507  3.15507  0.00000 -0.31014
      14     H     0.42465  0.42465  0.00000  0.15071
      15     H     0.42315  0.42315  0.00000  0.15371
      16     C     3.15564  3.15564  0.00000 -0.31128
      17     H     0.42073  0.42073  0.00000  0.15854
      18     H     0.42124  0.42124  0.00000  0.15751
      19     C     3.24146  3.24146  0.00000 -0.48292
      20     H     0.42097  0.42097  0.00000  0.15806
      21     H     0.42105  0.42105  0.00000  0.15791
      22     H     0.42053  0.42053  0.00000  0.15893
      23     H     0.41944  0.41944  0.00000  0.16111
      24     H     0.42138  0.42138  0.00000  0.15724

   Total alpha = 33.00000, Total beta = 33.00000, Total charge =  0.00000
