  ==> Input File <==

--------------------------------------------------------------------------
set {
	reference rhf
	basis 6-31G*
}

set_num_threads( 4 )
memory 2 gb

molecule MOL {
0 1

O	 -1.276010	 1.052711	 -0.768302
C	 -1.204840	 0.067374	 -0.106123
C	 -2.388195	 -0.672128	 0.458071
O	 -0.067104	 -0.527208	 0.221609
H	 -2.388023	 -1.694060	 0.097175
H	 -3.300579	 -0.174919	 0.164318
H	 -2.315377	 -0.706351	 1.539059
C	 0.599135	 -0.137972	 1.430967
C	 2.066853	 -0.466651	 1.222734
C	 -0.013462	 -0.871443	 2.613926
H	 0.468203	 0.927048	 1.553836
H	 2.459555	 0.063177	 0.362319
H	 2.642288	 -0.176836	 2.095783
H	 2.202243	 -1.530560	 1.060192
H	 0.501596	 -0.598579	 3.529501
H	 -1.059153	 -0.614374	 2.725384
H	 0.072635	 -1.945089	 2.480218

	symmetry c1
}
set optking {
	frozen_dihedral = ("
		8 4 2 1
	")
}

ee = optimize('scf')
oeprop('DIPOLE', 'QUADRUPOLE', 'MULLIKEN_CHARGES')
f=open( 'psi4out.xyz', 'w' )
f.write( "17  " )
f.write( str(ee) + "\n" )
f.write( MOL.save_string_xyz() )
f.close()
--------------------------------------------------------------------------

    Molecular point group: c1
  Charge       = 0
  Multiplicity = 1
  Basis Set: 6-31G*
  Basis Set:
  @DF-RHF Final Energy:  -344.88639562121631
    Total Energy =                       -344.8863956212163657
    Molecular point group: c1
  Basis Set: 6-31G*
  Basis Set:
  Basis Set: 6-31G*
  Basis Set:
  @DF-RHF Final Energy:  -344.89204766236787
    Total Energy =                       -344.8920476623676450
  Basis Set: 6-31G*
  Basis Set:
  Basis Set: 6-31G*
  Basis Set:
  @DF-RHF Final Energy:  -344.89238463736319
    Total Energy =                       -344.8923846373634206
  Basis Set: 6-31G*
  Basis Set:
  Basis Set: 6-31G*
  Basis Set:
  @DF-RHF Final Energy:  -344.89269623967635
    Total Energy =                       -344.8926962396765248
  Basis Set: 6-31G*
  Basis Set:
  @DF-RHF Final Energy:  -344.89297354006504
    Total Energy =                       -344.8929735400647587
  @DF-RHF Final Energy:  -344.89345747041909
    Total Energy =                       -344.8934574704193210
  @DF-RHF Final Energy:  -344.89376748208673
    Total Energy =                       -344.8937674820867301
  @DF-RHF Final Energy:  -344.89441142452750
    Total Energy =                       -344.8944114245274477
  @DF-RHF Final Energy:  -344.89443641814785
    Total Energy =                       -344.8944364181472793
  @DF-RHF Final Energy:  -344.89503640784937
    Total Energy =                       -344.8950364078492612
  Basis Set: 6-31G*
  Basis Set:
  @DF-RHF Final Energy:  -344.89526181241769
    Total Energy =                       -344.8952618124180276
  Basis Set: 6-31G*
  Basis Set:
  Basis Set: 6-31G*
  Basis Set:
  @DF-RHF Final Energy:  -344.89534225251469
    Total Energy =                       -344.8953422525152632
  Basis Set: 6-31G*
  Basis Set:
  Basis Set: 6-31G*
  Basis Set:
  @DF-RHF Final Energy:  -344.89535080994921
    Total Energy =                       -344.8953508099489795
  Basis Set: 6-31G*
  Basis Set:
  Charge       = 0
  Multiplicity = 1
  Basis Set: 6-31G*
  Basis Set:

    Orbital Energies (a.u.)
    -----------------------

    Doubly Occupied:

       1A    -20.580380     2A    -20.555699     3A    -11.376995
       4A    -11.302038     5A    -11.236763     6A    -11.222736
       7A    -11.215589     8A     -1.456029     9A     -1.365548
      10A     -1.073542    11A     -1.010243    12A     -0.950010
      13A     -0.845860    14A     -0.770610    15A     -0.692183
      16A     -0.674045    17A     -0.652160    18A     -0.616245
      19A     -0.591329    20A     -0.588221    21A     -0.555564
      22A     -0.550742    23A     -0.546752    24A     -0.518198
      25A     -0.505841    26A     -0.481010    27A     -0.446701
      28A     -0.434677

  @DF-RHF Final Energy:  -344.89535107127898

   => Energetics <=

    Nuclear Repulsion Energy =            322.3430105131708956
    One-Electron Energy =               -1108.8453106132355970
    Two-Electron Energy =                 441.6069490287852091
    DFT Exchange-Correlation Energy =       0.0000000000000000
    Empirical Dispersion Energy =           0.0000000000000000
    PCM Polarization Energy =               0.0000000000000000
    EFP Energy =                            0.0000000000000000
    Total Energy =                       -344.8953510712795492
    Molecular point group: c1
  Basis Set: 6-31G*
  Basis Set:

  -Total Gradient:
     Atom            X                  Y                   Z
    ------   -----------------  -----------------  -----------------
       1       -0.000798897394    -0.001992684059    -0.000916587000
       2        0.000419186370     0.003023703932     0.001813009112
       3       -0.000109942208     0.000029994741    -0.000159426935
       4        0.001999944659    -0.001164022723    -0.002019713692
       5        0.000012472374     0.000014552365     0.000013962276
       6       -0.000012689643    -0.000000060383     0.000020709338
       7        0.000024393871     0.000009778197     0.000107173562
       8       -0.001437660597     0.000144995483     0.001144622397
       9        0.000015881548    -0.000015268997    -0.000092078275
      10        0.000118058247     0.000050015212     0.000155004956
      11       -0.000033484547    -0.000002570762     0.000033556958
      12       -0.000036026517    -0.000001404398    -0.000036894813
      13       -0.000031074076     0.000001852742     0.000006370558
      14       -0.000002943579    -0.000008473163     0.000005147779
      15       -0.000036269318    -0.000034053596    -0.000048118290
      16       -0.000116961483    -0.000024735168    -0.000025770571
      17        0.000026012290    -0.000031619421    -0.000000967354

  **** Optimization is complete! (in 14 steps) ****
    Final optimized geometry and variables:
    Molecular point group: c1

    Geometry (in Angstrom), charge = 0, multiplicity = 1:

    O           -0.285047910666     0.394028044488    -1.987026031184
    C           -0.779828554296     0.108962603532    -0.951802870851
    C           -2.203975313319     0.427824398196    -0.578036769188
    O           -0.130428032332    -0.615757899633    -0.015872397162
    H           -2.751552479122    -0.501061519755    -0.460453389302
    H           -2.665822992792     1.032557197522    -1.344410451680
    H           -2.239772757531     0.945361027459     0.374677834043
    C            0.648090961941     0.081850140977     0.963002969122
    C            2.013243103272     0.436978561786     0.393389074544
    C            0.727341937288    -0.831703411985     2.172575236400
    H            0.120265256240     0.992278541039     1.236496332080
    H            1.918849718194     1.056631941215    -0.489186610186
    H            2.598641510169     0.974843171295     1.133008105869
    H            2.547115518765    -0.465489083321     0.117268628595
    H            1.297351008885    -0.360156604823     2.966148611158
    H           -0.264914864415    -1.058358458666     2.545376358320
    H            1.213001651561    -1.763677812463     1.905255779908

  Mulliken Charges: (a.u.)
   Center  Symbol    Alpha    Beta     Spin     Total
       1     O     4.25306  4.25306  0.00000 -0.50612
       2     C     2.62530  2.62530  0.00000  0.74941
       3     C     3.28458  3.28458  0.00000 -0.56916
       4     O     4.32306  4.32306  0.00000 -0.64612
       5     H     0.39779  0.39779  0.00000  0.20442
       6     H     0.39737  0.39737  0.00000  0.20526
       7     H     0.40767  0.40767  0.00000  0.18466
       8     C     2.92977  2.92977  0.00000  0.14046
       9     C     3.24333  3.24333  0.00000 -0.48666
      10     C     3.23946  3.23946  0.00000 -0.47892
      11     H     0.42297  0.42297  0.00000  0.15406
      12     H     0.40182  0.40182  0.00000  0.19636
      13     H     0.42194  0.42194  0.00000  0.15612
      14     H     0.41118  0.41118  0.00000  0.17763
      15     H     0.41826  0.41826  0.00000  0.16347
      16     H     0.41282  0.41282  0.00000  0.17437
      17     H     0.40962  0.40962  0.00000  0.18077

   Total alpha = 28.00000, Total beta = 28.00000, Total charge = -0.00000
