  ==> Input File <==

--------------------------------------------------------------------------
set {
	reference rhf
	basis cc-pvtz
}

set_num_threads( 4 )
memory 2 gb

molecule MOL {
0 1

H	 2.286032	 -0.979657	 -0.279417
O	 2.063695	 -0.083403	 -0.105237
C	 0.742924	 0.005675	 0.350750
H	 0.731380	 0.039219	 1.440080
C	 -0.064076	 -1.193495	 -0.124425
C	 -0.047832	 1.190568	 -0.194462
H	 0.194729	 -1.376165	 -1.161308
H	 0.163013	 -2.094508	 0.429933
C	 -1.533112	 -0.752002	 0.006102
H	 0.148003	 1.266545	 -1.259275
H	 0.226235	 2.136493	 0.259722
C	 -1.506634	 0.799189	 0.067162
H	 -2.124360	 -1.110499	 -0.826089
H	 -1.983103	 -1.158030	 0.903403
H	 -2.183808	 1.252169	 -0.644677
H	 -1.813926	 1.138698	 1.049457

	symmetry c1
}
set optking {
	frozen_dihedral = ("
		1 2 3 6
	")
}

ee = optimize('scf')
oeprop('DIPOLE', 'QUADRUPOLE', 'MULLIKEN_CHARGES')
f=open( 'psi4out.xyz', 'w' )
f.write( "16  " )
f.write( str(ee) + "\n" )
f.write( MOL.save_string_xyz() )
f.close()
--------------------------------------------------------------------------

    Molecular point group: c1
  Charge       = 0
  Multiplicity = 1
  Basis Set: CC-PVTZ
  Basis Set:
  @DF-RHF Final Energy:  -270.11380415171664
    Total Energy =                       -270.1138041517165220
    Molecular point group: c1
  Basis Set: CC-PVTZ
  Basis Set:
  Basis Set: CC-PVTZ
  Basis Set:
  @DF-RHF Final Energy:  -270.11510985294041
    Total Energy =                       -270.1151098529403498
  Basis Set: CC-PVTZ
  Basis Set:
  Basis Set: CC-PVTZ
  Basis Set:
  @DF-RHF Final Energy:  -270.11526437073394
    Total Energy =                       -270.1152643707336551
  Basis Set: CC-PVTZ
  Basis Set:
  Basis Set: CC-PVTZ
  Basis Set:
  @DF-RHF Final Energy:  -270.11526912316424
    Total Energy =                       -270.1152691231641256
  Basis Set: CC-PVTZ
  Basis Set:
  Charge       = 0
  Multiplicity = 1
  Basis Set: CC-PVTZ
  Basis Set:

    Orbital Energies (a.u.)
    -----------------------

    Doubly Occupied:

       1A    -20.543930     2A    -11.267153     3A    -11.217827
       4A    -11.216568     5A    -11.214563     6A    -11.207022
       7A     -1.364332     8A     -1.116832     9A     -0.969243
      10A     -0.949906    11A     -0.796973    12A     -0.781894
      13A     -0.688201    14A     -0.665854    15A     -0.616237
      16A     -0.599729    17A     -0.574678    18A     -0.529762
      19A     -0.502412    20A     -0.484173    21A     -0.472972
      22A     -0.458596    23A     -0.445941    24A     -0.425990

  @DF-RHF Final Energy:  -270.11526997589806

   => Energetics <=

    Nuclear Repulsion Energy =            255.6789153642270378
    One-Electron Energy =                -873.3667931712512882
    Two-Electron Energy =                 347.5726078311261631
    DFT Exchange-Correlation Energy =       0.0000000000000000
    Empirical Dispersion Energy =           0.0000000000000000
    PCM Polarization Energy =               0.0000000000000000
    EFP Energy =                            0.0000000000000000
    Total Energy =                       -270.1152699758981157
    Molecular point group: c1
  Basis Set: CC-PVTZ
  Basis Set:

  -Total Gradient:
     Atom            X                  Y                   Z
    ------   -----------------  -----------------  -----------------
       1       -0.000504952022     0.000207800470    -0.001564801094
       2        0.000462148952    -0.000512238426     0.001600757742
       3        0.000259321907     0.000888224434     0.000816534474
       4        0.000011087863    -0.000003422733    -0.000001398645
       5        0.000105548492     0.000044828705    -0.000045519488
       6       -0.000292767586    -0.000563404309    -0.000837065599
       7       -0.000009052426    -0.000035049595     0.000003620720
       8       -0.000003382659     0.000041808351    -0.000003483745
       9       -0.000058441034     0.000032670144     0.000061143991
      10        0.000028385730    -0.000019382175    -0.000004913094
      11        0.000027134130    -0.000008634573     0.000003369672
      12        0.000018965194    -0.000032616070    -0.000030425346
      13       -0.000003745905     0.000002748349    -0.000028638169
      14       -0.000034484400    -0.000004846507    -0.000020433237
      15       -0.000009784697    -0.000028943340     0.000025188237
      16        0.000004018465    -0.000009542726     0.000026063582

  **** Optimization is complete! (in 5 steps) ****
    Final optimized geometry and variables:
    Molecular point group: c1

    Geometry (in Angstrom), charge = 0, multiplicity = 1:

    H            2.359472143026    -0.870794207370    -0.279559069185
    O            2.078593790091     0.000427385086    -0.071415425399
    C            0.742458287364    -0.003403293386     0.352148479939
    H            0.719096242005     0.029623446063     1.440282888064
    C           -0.081019825397    -1.194886644204    -0.129807391740
    C           -0.031840301065     1.184065354434    -0.199573934100
    H            0.159163265119    -1.374333169701    -1.173933774611
    H            0.132411167051    -2.106058229372     0.417237812723
    C           -1.544114014659    -0.737253449311     0.013409623573
    H            0.164913248120     1.250376788840    -1.264548313533
    H            0.261637688717     2.125025556818     0.247642303542
    C           -1.494802196042     0.813408309175     0.067661975155
    H           -2.146715289352    -1.093478278692    -0.811579048414
    H           -1.987855266414    -1.136082027796     0.916774099674
    H           -2.168218962127     1.271165240841    -0.644544018102
    H           -1.795358819734     1.160378773809     1.049251505176

  Mulliken Charges: (a.u.)
   Center  Symbol    Alpha    Beta     Spin     Total
       1     H     0.39151  0.39151  0.00000  0.21698
       2     O     4.20626  4.20626  0.00000 -0.41251
       3     C     2.92304  2.92304  0.00000  0.15393
       4     H     0.46134  0.46134  0.00000  0.07733
       5     C     3.11942  3.11942  0.00000 -0.23883
       6     C     3.09223  3.09223  0.00000 -0.18446
       7     H     0.45424  0.45424  0.00000  0.09152
       8     H     0.44289  0.44289  0.00000  0.11422
       9     C     3.11032  3.11032  0.00000 -0.22064
      10     H     0.45572  0.45572  0.00000  0.08857
      11     H     0.44358  0.44358  0.00000  0.11283
      12     C     3.11381  3.11381  0.00000 -0.22763
      13     H     0.44501  0.44501  0.00000  0.10997
      14     H     0.44736  0.44736  0.00000  0.10527
      15     H     0.44340  0.44340  0.00000  0.11319
      16     H     0.44986  0.44986  0.00000  0.10027

   Total alpha = 24.00000, Total beta = 24.00000, Total charge = -0.00000
