  ==> Input File <==

--------------------------------------------------------------------------
set {
	reference rhf
	basis cc-pvtz
}

set_num_threads( 4 )
memory 2 gb

molecule MOL {
0 1

H	 -0.890850	 -1.259345	 -0.221379
N	 -1.173824	 -0.310545	 -0.096857
C	 -0.022588	 0.563366	 0.065815
H	 -1.705256	 -0.053007	 -0.902379
C	 1.270420	 -0.230572	 -0.014245
H	 -0.045354	 1.293678	 -0.735129
H	 -0.043155	 1.123061	 1.001180
H	 1.336273	 -0.754933	 -0.959364
H	 2.130728	 0.422015	 0.082222
H	 1.323344	 -0.967006	 0.781773

	symmetry c1
}
set optking {
	frozen_dihedral = ("
		1 2 3 6
	")
}

ee = optimize('scf')
oeprop('DIPOLE', 'QUADRUPOLE', 'MULLIKEN_CHARGES')
f=open( 'psi4out.xyz', 'w' )
f.write( "10  " )
f.write( str(ee) + "\n" )
f.write( MOL.save_string_xyz() )
f.close()
--------------------------------------------------------------------------

    Molecular point group: c1
  Charge       = 0
  Multiplicity = 1
  Basis Set: CC-PVTZ
  Basis Set:
  @DF-RHF Final Energy:  -134.29971372085259
    Total Energy =                       -134.2997137208525373
    Molecular point group: c1
  Basis Set: CC-PVTZ
  Basis Set:
  Basis Set: CC-PVTZ
  Basis Set:
  @DF-RHF Final Energy:  -134.30073845268788
    Total Energy =                       -134.3007384526879378
  Basis Set: CC-PVTZ
  Basis Set:
  Basis Set: CC-PVTZ
  Basis Set:
  @DF-RHF Final Energy:  -134.30089249252944
    Total Energy =                       -134.3008924925294707
  Basis Set: CC-PVTZ
  Basis Set:
  Basis Set: CC-PVTZ
  Basis Set:
  @DF-RHF Final Energy:  -134.30089525824167
    Total Energy =                       -134.3008952582416384
  Basis Set: CC-PVTZ
  Basis Set:
  Charge       = 0
  Multiplicity = 1
  Basis Set: CC-PVTZ
  Basis Set:

    Orbital Energies (a.u.)
    -----------------------

    Doubly Occupied:

       1A    -15.523645     2A    -11.240891     3A    -11.211056
       4A     -1.174807     5A     -0.990413     6A     -0.830838
       7A     -0.665181     8A     -0.613752     9A     -0.595621
      10A     -0.531569    11A     -0.506092    12A     -0.491028
      13A     -0.378858

  @DF-RHF Final Energy:  -134.30089567707611

   => Energetics <=

    Nuclear Repulsion Energy =             83.4050722351839511
    One-Electron Energy =                -345.9044349596268830
    Two-Electron Energy =                 128.1984670473668189
    DFT Exchange-Correlation Energy =       0.0000000000000000
    Empirical Dispersion Energy =           0.0000000000000000
    PCM Polarization Energy =               0.0000000000000000
    EFP Energy =                            0.0000000000000000
    Total Energy =                       -134.3008956770760847
    Molecular point group: c1
  Basis Set: CC-PVTZ
  Basis Set:

  -Total Gradient:
     Atom            X                  Y                   Z
    ------   -----------------  -----------------  -----------------
       1        0.000016268861    -0.000056990282     0.000352653412
       2       -0.000105617102     0.000106983065    -0.000366868518
       3        0.000291897404    -0.000255213191    -0.000162006694
       4        0.000010509806     0.000002104125    -0.000024653895
       5       -0.000043989914     0.000001822607     0.000016864045
       6       -0.000182131676     0.000200661026     0.000180892696
       7        0.000009987944    -0.000024627904     0.000004677231
       8       -0.000010796679     0.000008373527     0.000015658788
       9        0.000014445571     0.000013348911    -0.000004774127
      10       -0.000000574215     0.000003538115    -0.000012442938

  **** Optimization is complete! (in 5 steps) ****
    Final optimized geometry and variables:
    Molecular point group: c1

    Geometry (in Angstrom), charge = 0, multiplicity = 1:

    H           -0.954315966004    -1.250783521167    -0.170419991111
    N           -1.205743330028    -0.295350035303    -0.042047881079
    C           -0.031608731626     0.565382298235     0.073155137789
    H           -1.793090140260    -0.030591956981    -0.800694522523
    C            1.274261660751    -0.212890797767     0.027940085110
    H           -0.032338915007     1.310041893070    -0.716623499491
    H           -0.081435899680     1.112359828794     1.009315194038
    H            1.396179539409    -0.715660078234    -0.925823263252
    H            2.122843304417     0.445384031395     0.173994613097
    H            1.299122697859    -0.964109263143     0.810755957199

  Mulliken Charges: (a.u.)
   Center  Symbol    Alpha    Beta     Spin     Total
       1     H     0.42860  0.42860  0.00000  0.14279
       2     N     3.69468  3.69468  0.00000 -0.38935
       3     C     3.01230  3.01230  0.00000 -0.02460
       4     H     0.42697  0.42697  0.00000  0.14605
       5     C     3.14651  3.14651  0.00000 -0.29303
       6     H     0.46396  0.46396  0.00000  0.07207
       7     H     0.46418  0.46418  0.00000  0.07164
       8     H     0.45731  0.45731  0.00000  0.08538
       9     H     0.45241  0.45241  0.00000  0.09517
      10     H     0.45306  0.45306  0.00000  0.09388

   Total alpha = 13.00000, Total beta = 13.00000, Total charge = -0.00000
