                              Psi4 1.0.54 Driver

  ==> Input File <==

--------------------------------------------------------------------------
set {
	reference rhf
	basis cc-pvtz
}

set_num_threads( 4 )
memory 2 gb

molecule MOL {
0 1

H	 1.825208	 -0.849293	 -0.899175
O	 1.583947	 -0.677544	 -0.001533
C	 0.489979	 0.078084	 0.002623
C	 -0.763662	 -0.754014	 0.000816
O	 0.539051	 1.259395	 -0.000088
C	 -2.038001	 0.074705	 -0.000833
H	 -0.712945	 -1.405886	 -0.864342
H	 -0.715137	 -1.405770	 0.866182
H	 -2.087267	 0.710831	 -0.874232
H	 -2.903419	 -0.576199	 -0.001922
H	 -2.089467	 0.710909	 0.872389

	symmetry c1
}
set optking {
	frozen_dihedral = ("
		1 2 3 5
	")
}

ee,wfn = optimize('scf', return_wfn=True)
oeprop( wfn, 'DIPOLE', 'QUADRUPOLE', 'MULLIKEN_CHARGES')
f=open( 'psi4out.xyz', 'w' )
f.write( "11  " )
f.write( str(ee) + "\n" )
f.write( MOL.save_string_xyz() )
f.close()
--------------------------------------------------------------------------

    Molecular point group: c1
  Charge       = 0
  Multiplicity = 1
  Basis Set: CC-PVTZ
  Basis Set:
  @DF-RHF Final Energy:  -266.93183861610737
    Total Energy =                       -266.9318386161073704
    Molecular point group: c1
  Basis Set: CC-PVTZ
  Basis Set:
  Basis Set: CC-PVTZ
  Basis Set:
  @DF-RHF Final Energy:  -266.93204535803864
    Total Energy =                       -266.9320453580386925
  Basis Set: CC-PVTZ
  Basis Set:
  Basis Set: CC-PVTZ
  Basis Set:
  @DF-RHF Final Energy:  -266.93319141063978
    Total Energy =                       -266.9331914106394947
  Basis Set: CC-PVTZ
  Basis Set:
  Basis Set: CC-PVTZ
  Basis Set:
  @DF-RHF Final Energy:  -266.93357166797807
    Total Energy =                       -266.9335716679782990
  Basis Set: CC-PVTZ
  Basis Set:
  Basis Set: CC-PVTZ
  Basis Set:
  @DF-RHF Final Energy:  -266.93358452249129
    Total Energy =                       -266.9335845224913442
  Basis Set: CC-PVTZ
  Basis Set:
  Charge       = 0
  Multiplicity = 1
  Basis Set: CC-PVTZ
  Basis Set:

    Orbital Energies (a.u.)
    -----------------------

    Doubly Occupied:

       1A    -20.586727     2A    -20.551874     3A    -11.375044
       4A    -11.245169     5A    -11.220426     6A     -1.464322
       7A     -1.371569     8A     -1.065697     9A     -0.911567
      10A     -0.809660    11A     -0.714541    12A     -0.678091
      13A     -0.661935    14A     -0.615699    15A     -0.569976
      16A     -0.530623    17A     -0.523373    18A     -0.501140
      19A     -0.497805    20A     -0.449470

  @DF-RHF Final Energy:  -266.93359506896070

   => Energetics <=

    Nuclear Repulsion Energy =            179.3671087733502247
    One-Electron Energy =                -719.9119907178269386
    Two-Electron Energy =                 273.6112868755159298
    DFT Exchange-Correlation Energy =       0.0000000000000000
    Empirical Dispersion Energy =           0.0000000000000000
    PCM Polarization Energy =               0.0000000000000000
    EFP Energy =                            0.0000000000000000
    Total Energy =                       -266.9335950689608126
    Molecular point group: c1
  Basis Set: CC-PVTZ
  Basis Set:

  -Total Gradient:
     Atom            X                  Y                   Z
    ------   -----------------  -----------------  -----------------
       1       -0.001327717085    -0.001876265817    -0.000060884163
       2        0.001461737785     0.002359690781     0.001034923438
       3        0.000089421744    -0.000435027423    -0.003005467514
       4        0.000002303172    -0.000017079931     0.000003754272
       5       -0.000258102241    -0.000064003957     0.002026519566
       6        0.000023867185     0.000054295450     0.000004228084
       7       -0.000019675673     0.000002092582    -0.000000095219
       8        0.000024891641     0.000008856435     0.000013887460
       9       -0.000010860793    -0.000003062731    -0.000003397780
      10        0.000010904379    -0.000009980591    -0.000002164111
      11        0.000003229886    -0.000019514800    -0.000011304033

  **** Optimization is complete! (in 6 steps) ****
    Final optimized geometry and variables:
    Molecular point group: c1

    Geometry (in Angstrom), charge = 0, multiplicity = 1:

    H            1.999346338478    -0.832583403109    -0.737406423833
    O            1.618881490857    -0.668354599794     0.109325826195
    C            0.491239575945     0.087128940716     0.021415305720
    C           -0.767446675230    -0.736109271407    -0.054602586835
    O            0.531826259099     1.259170107710     0.067662529903
    C           -2.042108157152     0.090121317867    -0.101859872325
    H           -0.681170224841    -1.380329602233    -0.924883239865
    H           -0.754827390583    -1.402353295924     0.801371300580
    H           -2.053927506099     0.740070425248    -0.966781308086
    H           -2.906730035378    -0.560240321780    -0.151015971551
    H           -2.132201310331     0.713003866939     0.777765314435

  Mulliken Charges: (a.u.)
   Center  Symbol    Alpha    Beta     Spin     Total
       1     H     0.38766  0.38766  0.00000  0.22468
       2     O     4.17543  4.17543  0.00000 -0.35085
       3     C     2.80241  2.80241  0.00000  0.39518
       4     C     3.10245  3.10245  0.00000 -0.20490
       5     O     4.16072  4.16072  0.00000 -0.32143
       6     C     3.13924  3.13924  0.00000 -0.27848
       7     H     0.44930  0.44930  0.00000  0.10140
       8     H     0.43782  0.43782  0.00000  0.12437
       9     H     0.44898  0.44898  0.00000  0.10204
      10     H     0.45003  0.45003  0.00000  0.09995
      11     H     0.44598  0.44598  0.00000  0.10804

   Total alpha = 20.00000, Total beta = 20.00000, Total charge = -0.00000

*** Psi4 exiting successfully. Buy a developer a beer!
