                              Psi4 1.0.54 Driver

  ==> Input File <==

--------------------------------------------------------------------------
set {
	reference rhf
	basis cc-pvtz
}

set_num_threads( 4 )
memory 2 gb

molecule MOL {
0 1

H	 -1.146430	 -0.756793	 -1.074747
O	 -1.432053	 -0.565244	 -0.200812
C	 -0.727158	 0.534527	 0.310686
C	 0.680222	 0.664433	 -0.252229
H	 -1.306802	 1.408001	 0.044211
H	 -0.690821	 0.490158	 1.397609
C	 1.605391	 -0.489360	 0.123098
H	 0.615089	 0.745647	 -1.332226
H	 1.101414	 1.597893	 0.110950
H	 1.247627	 -1.432485	 -0.275204
H	 2.601435	 -0.332816	 -0.273062
H	 1.691776	 -0.589902	 1.200774

	symmetry c1
}
set optking {
	frozen_dihedral = ("
		1 2 3 4
	")
}

ee,wfn = optimize('scf', return_wfn=True)
oeprop( wfn, 'DIPOLE', 'QUADRUPOLE', 'MULLIKEN_CHARGES')
f=open( 'psi4out.xyz', 'w' )
f.write( "12  " )
f.write( str(ee) + "\n" )
f.write( MOL.save_string_xyz() )
f.close()
--------------------------------------------------------------------------

    Molecular point group: c1
  Charge       = 0
  Multiplicity = 1
  Basis Set: CC-PVTZ
  Basis Set:
  @DF-RHF Final Energy:  -193.18830748428479
    Total Energy =                       -193.1883074842847350
    Molecular point group: c1
  Basis Set: CC-PVTZ
  Basis Set:
  Basis Set: CC-PVTZ
  Basis Set:
  @DF-RHF Final Energy:  -193.18917602272001
    Total Energy =                       -193.1891760227199200
  Basis Set: CC-PVTZ
  Basis Set:
  Basis Set: CC-PVTZ
  Basis Set:
  @DF-RHF Final Energy:  -193.18953277534263
    Total Energy =                       -193.1895327753427978
  Basis Set: CC-PVTZ
  Basis Set:
  Basis Set: CC-PVTZ
  Basis Set:
  @DF-RHF Final Energy:  -193.18953982631703
    Total Energy =                       -193.1895398263172297
  Basis Set: CC-PVTZ
  Basis Set:
  Basis Set: CC-PVTZ
  Basis Set:
  @DF-RHF Final Energy:  -193.18954110650762
    Total Energy =                       -193.1895411065075905
  Basis Set: CC-PVTZ
  Basis Set:
  Charge       = 0
  Multiplicity = 1
  Basis Set: CC-PVTZ
  Basis Set:

    Orbital Energies (a.u.)
    -----------------------

    Doubly Occupied:

       1A    -20.545010     2A    -11.265710     3A    -11.223644
       4A    -11.212526     5A     -1.363366     6A     -1.053540
       7A     -0.926176     8A     -0.820249     9A     -0.666090
      10A     -0.643653    11A     -0.639528    12A     -0.571704
      13A     -0.544555    14A     -0.514681    15A     -0.490287
      16A     -0.467641    17A     -0.434105

  @DF-RHF Final Energy:  -193.18954128965115

   => Energetics <=

    Nuclear Repulsion Energy =            133.2693794643547847
    One-Electron Energy =                -526.1529109091874261
    Two-Electron Energy =                 199.6939901551813819
    DFT Exchange-Correlation Energy =       0.0000000000000000
    Empirical Dispersion Energy =           0.0000000000000000
    PCM Polarization Energy =               0.0000000000000000
    EFP Energy =                            0.0000000000000000
    Total Energy =                       -193.1895412896512880
    Molecular point group: c1
  Basis Set: CC-PVTZ
  Basis Set:

  -Total Gradient:
     Atom            X                  Y                   Z
    ------   -----------------  -----------------  -----------------
       1        0.001515655499    -0.001444279185     0.000923361162
       2       -0.002067421587     0.002116070549    -0.001642928319
       3        0.000989207533    -0.001507849827     0.001819879022
       4       -0.000449270170     0.000820013446    -0.001088335218
       5        0.000004158400    -0.000004082410    -0.000000236774
       6        0.000001558381     0.000010411613     0.000005099225
       7        0.000014877556    -0.000003835965    -0.000002054080
       8        0.000000287341    -0.000003160729     0.000000354208
       9        0.000008472978     0.000004834336    -0.000008468536
      10       -0.000002030849     0.000011515652    -0.000000957575
      11       -0.000014904053    -0.000003506851     0.000010979922
      12       -0.000000591032     0.000003869372    -0.000016693038

  **** Optimization is complete! (in 6 steps) ****
    Final optimized geometry and variables:
    Molecular point group: c1

    Geometry (in Angstrom), charge = 0, multiplicity = 1:

    H           -1.118525865287    -0.752719344507    -1.088936046107
    O           -1.435831019296    -0.542410396534    -0.230105598756
    C           -0.725203730838     0.547590023806     0.297386011284
    C            0.707571771789     0.640564199061    -0.203378818631
    H           -1.247203961132     1.470880271615     0.060466578068
    H           -0.739034565302     0.434367804085     1.374787246061
    C            1.582867428929    -0.542645420013     0.199588995547
    H            0.695493358874     0.741333166383    -1.287189722027
    H            1.138014482315     1.560844888626     0.179306575241
    H            1.180902360332    -1.478837092701    -0.168090968087
    H            2.586928650033    -0.433895482883    -0.193222618063
    H            1.654115183798    -0.619490329516     1.279022275605

  Mulliken Charges: (a.u.)
   Center  Symbol    Alpha    Beta     Spin     Total
       1     H     0.39348  0.39348  0.00000  0.21304
       2     O     4.20610  4.20610  0.00000 -0.41220
       3     C     2.95876  2.95876  0.00000  0.08248
       4     C     3.10270  3.10270  0.00000 -0.20539
       5     H     0.46573  0.46573  0.00000  0.06855
       6     H     0.46590  0.46590  0.00000  0.06819
       7     C     3.14289  3.14289  0.00000 -0.28577
       8     H     0.45746  0.45746  0.00000  0.08508
       9     H     0.45114  0.45114  0.00000  0.09772
      10     H     0.45311  0.45311  0.00000  0.09377
      11     H     0.44905  0.44905  0.00000  0.10190
      12     H     0.45368  0.45368  0.00000  0.09263

   Total alpha = 17.00000, Total beta = 17.00000, Total charge =  0.00000

*** Psi4 exiting successfully. Buy a developer a beer!
