                              Psi4 1.0.54 Driver

  ==> Input File <==

--------------------------------------------------------------------------
set {
	reference rhf
	basis cc-pvtz
}

set_num_threads( 4 )
memory 2 gb

molecule MOL {
0 1

O	 -2.081319	 -0.951530	 -0.502732
N	 -1.613558	 0.006676	 0.014756
C	 -0.329345	 -0.171618	 0.743966
O	 -2.068523	 1.100482	 -0.024385
C	 0.835904	 0.041968	 -0.213982
H	 -0.346048	 -1.174374	 1.137184
H	 -0.333613	 0.555559	 1.538590
C	 2.177039	 -0.130175	 0.494460
H	 0.754456	 -0.665923	 -1.030569
H	 0.765464	 1.037260	 -0.637266
C	 2.573038	 -1.594999	 0.642636
H	 2.128846	 0.332350	 1.475880
H	 2.947846	 0.398445	 -0.058555
H	 1.836762	 -2.142271	 1.220640
H	 2.659614	 -2.076227	 -0.325166
H	 3.527199	 -1.688981	 1.146526

	symmetry c1
}
set optking {
	frozen_dihedral = ("
		11 8 5 9
	")
}

ee,wfn = optimize('scf', return_wfn=True)
oeprop( wfn, 'DIPOLE', 'QUADRUPOLE', 'MULLIKEN_CHARGES')
f=open( 'psi4out.xyz', 'w' )
f.write( "16  " )
f.write( str(ee) + "\n" )
f.write( MOL.save_string_xyz() )
f.close()
--------------------------------------------------------------------------

    Molecular point group: c1
  Charge       = 0
  Multiplicity = 1
  Basis Set: CC-PVTZ
  Basis Set:
  @DF-RHF Final Energy:  -360.90694668693595
    Total Energy =                       -360.9069466869359530
    Molecular point group: c1
  Basis Set: CC-PVTZ
  Basis Set:
  Basis Set: CC-PVTZ
  Basis Set:
  @DF-RHF Final Energy:  -360.90724676395445
    Total Energy =                       -360.9072467639540491
  Basis Set: CC-PVTZ
  Basis Set:
  Basis Set: CC-PVTZ
  Basis Set:
  @DF-RHF Final Energy:  -360.89921949950934
    Total Energy =                       -360.8992194995095701
  Basis Set: CC-PVTZ
  Basis Set:
  Basis Set: CC-PVTZ
  Basis Set:
  @DF-RHF Final Energy:  -360.90681946473916
    Total Energy =                       -360.9068194647388736
  Basis Set: CC-PVTZ
  Basis Set:
  Basis Set: CC-PVTZ
  Basis Set:
  @DF-RHF Final Energy:  -360.90728696297367
    Total Energy =                       -360.9072869629737852
  Basis Set: CC-PVTZ
  Basis Set:
  Basis Set: CC-PVTZ
  Basis Set:
  @DF-RHF Final Energy:  -360.90727721175546
    Total Energy =                       -360.9072772117552859
  Basis Set: CC-PVTZ
  Basis Set:
  Basis Set: CC-PVTZ
  Basis Set:
  @DF-RHF Final Energy:  -360.90729237704960
    Total Energy =                       -360.9072923770494299
  Basis Set: CC-PVTZ
  Basis Set:
  Charge       = 0
  Multiplicity = 1
  Basis Set: CC-PVTZ
  Basis Set:

    Orbital Energies (a.u.)
    -----------------------

    Doubly Occupied:

       1A    -20.589628     2A    -20.589381     3A    -15.835969
       4A    -11.295785     5A    -11.251011     6A    -11.242039
       7A    -11.227337     8A     -1.634994     9A     -1.419310
      10A     -1.136323    11A     -1.058270    12A     -0.950396
      13A     -0.850639    14A     -0.822832    15A     -0.760841
      16A     -0.737464    17A     -0.726208    18A     -0.667409
      19A     -0.631747    20A     -0.602173    21A     -0.569664
      22A     -0.549569    23A     -0.513626    24A     -0.502660
      25A     -0.495480    26A     -0.485035    27A     -0.470452
      28A     -0.451944

  @DF-RHF Final Energy:  -360.90729245006742

   => Energetics <=

    Nuclear Repulsion Energy =            315.8509255102605948
    One-Electron Energy =               -1117.3800682850219346
    Two-Electron Energy =                 440.6218503246943783
    DFT Exchange-Correlation Energy =       0.0000000000000000
    Empirical Dispersion Energy =           0.0000000000000000
    PCM Polarization Energy =               0.0000000000000000
    EFP Energy =                            0.0000000000000000
    Total Energy =                       -360.9072924500669615
    Molecular point group: c1
  Basis Set: CC-PVTZ
  Basis Set:

  -Total Gradient:
     Atom            X                  Y                   Z
    ------   -----------------  -----------------  -----------------
       1        0.000022871772    -0.000013141297     0.000010440406
       2       -0.000020421070    -0.000011114975    -0.000014763111
       3        0.000004622000    -0.000004585936    -0.000003960202
       4        0.000018364075     0.000018639662     0.000015386365
       5        0.001496741543     0.001899480969    -0.002348752765
       6       -0.000008698506    -0.000004093008     0.000003007050
       7       -0.000007226851     0.000003546192    -0.000003292886
       8       -0.001322335641    -0.000436477001     0.002414151412
       9       -0.000955710025    -0.001507327029     0.001409400403
      10        0.000007714162     0.000004348683    -0.000001904016
      11        0.000773658390     0.000048731843    -0.001474516714
      12       -0.000000927216     0.000003822490    -0.000000911920
      13       -0.000005962657    -0.000000337465    -0.000003594924
      14       -0.000002629738    -0.000000007463     0.000002040815
      15        0.000003536467    -0.000004418183    -0.000001943924
      16       -0.000003596700     0.000002932516    -0.000000785990

  **** Optimization is complete! (in 8 steps) ****
    Final optimized geometry and variables:
    Molecular point group: c1

    Geometry (in Angstrom), charge = 0, multiplicity = 1:

    O           -1.956217109047    -0.716583980636    -0.668907939893
    N           -1.503189746158     0.249617850804    -0.152668011722
    C           -0.225350524457     0.088629262411     0.591697353012
    O           -1.968322858604     1.338620971390    -0.203980181165
    C            0.947744341889     0.301774598034    -0.361068808788
    H           -0.244826427206    -0.907541562117     0.999190971432
    H           -0.241063295530     0.827849352219     1.374885715035
    C            2.294527180667     0.107245993697     0.343009602355
    H            0.852686476577    -0.402723409822    -1.178902571569
    H            0.879188523478     1.301766015547    -0.769352330480
    C            2.706153628459    -1.353671670438     0.504929153654
    H            2.277297250279     0.600243946194     1.310506317133
    H            3.054084663015     0.616907640682    -0.238676137046
    H            1.993246448030    -1.916718573259     1.097074893774
    H            2.789148113506    -1.839484104536    -0.460551391065
    H            3.667711233417    -1.428250485443     0.998099215202

  Mulliken Charges: (a.u.)
   Center  Symbol    Alpha    Beta     Spin     Total
       1     O     4.17386  4.17386  0.00000 -0.34771
       2     N     3.27524  3.27524  0.00000  0.44953
       3     C     3.04154  3.04154  0.00000 -0.08309
       4     O     4.17397  4.17397  0.00000 -0.34793
       5     C     3.10808  3.10808  0.00000 -0.21617
       6     H     0.43434  0.43434  0.00000  0.13131
       7     H     0.43399  0.43399  0.00000  0.13202
       8     C     3.09821  3.09821  0.00000 -0.19641
       9     H     0.43847  0.43847  0.00000  0.12306
      10     H     0.43110  0.43110  0.00000  0.13779
      11     C     3.14727  3.14727  0.00000 -0.29454
      12     H     0.45162  0.45162  0.00000  0.09677
      13     H     0.44235  0.44235  0.00000  0.11531
      14     H     0.45538  0.45538  0.00000  0.08924
      15     H     0.45053  0.45053  0.00000  0.09894
      16     H     0.44406  0.44406  0.00000  0.11188

   Total alpha = 28.00000, Total beta = 28.00000, Total charge = -0.00000

*** Psi4 exiting successfully. Buy a developer a beer!
