                              Psi4 1.0.54 Driver

  ==> Input File <==

--------------------------------------------------------------------------
set {
	reference rhf
	basis cc-pvtz
}

set_num_threads( 4 )
memory 2 gb

molecule MOL {
0 1

H	 -1.132267	 0.598804	 0.585162
N	 -0.712187	 0.000026	 -0.093397
C	 0.734067	 -0.000020	 0.038424
H	 -0.988541	 0.334508	 -0.991838
H	 1.140372	 -0.872115	 -0.458226
H	 1.140363	 0.872301	 -0.457869
H	 1.095085	 -0.000244	 1.065614

	symmetry c1
}
set optking {
	frozen_dihedral = ("
		1 2 3 7
	")
}

ee,wfn = optimize('scf', return_wfn=True)
oeprop( wfn, 'DIPOLE', 'QUADRUPOLE', 'MULLIKEN_CHARGES')
f=open( 'psi4out.xyz', 'w' )
f.write( "7  " )
f.write( str(ee) + "\n" )
f.write( MOL.save_string_xyz() )
f.close()
--------------------------------------------------------------------------

    Molecular point group: c1
  Charge       = 0
  Multiplicity = 1
  Basis Set: CC-PVTZ
  Basis Set:
  @DF-RHF Final Energy:   -95.25115431427434
    Total Energy =                        -95.2511543142743591
    Molecular point group: c1
  Basis Set: CC-PVTZ
  Basis Set:
  Basis Set: CC-PVTZ
  Basis Set:
  @DF-RHF Final Energy:   -95.25066629748582
    Total Energy =                        -95.2506662974858216
  Basis Set: CC-PVTZ
  Basis Set:
  Basis Set: CC-PVTZ
  Basis Set:
  @DF-RHF Final Energy:   -95.25285145174914
    Total Energy =                        -95.2528514517491516
  Basis Set: CC-PVTZ
  Basis Set:
  Basis Set: CC-PVTZ
  Basis Set:
  @DF-RHF Final Energy:   -95.25288721727446
    Total Energy =                        -95.2528872172744059
  Basis Set: CC-PVTZ
  Basis Set:
  Charge       = 0
  Multiplicity = 1
  Basis Set: CC-PVTZ
  Basis Set:

    Orbital Energies (a.u.)
    -----------------------

    Doubly Occupied:

       1A    -15.527071     2A    -11.235489     3A     -1.170711
       4A     -0.897180     5A     -0.667390     6A     -0.601678
       7A     -0.559879     8A     -0.518257     9A     -0.383784

  @DF-RHF Final Energy:   -95.25288904851669

   => Energetics <=

    Nuclear Repulsion Energy =             42.3775348433655168
    One-Electron Energy =                -212.1379728974060015
    Two-Electron Energy =                  74.5075490055237708
    DFT Exchange-Correlation Energy =       0.0000000000000000
    Empirical Dispersion Energy =           0.0000000000000000
    PCM Polarization Energy =               0.0000000000000000
    EFP Energy =                            0.0000000000000000
    Total Energy =                        -95.2528890485167210
    Molecular point group: c1
  Basis Set: CC-PVTZ
  Basis Set:

  -Total Gradient:
     Atom            X                  Y                   Z
    ------   -----------------  -----------------  -----------------
       1       -0.000210616057    -0.002031297236     0.001134923984
       2        0.000141866220     0.003077352204    -0.001285472874
       3        0.000215528542    -0.003174172496    -0.000306951912
       4       -0.000014277623     0.000042273191    -0.000017703051
       5       -0.000002385954     0.000019974292     0.000002821367
       6       -0.000100701954    -0.000034252910    -0.000002180991
       7       -0.000029413175     0.002100122954     0.000474563478

  **** Optimization is complete! (in 5 steps) ****
    Final optimized geometry and variables:
    Molecular point group: c1

    Geometry (in Angstrom), charge = 0, multiplicity = 1:

    H           -1.156117818148     0.432082788837     0.692619433061
    N           -0.713058514279    -0.010365156369    -0.082307066835
    C            0.730015097175    -0.046396944422     0.080260921357
    H           -0.982489352531     0.471405277281    -0.911927777751
    H            1.157064106167    -0.826593092724    -0.537500136901
    H            1.227986274075     0.889335048199    -0.167478502951
    H            0.968876851074    -0.269772439732     1.112237160116

  Mulliken Charges: (a.u.)
   Center  Symbol    Alpha    Beta     Spin     Total
       1     H     0.42682  0.42682  0.00000  0.14635
       2     N     3.68935  3.68935  0.00000 -0.37871
       3     C     3.06959  3.06959  0.00000 -0.13918
       4     H     0.42776  0.42776  0.00000  0.14448
       5     H     0.45732  0.45732  0.00000  0.08537
       6     H     0.47161  0.47161  0.00000  0.05678
       7     H     0.45755  0.45755  0.00000  0.08491

   Total alpha =  9.00000, Total beta =  9.00000, Total charge =  0.00000

*** Psi4 exiting successfully. Buy a developer a beer!
