  ==> Input File <==

--------------------------------------------------------------------------
set {
	reference rhf
	basis 6-31G*
}

set_num_threads( 4 )
memory 2 gb

molecule MOL {
0 1

H	 -3.042581	 -0.665861	 0.004336
O	 -2.245037	 -1.176175	 0.000806
C	 -1.162163	 -0.365336	 0.001020
C	 -1.173399	 0.889553	 -0.580751
C	 -0.011313	 -0.844333	 0.614971
H	 -2.063848	 1.261059	 -1.059349
C	 -0.020458	 1.660990	 -0.541716
H	 -0.037248	 -1.824624	 1.054829
C	 1.137497	 -0.073758	 0.654515
H	 -0.024951	 2.636363	 -0.995221
C	 1.125985	 1.191181	 0.066495
C	 2.382230	 -0.583716	 1.342761
H	 2.012617	 1.800129	 0.086361
H	 3.268990	 -0.370972	 0.755237
H	 2.334575	 -1.653953	 1.504574
H	 2.509556	 -0.107221	 2.310794

	symmetry c1
}
set optking {
	frozen_dihedral = ("
		5 3 2 1
	")
}

ee = optimize('scf')
oeprop('DIPOLE', 'QUADRUPOLE', 'MULLIKEN_CHARGES')
f=open( 'psi4out.xyz', 'w' )
f.write( "16  " )
f.write( str(ee) + "\n" )
f.write( MOL.save_string_xyz() )
f.close()
--------------------------------------------------------------------------

    Molecular point group: c1
  Charge       = 0
  Multiplicity = 1
  Basis Set: 6-31G*
  Basis Set:
  @DF-RHF Final Energy:  -344.59383396265133
    Total Energy =                       -344.5938339626512175
    Molecular point group: c1
  Basis Set: 6-31G*
  Basis Set:
  Basis Set: 6-31G*
  Basis Set:
  @DF-RHF Final Energy:  -344.59388425804866
    Total Energy =                       -344.5938842580488881
  Basis Set: 6-31G*
  Basis Set:
  Basis Set: 6-31G*
  Basis Set:
  @DF-RHF Final Energy:  -344.59389341698250
    Total Energy =                       -344.5938934169824961
  Basis Set: 6-31G*
  Basis Set:
  Charge       = 0
  Multiplicity = 1
  Basis Set: 6-31G*
  Basis Set:

    Orbital Energies (a.u.)
    -----------------------

    Doubly Occupied:

       1A    -20.585118     2A    -11.293639     3A    -11.241421
       4A    -11.234511     5A    -11.222636     6A    -11.220385
       7A    -11.217322     8A    -11.216813     9A     -1.402799
      10A     -1.149510    11A     -1.042872    12A     -1.004402
      13A     -0.936036    14A     -0.823047    15A     -0.820281
      16A     -0.713083    17A     -0.679533    18A     -0.652759
      19A     -0.612701    20A     -0.589927    21A     -0.573521
      22A     -0.568270    23A     -0.556735    24A     -0.526673
      25A     -0.504184    26A     -0.481647    27A     -0.466500
      28A     -0.328705    29A     -0.308642

  @DF-RHF Final Energy:  -344.59389429697131

   => Energetics <=

    Nuclear Repulsion Energy =            345.4111083895236902
    One-Electron Energy =               -1152.0626559429956615
    Two-Electron Energy =                 462.0576532565007710
    DFT Exchange-Correlation Energy =       0.0000000000000000
    Empirical Dispersion Energy =           0.0000000000000000
    PCM Polarization Energy =               0.0000000000000000
    EFP Energy =                            0.0000000000000000
    Total Energy =                       -344.5938942969712571
    Molecular point group: c1
  Basis Set: 6-31G*
  Basis Set:

  -Total Gradient:
     Atom            X                  Y                   Z
    ------   -----------------  -----------------  -----------------
       1        0.000027789573     0.000009158864     0.002558548075
       2       -0.000294802842     0.000278650803    -0.002411936087
       3        0.000822130780    -0.000921387464    -0.001750032920
       4       -0.000046028182    -0.000120869877     0.000012154867
       5       -0.000454531631     0.000773146609     0.001590337704
       6        0.000006310897     0.000003683817    -0.000003567858
       7        0.000156794571     0.000034217552     0.000016307177
       8       -0.000015915017    -0.000017105579     0.000022086081
       9       -0.000041257088    -0.000191239887    -0.000018627028
      10       -0.000017930587     0.000006367422     0.000012702831
      11       -0.000119975834     0.000125791993    -0.000044353317
      12       -0.000021396191     0.000020220817     0.000023406056
      13        0.000007560467    -0.000005045441    -0.000003471555
      14       -0.000016094302     0.000005500868    -0.000007508123
      15       -0.000002749782    -0.000000183264    -0.000004479083
      16        0.000010095174    -0.000000907232     0.000008433181

  **** Optimization is complete! (in 4 steps) ****
    Final optimized geometry and variables:
    Molecular point group: c1

    Geometry (in Angstrom), charge = 0, multiplicity = 1:

    H           -3.011142208796    -0.706426449106    -0.215844161497
    O           -2.216313000172    -1.220960347337    -0.215570449604
    C           -1.127181201914    -0.409975900254    -0.204151095366
    C           -1.140549570676     0.845357280678    -0.784967185178
    C            0.020852967419    -0.886305543389     0.413644434480
    H           -2.029567935974     1.208767060499    -1.271310715857
    C            0.010310162501     1.618798686397    -0.743815514644
    H           -0.007726577234    -1.863224554178     0.860880622476
    C            1.173523011256    -0.118942086500     0.445838216590
    H            0.005667409678     2.595125688899    -1.195258211881
    C            1.158919731862     1.145908482059    -0.140073670965
    C            2.419154635285    -0.628164023789     1.133172617070
    H            2.045618969818     1.755051786158    -0.121722542881
    H            3.304490459014    -0.420106692682     0.541750201229
    H            2.369846510742    -1.697741484268     1.299302644418
    H            2.551280826421    -0.148072007850     2.098835754199

  Mulliken Charges: (a.u.)
   Center  Symbol    Alpha    Beta     Spin     Total
       1     H     0.27228  0.27228  0.00000  0.45544
       2     O     4.38176  4.38176  0.00000 -0.76352
       3     C     2.79483  2.79483  0.00000  0.41033
       4     C     3.14414  3.14414  0.00000 -0.28828
       5     C     3.13884  3.13884  0.00000 -0.27769
       6     H     0.40330  0.40330  0.00000  0.19341
       7     C     3.08853  3.08853  0.00000 -0.17707
       8     H     0.39445  0.39445  0.00000  0.21110
       9     C     2.97048  2.97048  0.00000  0.05905
      10     H     0.39885  0.39885  0.00000  0.20231
      11     C     3.12228  3.12228  0.00000 -0.24457
      12     C     3.25452  3.25452  0.00000 -0.50904
      13     H     0.40322  0.40322  0.00000  0.19357
      14     H     0.41167  0.41167  0.00000  0.17666
      15     H     0.41151  0.41151  0.00000  0.17698
      16     H     0.40934  0.40934  0.00000  0.18132

   Total alpha = 29.00000, Total beta = 29.00000, Total charge =  0.00000
