  ==> Input File <==

--------------------------------------------------------------------------
set {
	reference rhf
	basis cc-pvtz
}

set_num_threads( 4 )
memory 2 gb

molecule MOL {
0 1

H	 -2.676180	 0.721373	 0.053424
O	 -2.313989	 -0.142475	 -0.025864
C	 -0.943808	 -0.065018	 -0.330000
H	 -0.812293	 -0.225641	 -1.398673
C	 -0.231030	 -1.182113	 0.407592
C	 -0.353797	 1.300461	 0.050970
H	 -0.312800	 -0.992012	 1.473041
H	 -0.738841	 -2.119564	 0.220514
C	 1.246176	 -1.268044	 -0.015480
H	 -0.539537	 2.008579	 -0.751815
H	 -0.889989	 1.662858	 0.920677
C	 1.153605	 1.231851	 0.356834
H	 1.823096	 -1.684665	 0.802361
H	 1.352335	 -1.958223	 -0.845114
C	 1.826409	 0.100723	 -0.416008
H	 1.622968	 2.181508	 0.128734
H	 1.301983	 1.066493	 1.419367
H	 2.897299	 0.112407	 -0.249665
H	 1.683458	 0.265621	 -1.480024

	symmetry c1
}
set optking {
	frozen_dihedral = ("
		1 2 3 4
	")
}

ee = optimize('scf')
oeprop('DIPOLE', 'QUADRUPOLE', 'MULLIKEN_CHARGES')
f=open( 'psi4out.xyz', 'w' )
f.write( "19  " )
f.write( str(ee) + "\n" )
f.write( MOL.save_string_xyz() )
f.close()
--------------------------------------------------------------------------

    Molecular point group: c1
  Charge       = 0
  Multiplicity = 1
  Basis Set: CC-PVTZ
  Basis Set:
  @DF-RHF Final Energy:  -309.16209766402778
    Total Energy =                       -309.1620976640276695
    Molecular point group: c1
  Basis Set: CC-PVTZ
  Basis Set:
  Basis Set: CC-PVTZ
  Basis Set:
  @DF-RHF Final Energy:  -309.16220445649805
    Total Energy =                       -309.1622044564978751
  Basis Set: CC-PVTZ
  Basis Set:
  Basis Set: CC-PVTZ
  Basis Set:
  @DF-RHF Final Energy:  -309.16224077470184
    Total Energy =                       -309.1622407747018428
  Basis Set: CC-PVTZ
  Basis Set:
  Charge       = 0
  Multiplicity = 1
  Basis Set: CC-PVTZ
  Basis Set:

    Orbital Energies (a.u.)
    -----------------------

    Doubly Occupied:

       1A    -20.541717     2A    -11.267060     3A    -11.218523
       4A    -11.217878     5A    -11.214905     6A    -11.213492
       7A    -11.206190     8A     -1.362047     9A     -1.111615
      10A     -1.005389    11A     -0.990072    12A     -0.847221
      13A     -0.839870    14A     -0.741732    15A     -0.683474
      16A     -0.669382    17A     -0.626573    18A     -0.599922
      19A     -0.582970    20A     -0.550932    21A     -0.529068
      22A     -0.521174    23A     -0.502120    24A     -0.486812
      25A     -0.468778    26A     -0.450176    27A     -0.427429
      28A     -0.414871

  @DF-RHF Final Energy:  -309.16224140081005

   => Energetics <=

    Nuclear Repulsion Energy =            332.0595043039575671
    One-Electron Energy =               -1077.8607064416205503
    Two-Electron Energy =                 436.6389607368528232
    DFT Exchange-Correlation Energy =       0.0000000000000000
    Empirical Dispersion Energy =           0.0000000000000000
    PCM Polarization Energy =               0.0000000000000000
    EFP Energy =                            0.0000000000000000
    Total Energy =                       -309.1622414008102169
    Molecular point group: c1
  Basis Set: CC-PVTZ
  Basis Set:

  -Total Gradient:
     Atom            X                  Y                   Z
    ------   -----------------  -----------------  -----------------
       1        0.000342207601    -0.000020739742     0.001665249859
       2       -0.000413178495    -0.000356241720    -0.001992383235
       3       -0.000103557809     0.001746062981     0.000117493487
       4        0.000159755973    -0.001427274448     0.000268803673
       5       -0.000018325332    -0.000029426118    -0.000052338779
       6        0.000069437278     0.000013764513    -0.000022043556
       7       -0.000000513844     0.000009539902    -0.000021286372
       8       -0.000013822192    -0.000020022153     0.000011257462
       9       -0.000010667010     0.000010508731     0.000000937602
      10        0.000014356022     0.000007732684     0.000012349953
      11        0.000013991131     0.000002035755     0.000009711403
      12       -0.000011761579     0.000045156458    -0.000023434517
      13       -0.000005958144    -0.000006391431     0.000012557168
      14       -0.000006279991    -0.000003368095     0.000017020503
      15       -0.000009500342    -0.000012381789    -0.000004385882
      16        0.000004878251     0.000018479899     0.000015123438
      17       -0.000007531881    -0.000003139872    -0.000005590201
      18       -0.000005003414     0.000008162123    -0.000005308920
      19        0.000001473776     0.000017542320    -0.000003733087

  **** Optimization is complete! (in 4 steps) ****
    Final optimized geometry and variables:
    Molecular point group: c1

    Geometry (in Angstrom), charge = 0, multiplicity = 1:

    H           -2.693597403400     0.715501557901     0.010229331154
    O           -2.321411012282    -0.143569092692    -0.058942547764
    C           -0.942287174484    -0.064633268751    -0.326122338351
    H           -0.798936077909    -0.228737471216    -1.391795069586
    C           -0.229106728054    -1.182292060497     0.413221555170
    C           -0.354665875654     1.298153195648     0.058980183423
    H           -0.305328763415    -0.991289059018     1.479219440017
    H           -0.740332711325    -2.118853483828     0.229924793651
    C            1.245252766621    -1.271645503122    -0.018630427104
    H           -0.551819323752     2.011005321423    -0.735880306596
    H           -0.875443284898     1.656973147512     0.941983487342
    C            1.155579931166     1.229646161807     0.352100314857
    H            1.827287043844    -1.688717324283     0.795374300877
    H            1.345566472260    -1.961547628001    -0.849109718613
    C            1.823651556686     0.097135573096    -0.423207444973
    H            1.621741427479     2.179337891082     0.118129353738
    H            1.312175877707     1.066542191652     1.413628302635
    H            2.895055210931     0.110357090980    -0.260668221068
    H            1.676430948897     0.261514357200    -1.486427359562

  Mulliken Charges: (a.u.)
   Center  Symbol    Alpha    Beta     Spin     Total
       1     H     0.39294  0.39294  0.00000  0.21412
       2     O     4.20601  4.20601  0.00000 -0.41202
       3     C     2.92245  2.92245  0.00000  0.15511
       4     H     0.45922  0.45922  0.00000  0.08156
       5     C     3.09552  3.09552  0.00000 -0.19103
       6     C     3.12646  3.12646  0.00000 -0.25292
       7     H     0.45726  0.45726  0.00000  0.08547
       8     H     0.44086  0.44086  0.00000  0.11828
       9     C     3.11410  3.11410  0.00000 -0.22820
      10     H     0.44511  0.44511  0.00000  0.10978
      11     H     0.45237  0.45237  0.00000  0.09526
      12     C     3.10055  3.10055  0.00000 -0.20111
      13     H     0.44710  0.44710  0.00000  0.10580
      14     H     0.44707  0.44707  0.00000  0.10587
      15     C     3.10251  3.10251  0.00000 -0.20501
      16     H     0.44206  0.44206  0.00000  0.11587
      17     H     0.45233  0.45233  0.00000  0.09534
      18     H     0.44272  0.44272  0.00000  0.11456
      19     H     0.45337  0.45337  0.00000  0.09327

   Total alpha = 28.00000, Total beta = 28.00000, Total charge = -0.00000
