  ==> Input File <==

--------------------------------------------------------------------------
set {
	reference rhf
	basis cc-pvtz
}

set_num_threads( 4 )
memory 2 gb

molecule MOL {
0 1

O	 -1.278239	 1.034789	 -0.784693
C	 -1.204115	 0.062668	 -0.112312
C	 -2.386398	 -0.667698	 0.460323
O	 -0.068058	 -0.518372	 0.226882
H	 -2.382952	 -1.693172	 0.114333
H	 -3.296656	 -0.175702	 0.158400
H	 -2.312537	 -0.685191	 1.540100
C	 1.169086	 0.037484	 -0.230612
C	 2.266668	 -0.724602	 0.484686
C	 1.200216	 1.528673	 0.052219
H	 1.234310	 -0.130180	 -1.294907
H	 2.206122	 -1.782102	 0.261578
H	 3.237191	 -0.362612	 0.167258
H	 2.186970	 -0.596254	 1.557584
H	 2.141374	 1.948998	 -0.282518
H	 0.399862	 2.035157	 -0.468891
H	 1.101556	 1.715800	 1.115484

	symmetry c1
}
set optking {
	frozen_dihedral = ("
		11 8 4 2
	")
}

ee = optimize('scf')
oeprop('DIPOLE', 'QUADRUPOLE', 'MULLIKEN_CHARGES')
f=open( 'psi4out.xyz', 'w' )
f.write( "17  " )
f.write( str(ee) + "\n" )
f.write( MOL.save_string_xyz() )
f.close()
--------------------------------------------------------------------------

    Molecular point group: c1
  Charge       = 0
  Multiplicity = 1
  Basis Set: CC-PVTZ
  Basis Set:
  @DF-RHF Final Energy:  -345.03273437280819
    Total Energy =                       -345.0327343728081360
    Molecular point group: c1
  Basis Set: CC-PVTZ
  Basis Set:
  Basis Set: CC-PVTZ
  Basis Set:
  @DF-RHF Final Energy:  -345.03875358605194
    Total Energy =                       -345.0387535860520529
  Basis Set: CC-PVTZ
  Basis Set:
  Basis Set: CC-PVTZ
  Basis Set:
  @DF-RHF Final Energy:  -345.03936377419541
    Total Energy =                       -345.0393637741952944
  Basis Set: CC-PVTZ
  Basis Set:
  Basis Set: CC-PVTZ
  Basis Set:
  @DF-RHF Final Energy:  -345.03869129020040
    Total Energy =                       -345.0386912902005179
  Basis Set: CC-PVTZ
  Basis Set:
  Basis Set: CC-PVTZ
  Basis Set:
  @DF-RHF Final Energy:  -345.03943539052625
    Total Energy =                       -345.0394353905265916
  Basis Set: CC-PVTZ
  Basis Set:
  Basis Set: CC-PVTZ
  Basis Set:
  @DF-RHF Final Energy:  -345.03944516956579
    Total Energy =                       -345.0394451695657381
  Basis Set: CC-PVTZ
  Basis Set:
  Basis Set: CC-PVTZ
  Basis Set:
  @DF-RHF Final Energy:  -345.03944708258712
    Total Energy =                       -345.0394470825870599
  Basis Set: CC-PVTZ
  Basis Set:
  Charge       = 0
  Multiplicity = 1
  Basis Set: CC-PVTZ
  Basis Set:

    Orbital Energies (a.u.)
    -----------------------

    Doubly Occupied:

       1A    -20.590652     2A    -20.530935     3A    -11.366568
       4A    -11.292089     5A    -11.229897     6A    -11.217262
       7A    -11.211972     8A     -1.466655     9A     -1.364688
      10A     -1.080290    11A     -1.005136    12A     -0.947552
      13A     -0.854731    14A     -0.757711    15A     -0.694130
      16A     -0.678924    17A     -0.661068    18A     -0.616888
      19A     -0.586560    20A     -0.579218    21A     -0.554434
      22A     -0.550199    23A     -0.541902    24A     -0.520271
      25A     -0.502990    26A     -0.484701    27A     -0.451303
      28A     -0.435237

  @DF-RHF Final Energy:  -345.03944796835151

   => Energetics <=

    Nuclear Repulsion Energy =            324.3437629352375779
    One-Electron Energy =               -1113.2185016775047188
    Two-Electron Energy =                 443.8352907739157445
    DFT Exchange-Correlation Energy =       0.0000000000000000
    Empirical Dispersion Energy =           0.0000000000000000
    PCM Polarization Energy =               0.0000000000000000
    EFP Energy =                            0.0000000000000000
    Total Energy =                       -345.0394479683513964
    Molecular point group: c1
  Basis Set: CC-PVTZ
  Basis Set:

  -Total Gradient:
     Atom            X                  Y                   Z
    ------   -----------------  -----------------  -----------------
       1       -0.000059138683    -0.000048651612    -0.000008724303
       2       -0.000044727749     0.003175061017     0.004645869508
       3        0.000006602412     0.000082181838     0.000082857880
       4        0.000664295097    -0.005892927094    -0.006837426342
       5       -0.000002311813    -0.000003519264    -0.000035917693
       6       -0.000006163638    -0.000010292275    -0.000003613525
       7        0.000002807939    -0.000038418371    -0.000013880247
       8       -0.003600762710     0.008045979981     0.001198193444
       9        0.000066998865    -0.000004829422    -0.000077154252
      10       -0.000060161033     0.000082625788    -0.000067679646
      11        0.002942904203    -0.005354191173     0.001094629668
      12        0.000000269471    -0.000000545282     0.000007257928
      13        0.000026273237    -0.000013053590     0.000003144291
      14       -0.000005204847     0.000013597328    -0.000026874566
      15        0.000007876934    -0.000011923652    -0.000007849015
      16        0.000057360057    -0.000008710077     0.000033001204
      17        0.000003082253    -0.000012384138     0.000014165666

  **** Optimization is complete! (in 8 steps) ****
    Final optimized geometry and variables:
    Molecular point group: c1

    Geometry (in Angstrom), charge = 0, multiplicity = 1:

    O           -1.324556266722     0.778956305269    -0.968048413621
    C           -1.182564803512    -0.089087811722    -0.175748342493
    C           -2.312884237910    -0.780831417168     0.534862484952
    O           -0.015840693481    -0.594701805461     0.178438449647
    H           -2.264310667333    -1.845337262257     0.346147336571
    H           -3.253792409327    -0.383713900200     0.190168949097
    H           -2.214597775690    -0.632043490101     1.602594610371
    C            1.221802211965     0.007281723565    -0.220784551809
    C            2.289461103981    -0.816144287832     0.480050012922
    C            1.320705421750     1.479338975776     0.138578028559
    H            1.331467022084    -0.150764098035    -1.286311275220
    H            2.182377904703    -1.864891572044     0.235356945849
    H            3.274349324366    -0.489623541090     0.169124974541
    H            2.214071569245    -0.706683044850     1.555390072073
    H            2.326483618144     1.822462887070    -0.073385747527
    H            0.625882811165     2.083499519072    -0.419318988772
    H            1.137430007276     1.617573339038     1.198951410531

  Mulliken Charges: (a.u.)
   Center  Symbol    Alpha    Beta     Spin     Total
       1     O     4.19966  4.19966  0.00000 -0.39932
       2     C     2.80642  2.80642  0.00000  0.38716
       3     C     3.13798  3.13798  0.00000 -0.27597
       4     O     4.16097  4.16097  0.00000 -0.32193
       5     H     0.44500  0.44500  0.00000  0.11000
       6     H     0.43845  0.43845  0.00000  0.12310
       7     H     0.44724  0.44724  0.00000  0.10553
       8     C     2.92802  2.92802  0.00000  0.14395
       9     C     3.13887  3.13887  0.00000 -0.27774
      10     C     3.16400  3.16400  0.00000 -0.32800
      11     H     0.44837  0.44837  0.00000  0.10327
      12     H     0.44619  0.44619  0.00000  0.10763
      13     H     0.45499  0.45499  0.00000  0.09001
      14     H     0.45309  0.45309  0.00000  0.09382
      15     H     0.44925  0.44925  0.00000  0.10149
      16     H     0.42757  0.42757  0.00000  0.14486
      17     H     0.45394  0.45394  0.00000  0.09213

   Total alpha = 28.00000, Total beta = 28.00000, Total charge = -0.00000
