                              Psi4 1.0.54 Driver

  ==> Input File <==

--------------------------------------------------------------------------
set {
	reference rhf
	basis cc-pvtz
}

set_num_threads( 4 )
memory 2 gb

molecule MOL {
0 1

O	 1.850726	 1.288790	 0.110669
C	 1.704209	 0.119472	 -0.000093
C	 0.380337	 -0.600947	 -0.000234
O	 2.711529	 -0.726481	 -0.141819
C	 -0.824290	 0.329213	 -0.000115
H	 0.371455	 -1.255476	 -0.865660
H	 0.371410	 -1.255787	 0.864952
C	 -2.146151	 -0.432825	 -0.000068
H	 -0.773936	 0.979158	 -0.866319
H	 -0.773838	 0.979034	 0.866186
C	 -3.366283	 0.483552	 0.000557
H	 -2.189286	 -1.084450	 -0.869996
H	 -2.188867	 -1.085083	 0.869399
C	 -4.687436	 -0.278003	 0.000108
H	 -3.325150	 1.134819	 -0.867957
H	 -3.325087	 1.133730	 0.869885
H	 -4.773783	 -0.912098	 -0.876078
H	 -5.531922	 0.401392	 0.000363
H	 -4.773901	 -0.912898	 0.875703
C	 4.016623	 -0.184483	 -0.158940
H	 4.131498	 0.507202	 -0.980273
H	 4.684860	 -1.021392	 -0.280956
H	 4.228151	 0.329634	 0.766886

	symmetry c1
}
set optking {
	frozen_dihedral = ("
		1 2 3 6
	")
}

ee,wfn = optimize('scf', return_wfn=True)
oeprop( wfn, 'DIPOLE', 'QUADRUPOLE', 'MULLIKEN_CHARGES')
f=open( 'psi4out.xyz', 'w' )
f.write( "23  " )
f.write( str(ee) + "\n" )
f.write( MOL.save_string_xyz() )
f.close()
--------------------------------------------------------------------------

    Molecular point group: c1
  Charge       = 0
  Multiplicity = 1
  Basis Set: CC-PVTZ
  Basis Set:
  @DF-RHF Final Energy:  -423.13104961610964
    Total Energy =                       -423.1310496161094079
    Molecular point group: c1
  Basis Set: CC-PVTZ
  Basis Set:
  Basis Set: CC-PVTZ
  Basis Set:
  @DF-RHF Final Energy:  -423.13086747287434
    Total Energy =                       -423.1308674728745700
  Basis Set: CC-PVTZ
  Basis Set:
  Basis Set: CC-PVTZ
  Basis Set:
  @DF-RHF Final Energy:  -423.13106655214227
    Total Energy =                       -423.1310665521418741
  Basis Set: CC-PVTZ
  Basis Set:
  Basis Set: CC-PVTZ
  Basis Set:
  @DF-RHF Final Energy:  -423.13107063507186
    Total Energy =                       -423.1310706350715236
  Basis Set: CC-PVTZ
  Basis Set:
  Charge       = 0
  Multiplicity = 1
  Basis Set: CC-PVTZ
  Basis Set:

    Orbital Energies (a.u.)
    -----------------------

    Doubly Occupied:

       1A    -20.596343     2A    -20.534021     3A    -11.364535
       4A    -11.278459     5A    -11.233759     6A    -11.217263
       7A    -11.215856     8A    -11.214534     9A    -11.207781
      10A     -1.472194    11A     -1.365720    12A     -1.094547
      13A     -1.044806    14A     -0.988051    15A     -0.932751
      16A     -0.844141    17A     -0.795605    18A     -0.769345
      19A     -0.699082    20A     -0.686849    21A     -0.675339
      22A     -0.652910    23A     -0.609701    24A     -0.600979
      25A     -0.573690    26A     -0.560472    27A     -0.557252
      28A     -0.525298    29A     -0.522242    30A     -0.508289
      31A     -0.484808    32A     -0.470257    33A     -0.467215
      34A     -0.463354    35A     -0.459159    36A     -0.438298

  @DF-RHF Final Energy:  -423.13107076257921

   => Energetics <=

    Nuclear Repulsion Energy =            452.8906670790025260
    One-Electron Energy =               -1473.7936597801926837
    Two-Electron Energy =                 597.7719219386111718
    DFT Exchange-Correlation Energy =       0.0000000000000000
    Empirical Dispersion Energy =           0.0000000000000000
    PCM Polarization Energy =               0.0000000000000000
    EFP Energy =                            0.0000000000000000
    Total Energy =                       -423.1310707625790428
    Molecular point group: c1
  Basis Set: CC-PVTZ
  Basis Set:

  -Total Gradient:
     Atom            X                  Y                   Z
    ------   -----------------  -----------------  -----------------
       1        0.000041307070    -0.000063133219     0.000273656329
       2       -0.000022526280     0.000029992371    -0.000390982806
       3       -0.000127578358     0.000224459294    -0.000017057313
       4        0.000006502135     0.000014017746    -0.000016834499
       5       -0.000003644461    -0.000005652345    -0.000015241620
       6        0.000109930179    -0.000179756442     0.000141041083
       7       -0.000008833212    -0.000011855509     0.000003451946
       8        0.000000230747     0.000000356507     0.000003057957
       9       -0.000000033084    -0.000000459033     0.000003528975
      10        0.000003480037    -0.000002866967     0.000001100375
      11        0.000000127681    -0.000000582229    -0.000003607911
      12       -0.000000009022    -0.000000440176     0.000001152157
      13       -0.000000119242    -0.000000203363     0.000000620268
      14       -0.000000747016     0.000000439437    -0.000001100912
      15       -0.000000563458     0.000001439892     0.000000322647
      16        0.000000040956    -0.000000989565    -0.000000276127
      17       -0.000000150300    -0.000000033287     0.000000237620
      18       -0.000000542206    -0.000000048668    -0.000000125945
      19        0.000000487373     0.000000124428    -0.000000337947
      20        0.000009308874    -0.000009007581     0.000033031521
      21       -0.000018092275    -0.000001171192    -0.000002751624
      22        0.000008343119     0.000001935818    -0.000005245976
      23        0.000003080734     0.000003434089    -0.000007638199

  **** Optimization is complete! (in 5 steps) ****
    Final optimized geometry and variables:
    Molecular point group: c1

    Geometry (in Angstrom), charge = 0, multiplicity = 1:

    O            1.850301408540     1.290731809914     0.084710232614
    C            1.704118567265     0.121314819662    -0.025677227389
    C            0.381488683978    -0.601052858941    -0.005074070368
    O            2.711509558694    -0.723610557513    -0.173072302989
    C           -0.824149205313     0.327098826052     0.030776312292
    H            0.353035245255    -1.255809665961    -0.869040751287
    H            0.394924719985    -1.256364159791     0.860581743576
    C           -2.144412119973    -0.437010790766     0.062813520533
    H           -0.798440889692     0.979977897297    -0.834796082746
    H           -0.750983908326     0.973968300758     0.897197605103
    C           -3.365446121031     0.477467530634     0.097151884280
    H           -2.209166074534    -1.086853221890    -0.807082732051
    H           -2.163472929844    -1.091108392300     0.931753614122
    C           -4.684996023325    -0.286144554133     0.129814785790
    H           -3.348122205802     1.130414062340    -0.770926845412
    H           -3.302420256858     1.126034097696     0.966349503006
    H           -4.793335468423    -0.918638428556    -0.745094439884
    H           -5.530217415824     0.391930937450     0.153621427198
    H           -4.747466978820    -0.922914599350     1.006089801298
    C            4.016296897713    -0.180991507991    -0.189165549575
    H            4.129807626202     0.514453603365    -1.007483944380
    H            4.684872381986    -1.016972465479    -0.315795678050
    H            4.228794912143     0.329102764364     0.738697821548

  Mulliken Charges: (a.u.)
   Center  Symbol    Alpha    Beta     Spin     Total
       1     O     4.19715  4.19715  0.00000 -0.39429
       2     C     2.80733  2.80733  0.00000  0.38533
       3     C     3.10067  3.10067  0.00000 -0.20135
       4     O     4.14639  4.14639  0.00000 -0.29279
       5     C     3.08351  3.08351  0.00000 -0.16702
       6     H     0.43942  0.43942  0.00000  0.12116
       7     H     0.44097  0.44097  0.00000  0.11806
       8     C     3.08934  3.08934  0.00000 -0.17868
       9     H     0.44763  0.44763  0.00000  0.10475
      10     H     0.44502  0.44502  0.00000  0.10996
      11     C     3.08400  3.08400  0.00000 -0.16800
      12     H     0.45584  0.45584  0.00000  0.08832
      13     H     0.45571  0.45571  0.00000  0.08859
      14     C     3.15039  3.15039  0.00000 -0.30079
      15     H     0.45339  0.45339  0.00000  0.09322
      16     H     0.45316  0.45316  0.00000  0.09369
      17     H     0.45535  0.45535  0.00000  0.08930
      18     H     0.44773  0.44773  0.00000  0.10455
      19     H     0.45529  0.45529  0.00000  0.08942
      20     C     3.03769  3.03769  0.00000 -0.07538
      21     H     0.45434  0.45434  0.00000  0.09132
      22     H     0.44532  0.44532  0.00000  0.10936
      23     H     0.45437  0.45437  0.00000  0.09126

   Total alpha = 36.00000, Total beta = 36.00000, Total charge = -0.00000

*** Psi4 exiting successfully. Buy a developer a beer!
