                              Psi4 1.0.54 Driver

  ==> Input File <==

--------------------------------------------------------------------------
set {
	reference rhf
	basis cc-pvtz
}

set_num_threads( 4 )
memory 2 gb

molecule MOL {
0 1

O	 0.074770	 1.259872	 0.000487
C	 0.029490	 0.077183	 0.000078
C	 -1.232113	 -0.748027	 0.000015
O	 1.106773	 -0.690081	 -0.000204
C	 -2.501422	 0.088592	 -0.000052
H	 -1.188777	 -1.400384	 -0.865133
H	 -1.188857	 -1.400312	 0.865225
H	 -2.548170	 0.725504	 -0.873205
H	 -3.371613	 -0.556398	 -0.000040
H	 -2.548215	 0.725571	 0.873047
C	 2.103626	 -0.409337	 0.961621
H	 2.488705	 0.591065	 0.830683
H	 2.885672	 -1.133300	 0.800042
H	 1.706677	 -0.506093	 1.961278

	symmetry c1
}
set optking {
	frozen_dihedral = ("
		11 4 2 3
	")
}

ee,wfn = optimize('scf', return_wfn=True)
oeprop( wfn, 'DIPOLE', 'QUADRUPOLE', 'MULLIKEN_CHARGES')
f=open( 'psi4out.xyz', 'w' )
f.write( "14  " )
f.write( str(ee) + "\n" )
f.write( MOL.save_string_xyz() )
f.close()
--------------------------------------------------------------------------

    Molecular point group: c1
  Charge       = 0
  Multiplicity = 1
  Basis Set: CC-PVTZ
  Basis Set:
  @DF-RHF Final Energy:  -305.97625676027064
    Total Energy =                       -305.9762567602707009
    Molecular point group: c1
  Basis Set: CC-PVTZ
  Basis Set:
  Basis Set: CC-PVTZ
  Basis Set:
  @DF-RHF Final Energy:  -305.97445800537218
    Total Energy =                       -305.9744580053720711
  Basis Set: CC-PVTZ
  Basis Set:
  Basis Set: CC-PVTZ
  Basis Set:
  @DF-RHF Final Energy:  -305.97678292009584
    Total Energy =                       -305.9767829200959568
  Basis Set: CC-PVTZ
  Basis Set:
  Basis Set: CC-PVTZ
  Basis Set:
  @DF-RHF Final Energy:  -305.97703899824529
    Total Energy =                       -305.9770389982451775
  Basis Set: CC-PVTZ
  Basis Set:
  Basis Set: CC-PVTZ
  Basis Set:
  @DF-RHF Final Energy:  -305.97706825939429
    Total Energy =                       -305.9770682593943434
  Basis Set: CC-PVTZ
  Basis Set:
  Basis Set: CC-PVTZ
  Basis Set:
  @DF-RHF Final Energy:  -305.97707173898471
    Total Energy =                       -305.9770717389848187
  Basis Set: CC-PVTZ
  Basis Set:
  Basis Set: CC-PVTZ
  Basis Set:
  @DF-RHF Final Energy:  -305.97707192022415
    Total Energy =                       -305.9770719202243185
  Basis Set: CC-PVTZ
  Basis Set:
  Charge       = 0
  Multiplicity = 1
  Basis Set: CC-PVTZ
  Basis Set:

    Orbital Energies (a.u.)
    -----------------------

    Doubly Occupied:

       1A    -20.586129     2A    -20.540804     3A    -11.367413
       4A    -11.283413     5A    -11.239416     6A    -11.216202
       7A     -1.466605     8A     -1.368215     9A     -1.064775
      10A     -0.978380    11A     -0.885208    12A     -0.768321
      13A     -0.702571    14A     -0.680232    15A     -0.675820
      16A     -0.621612    17A     -0.609789    18A     -0.555481
      19A     -0.541330    20A     -0.522650    21A     -0.511486
      22A     -0.498269    23A     -0.459335    24A     -0.440174

  @DF-RHF Final Energy:  -305.97707207408223

   => Energetics <=

    Nuclear Repulsion Energy =            247.1331789945859612
    One-Electron Energy =                -907.0532406505590188
    Two-Electron Energy =                 353.9429895818909131
    DFT Exchange-Correlation Energy =       0.0000000000000000
    Empirical Dispersion Energy =           0.0000000000000000
    PCM Polarization Energy =               0.0000000000000000
    EFP Energy =                            0.0000000000000000
    Total Energy =                       -305.9770720740821730
    Molecular point group: c1
  Basis Set: CC-PVTZ
  Basis Set:

  -Total Gradient:
     Atom            X                  Y                   Z
    ------   -----------------  -----------------  -----------------
       1       -0.000186487147     0.000050400548    -0.000009954134
       2       -0.001727380885    -0.001350848872    -0.007657222167
       3        0.000230949842    -0.000951471242     0.006837374005
       4        0.004812688731     0.007777897737    -0.003500106389
       5       -0.000041624861    -0.000021299455     0.000011492717
       6        0.000017145620     0.000035451338     0.000000338732
       7        0.000003810542     0.000030068120     0.000005094702
       8        0.000000180998    -0.000006571094    -0.000003576084
       9       -0.000018011690     0.000011513219    -0.000001981082
      10        0.000005510037     0.000003796066     0.000011533330
      11       -0.003103438464    -0.005605419491     0.004271211435
      12        0.000007857314     0.000020515338     0.000006225120
      13        0.000011661645     0.000002583918     0.000006959485
      14       -0.000012861681     0.000003383873     0.000022610327

  **** Optimization is complete! (in 8 steps) ****
    Final optimized geometry and variables:
    Molecular point group: c1

    Geometry (in Angstrom), charge = 0, multiplicity = 1:

    O            0.101021266855     1.318286278369     0.114873507959
    C            0.063035694410     0.165285719540    -0.133237534388
    C           -1.193049835336    -0.662636932357    -0.200069595050
    O            1.162403150061    -0.578529961988    -0.295492763685
    C           -2.472215586841     0.158131424090    -0.218216771390
    H           -1.123396542494    -1.317448485880    -1.060753908384
    H           -1.155439392710    -1.313420654547     0.668936906302
    H           -2.510791452181     0.797634881876    -1.090706999112
    H           -3.335431526225    -0.495814424358    -0.238261015520
    H           -2.540679650675     0.790888497243     0.655892701308
    C            2.194163181277    -0.418485325952     0.656768403683
    H            2.562712786488     0.596116441403     0.665872686696
    H            2.982494954883    -1.094591684556     0.368522232928
    H            1.834675626253    -0.681969146848     1.643927790927

  Mulliken Charges: (a.u.)
   Center  Symbol    Alpha    Beta     Spin     Total
       1     O     4.18333  4.18333  0.00000 -0.36666
       2     C     2.79826  2.79826  0.00000  0.40348
       3     C     3.09431  3.09431  0.00000 -0.18863
       4     O     4.16105  4.16105  0.00000 -0.32209
       5     C     3.14046  3.14046  0.00000 -0.28091
       6     H     0.43859  0.43859  0.00000  0.12281
       7     H     0.44621  0.44621  0.00000  0.10759
       8     H     0.44943  0.44943  0.00000  0.10114
       9     H     0.45036  0.45036  0.00000  0.09927
      10     H     0.44630  0.44630  0.00000  0.10740
      11     C     3.03531  3.03531  0.00000 -0.07062
      12     H     0.44629  0.44629  0.00000  0.10742
      13     H     0.44536  0.44536  0.00000  0.10928
      14     H     0.46474  0.46474  0.00000  0.07052

   Total alpha = 24.00000, Total beta = 24.00000, Total charge = -0.00000

*** Psi4 exiting successfully. Buy a developer a beer!
