                              Psi4 1.0.54 Driver

  ==> Input File <==

--------------------------------------------------------------------------
set {
	reference rhf
	basis cc-pvtz
}

set_num_threads( 4 )
memory 2 gb

molecule MOL {
0 1

H	 -3.255265	 0.141388	 -0.856499
O	 -2.462728	 -0.372529	 -0.895134
C	 -1.605397	 0.107680	 0.001145
C	 -0.310616	 -0.658853	 0.000791
O	 -1.868799	 1.030182	 0.692217
C	 0.926581	 0.227233	 0.000178
H	 -0.327628	 -1.313681	 -0.864448
H	 -0.327041	 -1.313334	 0.866298
C	 2.220156	 -0.582071	 -0.000088
H	 0.899945	 0.878221	 -0.866390
H	 0.900542	 0.878581	 0.866486
C	 3.466689	 0.296012	 -0.000457
H	 2.239073	 -1.234095	 -0.869382
H	 2.239505	 -1.233985	 0.869270
H	 3.493549	 0.935857	 -0.875887
H	 4.368821	 -0.304526	 -0.001199
H	 3.494559	 0.935166	 0.875458

	symmetry c1
}
set optking {
	frozen_dihedral = ("
		2 3 4 7
	")
}

ee,wfn = optimize('scf', return_wfn=True)
oeprop( wfn, 'DIPOLE', 'QUADRUPOLE', 'MULLIKEN_CHARGES')
f=open( 'psi4out.xyz', 'w' )
f.write( "17  " )
f.write( str(ee) + "\n" )
f.write( MOL.save_string_xyz() )
f.close()
--------------------------------------------------------------------------

    Molecular point group: c1
  Charge       = 0
  Multiplicity = 1
  Basis Set: CC-PVTZ
  Basis Set:
  @DF-RHF Final Energy:  -345.04708548278768
    Total Energy =                       -345.0470854827876792
    Molecular point group: c1
  Basis Set: CC-PVTZ
  Basis Set:
  Basis Set: CC-PVTZ
  Basis Set:
  @DF-RHF Final Energy:  -345.04748010589759
    Total Energy =                       -345.0474801058978187
  Basis Set: CC-PVTZ
  Basis Set:
  Basis Set: CC-PVTZ
  Basis Set:
  @DF-RHF Final Energy:  -345.04740439940861
    Total Energy =                       -345.0474043994090607
  Basis Set: CC-PVTZ
  Basis Set:
  Basis Set: CC-PVTZ
  Basis Set:
  @DF-RHF Final Energy:  -345.04756954524390
    Total Energy =                       -345.0475695452441300
  Basis Set: CC-PVTZ
  Basis Set:
  Basis Set: CC-PVTZ
  Basis Set:
  @DF-RHF Final Energy:  -345.04757153229002
    Total Energy =                       -345.0475715322903056
  Basis Set: CC-PVTZ
  Basis Set:
  Charge       = 0
  Multiplicity = 1
  Basis Set: CC-PVTZ
  Basis Set:

    Orbital Energies (a.u.)
    -----------------------

    Doubly Occupied:

       1A    -20.606184     2A    -20.538272     3A    -11.373617
       4A    -11.238370     5A    -11.225399     6A    -11.222223
       7A    -11.211919     8A     -1.478245     9A     -1.368444
      10A     -1.093815    11A     -1.019716    12A     -0.913956
      13A     -0.825897    14A     -0.797130    15A     -0.705758
      16A     -0.687659    17A     -0.662069    18A     -0.636083
      19A     -0.593358    20A     -0.584161    21A     -0.579684
      22A     -0.538733    23A     -0.512916    24A     -0.489314
      25A     -0.481950    26A     -0.477700    27A     -0.472541
      28A     -0.443122

  @DF-RHF Final Energy:  -345.04757174342529

   => Energetics <=

    Nuclear Repulsion Energy =            304.7969114921414189
    One-Electron Energy =               -1074.1325056295308968
    Two-Electron Energy =                 424.2880223939641837
    DFT Exchange-Correlation Energy =       0.0000000000000000
    Empirical Dispersion Energy =           0.0000000000000000
    PCM Polarization Energy =               0.0000000000000000
    EFP Energy =                            0.0000000000000000
    Total Energy =                       -345.0475717434253511
    Molecular point group: c1
  Basis Set: CC-PVTZ
  Basis Set:

  -Total Gradient:
     Atom            X                  Y                   Z
    ------   -----------------  -----------------  -----------------
       1       -0.000009253483     0.000003873537     0.000002136235
       2        0.000277334761     0.000435498344    -0.000551284647
       3       -0.000432278829    -0.000770873442     0.000837744331
       4        0.000544418175     0.000992680931    -0.000827564317
       5        0.000008582313     0.000022740405     0.000031054218
       6       -0.000016010929    -0.000002418264     0.000001621370
       7       -0.000368498623    -0.000676053298     0.000497945749
       8       -0.000000505915    -0.000004360848     0.000000615554
       9       -0.000002859112    -0.000005496531     0.000003154135
      10       -0.000004094216    -0.000004207739    -0.000000678069
      11        0.000006457586     0.000005652865     0.000002696153
      12       -0.000003459065     0.000002734080     0.000003235649
      13       -0.000003504681     0.000001205776    -0.000001993158
      14       -0.000000154990    -0.000003166931     0.000000452592
      15       -0.000000285049     0.000000864234    -0.000001569201
      16        0.000002484879    -0.000001556965     0.000000262753
      17        0.000001627179     0.000002883848     0.000002170652

  **** Optimization is complete! (in 6 steps) ****
    Final optimized geometry and variables:
    Molecular point group: c1

    Geometry (in Angstrom), charge = 0, multiplicity = 1:

    H           -3.302244700716     0.138892153808    -0.711862867223
    O           -2.514100103396    -0.373699752326    -0.815252634789
    C           -1.609174924495     0.072570452953     0.048658985736
    C           -0.316790314333    -0.700156939477    -0.003075055458
    O           -1.829083954658     0.978370852089     0.777476755122
    C            0.909683926979     0.209971794240     0.000160696189
    H           -0.325714637893    -1.356619236713    -0.861850623505
    H           -0.308144148239    -1.330852125359     0.881058354814
    C            2.216747966940    -0.576084475355     0.028508892973
    H            0.887831000570     0.843906852195    -0.881741843619
    H            0.855044578258     0.870477539764     0.856519094189
    C            3.447540059811     0.323926377630     0.023579008252
    H            2.256239129470    -1.245595194433    -0.826358803230
    H            2.235673620919    -1.207933529673     0.912302899517
    H            3.475339170557     0.943748615398    -0.866233689497
    H            4.359624207545    -0.260792262808     0.047943186152
    H            3.452814876858     0.983067903192     0.884879769080

  Mulliken Charges: (a.u.)
   Center  Symbol    Alpha    Beta     Spin     Total
       1     H     0.38081  0.38081  0.00000  0.23839
       2     O     4.15752  4.15752  0.00000 -0.31504
       3     C     2.80988  2.80988  0.00000  0.38025
       4     C     3.09443  3.09443  0.00000 -0.18885
       5     O     4.19709  4.19709  0.00000 -0.39418
       6     C     3.09141  3.09141  0.00000 -0.18282
       7     H     0.43696  0.43696  0.00000  0.12608
       8     H     0.44360  0.44360  0.00000  0.11280
       9     C     3.08673  3.08673  0.00000 -0.17346
      10     H     0.45098  0.45098  0.00000  0.09804
      11     H     0.43890  0.43890  0.00000  0.12221
      12     C     3.14913  3.14913  0.00000 -0.29825
      13     H     0.45418  0.45418  0.00000  0.09164
      14     H     0.45339  0.45339  0.00000  0.09322
      15     H     0.45425  0.45425  0.00000  0.09150
      16     H     0.44777  0.44777  0.00000  0.10446
      17     H     0.45298  0.45298  0.00000  0.09403

   Total alpha = 28.00000, Total beta = 28.00000, Total charge =  0.00000

*** Psi4 exiting successfully. Buy a developer a beer!
