                              Psi4 1.0.54 Driver

  ==> Input File <==

--------------------------------------------------------------------------
set {
	reference rhf
	basis cc-pvtz
}

set_num_threads( 4 )
memory 2 gb

molecule MOL {
0 1

H	 -1.032815	 0.511958	 4.319665
C	 -1.649663	 -0.193360	 3.746158
C	 -2.097417	 0.306377	 2.399432
O	 -1.921093	 -1.249040	 4.203511
C	 -0.938574	 0.831260	 1.546638
H	 -2.633787	 -0.488686	 1.897918
H	 -2.798793	 1.116516	 2.586649
C	 0.038849	 -0.255920	 1.105202
H	 -1.351413	 1.321587	 0.671719
H	 -0.404449	 1.600206	 2.099472
C	 1.181757	 0.280428	 0.247371
H	 -0.503744	 -1.016630	 0.550206
H	 0.450282	 -0.757249	 1.977452
C	 2.151032	 -0.811012	 -0.202643
H	 0.764584	 0.787056	 -0.617290
H	 1.728690	 1.034405	 0.809226
C	 3.580021	 -0.656538	 0.320835
H	 2.170545	 -0.847575	 -1.289412
H	 1.766632	 -1.772905	 0.124928
C	 4.327657	 0.562694	 -0.213579
H	 4.138806	 -1.549270	 0.057813
H	 3.561991	 -0.620783	 1.406976
H	 4.355973	 0.557257	 -1.298551
H	 3.867136	 1.491650	 0.100501
H	 5.351524	 0.571613	 0.142204

	symmetry c1
}
set optking {
	frozen_dihedral = ("
		8 11 14 18
	")
}

ee,wfn = optimize('scf', return_wfn=True)
oeprop( wfn, 'DIPOLE', 'QUADRUPOLE', 'MULLIKEN_CHARGES')
f=open( 'psi4out.xyz', 'w' )
f.write( "25  " )
f.write( str(ee) + "\n" )
f.write( MOL.save_string_xyz() )
f.close()
--------------------------------------------------------------------------

    Molecular point group: c1
  Charge       = 0
  Multiplicity = 1
  Basis Set: CC-PVTZ
  Basis Set:
  @DF-RHF Final Energy:  -387.25496202451700
    Total Energy =                       -387.2549620245159758
    Molecular point group: c1
  Basis Set: CC-PVTZ
  Basis Set:
  Basis Set: CC-PVTZ
  Basis Set:
  @DF-RHF Final Energy:  -387.25517519502841
    Total Energy =                       -387.2551751950279595
  Basis Set: CC-PVTZ
  Basis Set:
  Basis Set: CC-PVTZ
  Basis Set:
  @DF-RHF Final Energy:  -387.25530213690934
    Total Energy =                       -387.2553021369093358
  Basis Set: CC-PVTZ
  Basis Set:
  Basis Set: CC-PVTZ
  Basis Set:
  @DF-RHF Final Energy:  -387.25516203197475
    Total Energy =                       -387.2551620319749190
  Basis Set: CC-PVTZ
  Basis Set:
  Basis Set: CC-PVTZ
  Basis Set:
  @DF-RHF Final Energy:  -387.25536324082822
    Total Energy =                       -387.2553632408282738
  Basis Set: CC-PVTZ
  Basis Set:
  Basis Set: CC-PVTZ
  Basis Set:
  @DF-RHF Final Energy:  -387.25538270173888
    Total Energy =                       -387.2553827017387675
  Basis Set: CC-PVTZ
  Basis Set:
  Charge       = 0
  Multiplicity = 1
  Basis Set: CC-PVTZ
  Basis Set:

    Orbital Energies (a.u.)
    -----------------------

    Doubly Occupied:

       1A    -20.551502     2A    -11.321108     3A    -11.233903
       4A    -11.232749     5A    -11.222208     6A    -11.217855
       7A    -11.216355     8A    -11.214682     9A    -11.208693
      10A     -1.406512    11A     -1.104629    12A     -1.070157
      13A     -1.013909    14A     -0.942401    15A     -0.875747
      16A     -0.823893    17A     -0.788723    18A     -0.780913
      19A     -0.668825    20A     -0.660930    21A     -0.635394
      22A     -0.625361    23A     -0.607729    24A     -0.592773
      25A     -0.574397    26A     -0.555824    27A     -0.533628
      28A     -0.524870    29A     -0.515056    30A     -0.495151
      31A     -0.490947    32A     -0.483554    33A     -0.459928
      34A     -0.456533    35A     -0.443760    36A     -0.412011

  @DF-RHF Final Energy:  -387.25538367507437

   => Energetics <=

    Nuclear Repulsion Energy =            441.7423739042724833
    One-Electron Energy =               -1400.0702980237820157
    Two-Electron Energy =                 571.0725404444357309
    DFT Exchange-Correlation Energy =       0.0000000000000000
    Empirical Dispersion Energy =           0.0000000000000000
    PCM Polarization Energy =               0.0000000000000000
    EFP Energy =                            0.0000000000000000
    Total Energy =                       -387.2553836750738583
    Molecular point group: c1
  Basis Set: CC-PVTZ
  Basis Set:

  -Total Gradient:
     Atom            X                  Y                   Z
    ------   -----------------  -----------------  -----------------
       1       -0.000031174887     0.000029699479    -0.000002733061
       2        0.000105851046    -0.000055675260    -0.000031872108
       3       -0.000015722282     0.000011623955     0.000042036802
       4       -0.000042443306    -0.000010261412     0.000001673334
       5       -0.000032641664    -0.000010250125    -0.000045546215
       6       -0.000012291072     0.000010253678    -0.000001419781
       7        0.000009094294     0.000002751569     0.000012698953
       8        0.000059655241     0.000037847249     0.000138550307
       9        0.000020842147    -0.000004268846    -0.000015641823
      10       -0.000006641289     0.000009293005    -0.000007599881
      11       -0.000069977173     0.000064434329    -0.000090985763
      12        0.000004549528     0.000011236802    -0.000003029005
      13       -0.000012339815    -0.000003519886     0.000018205060
      14       -0.000092804192    -0.000148066064     0.000021368893
      15        0.000003871373     0.000015934632     0.000011190102
      16       -0.000036233592     0.000010612409    -0.000005956367
      17        0.000038155341    -0.000050152643    -0.000065729654
      18        0.000130163207     0.000072844540     0.000026395022
      19        0.000024002518    -0.000014136712    -0.000016871989
      20       -0.000019407595     0.000048205596     0.000004032802
      21       -0.000006897101    -0.000017161497     0.000001089181
      22       -0.000003324640     0.000005571047    -0.000007677885
      23        0.000007695475    -0.000021210391     0.000004188831
      24       -0.000010053437     0.000012374792    -0.000009212033
      25       -0.000011928129    -0.000007980244     0.000022846287

  **** Optimization is complete! (in 7 steps) ****
    Final optimized geometry and variables:
    Molecular point group: c1

    Geometry (in Angstrom), charge = 0, multiplicity = 1:

    H           -1.586898291006     0.538331728396     2.870123174767
    C           -2.201003497317    -0.144708075448     2.267421751761
    C           -2.641220643408     0.405171946115     0.937858861873
    O           -2.476087958123    -1.216306599043     2.683753866924
    C           -1.477232334144     0.959534174603     0.111097565687
    H           -3.175943318038    -0.370026881927     0.404498606992
    H           -3.342656183227     1.208714638604     1.151352728879
    C           -0.494669248483    -0.110753388315    -0.357638223632
    H           -1.884305774517     1.476936956694    -0.750923273189
    H           -0.948923270001     1.711503811034     0.692220205822
    C            0.649997630609     0.452916406490    -1.197143094486
    H           -1.031652328935    -0.858278205831    -0.935385913222
    H           -0.082058051728    -0.635105498328     0.500914705118
    C            1.651741920767    -0.625095191682    -1.663360423283
    H            0.232967405904     0.972449235293    -2.053844739882
    H            1.166219686018     1.209526487381    -0.614555004559
    C            3.074152269134    -0.445140814774    -1.128838463631
    H            1.689332608986    -0.650772387437    -2.747909393059
    H            1.290701138582    -1.601007965477    -1.356066610105
    C            3.812445535710     0.753091864802    -1.719539319261
    H            3.643840510207    -1.344611361583    -1.340830207858
    H            3.041564412864    -0.355181285579    -0.045939233120
    H            3.908903872582     0.654309989309    -2.795862516147
    H            3.296428490274     1.685424348644    -1.520506809495
    H            4.810460668819     0.837251573498    -1.304945290694

  Mulliken Charges: (a.u.)
   Center  Symbol    Alpha    Beta     Spin     Total
       1     H     0.46422  0.46422  0.00000  0.07156
       2     C     2.90492  2.90492  0.00000  0.19016
       3     C     3.08924  3.08924  0.00000 -0.17847
       4     O     4.16614  4.16614  0.00000 -0.33229
       5     C     3.11676  3.11676  0.00000 -0.23351
       6     H     0.44286  0.44286  0.00000  0.11429
       7     H     0.44051  0.44051  0.00000  0.11897
       8     C     3.08935  3.08935  0.00000 -0.17870
       9     H     0.44309  0.44309  0.00000  0.11383
      10     H     0.44970  0.44970  0.00000  0.10061
      11     C     3.10114  3.10114  0.00000 -0.20228
      12     H     0.44860  0.44860  0.00000  0.10280
      13     H     0.44777  0.44777  0.00000  0.10447
      14     C     3.10276  3.10276  0.00000 -0.20552
      15     H     0.44619  0.44619  0.00000  0.10763
      16     H     0.45289  0.45289  0.00000  0.09423
      17     C     3.08860  3.08860  0.00000 -0.17719
      18     H     0.44805  0.44805  0.00000  0.10391
      19     H     0.44750  0.44750  0.00000  0.10500
      20     C     3.15024  3.15024  0.00000 -0.30047
      21     H     0.44807  0.44807  0.00000  0.10386
      22     H     0.45481  0.45481  0.00000  0.09037
      23     H     0.45436  0.45436  0.00000  0.09128
      24     H     0.45505  0.45505  0.00000  0.08991
      25     H     0.44721  0.44721  0.00000  0.10557

   Total alpha = 36.00000, Total beta = 36.00000, Total charge = -0.00000

*** Psi4 exiting successfully. Buy a developer a beer!
