  ==> Input File <==

--------------------------------------------------------------------------
set {
	reference rhf
	basis cc-pvtz
}

set_num_threads( 4 )
memory 2 gb

molecule MOL {
0 1

H	 -3.096524	 0.513502	 1.947632
O	 -2.250346	 0.792831	 1.650990
C	 -2.021813	 0.336996	 0.342658
C	 -0.669613	 0.837286	 -0.127252
H	 -2.037118	 -0.749600	 0.314396
H	 -2.802208	 0.695021	 -0.326061
C	 0.490865	 -0.082543	 0.241244
H	 -0.708709	 0.967192	 -1.204587
H	 -0.507562	 1.822272	 0.303070
C	 1.839800	 0.429565	 -0.255472
H	 0.305636	 -1.070211	 -0.165276
H	 0.527397	 -0.195943	 1.322876
C	 3.001144	 -0.485193	 0.119072
H	 1.804373	 0.541073	 -1.335756
H	 2.020437	 1.423114	 0.146921
H	 2.866892	 -1.477297	 -0.298806
H	 3.943543	 -0.095749	 -0.249061
H	 3.085064	 -0.590459	 1.195790

	symmetry c1
}
set optking {
	frozen_dihedral = ("
		2 3 4 8
	")
}

ee = optimize('scf')
oeprop('DIPOLE', 'QUADRUPOLE', 'MULLIKEN_CHARGES')
f=open( 'psi4out.xyz', 'w' )
f.write( "18  " )
f.write( str(ee) + "\n" )
f.write( MOL.save_string_xyz() )
f.close()
--------------------------------------------------------------------------

    Molecular point group: c1
  Charge       = 0
  Multiplicity = 1
  Basis Set: CC-PVTZ
  Basis Set:
  @DF-RHF Final Energy:  -271.28452964725216
    Total Energy =                       -271.2845296472521568
    Molecular point group: c1
  Basis Set: CC-PVTZ
  Basis Set:
  Basis Set: CC-PVTZ
  Basis Set:
  @DF-RHF Final Energy:  -271.28489577352025
    Total Energy =                       -271.2848957735205886
  Basis Set: CC-PVTZ
  Basis Set:
  Basis Set: CC-PVTZ
  Basis Set:
  @DF-RHF Final Energy:  -271.28494873263890
    Total Energy =                       -271.2849487326390658
  Basis Set: CC-PVTZ
  Basis Set:
  Basis Set: CC-PVTZ
  Basis Set:
  @DF-RHF Final Energy:  -271.28495409433594
    Total Energy =                       -271.2849540943354896
  Basis Set: CC-PVTZ
  Basis Set:
  Basis Set: CC-PVTZ
  Basis Set:
  @DF-RHF Final Energy:  -271.28495520419369
    Total Energy =                       -271.2849552041939205
  Basis Set: CC-PVTZ
  Basis Set:
  Charge       = 0
  Multiplicity = 1
  Basis Set: CC-PVTZ
  Basis Set:

    Orbital Energies (a.u.)
    -----------------------

    Doubly Occupied:

       1A    -20.545865     2A    -11.265643     3A    -11.210388
       4A    -11.209614     5A    -11.208096     6A    -11.204086
       7A     -1.363159     8A     -1.077764     9A     -1.010172
      10A     -0.914589    11A     -0.819707    12A     -0.787775
      13A     -0.707859    14A     -0.636946    15A     -0.633461
      16A     -0.581003    17A     -0.572317    18A     -0.560558
      19A     -0.526866    20A     -0.499341    21A     -0.488747
      22A     -0.470874    23A     -0.461229    24A     -0.453778
      25A     -0.428693

  @DF-RHF Final Energy:  -271.28495539877872

   => Energetics <=

    Nuclear Repulsion Energy =            248.1180035962372870
    One-Electron Energy =                -859.5288629781662166
    Two-Electron Energy =                 340.1259039831505788
    DFT Exchange-Correlation Energy =       0.0000000000000000
    Empirical Dispersion Energy =           0.0000000000000000
    PCM Polarization Energy =               0.0000000000000000
    EFP Energy =                            0.0000000000000000
    Total Energy =                       -271.2849553987783793
    Molecular point group: c1
  Basis Set: CC-PVTZ
  Basis Set:

  -Total Gradient:
     Atom            X                  Y                   Z
    ------   -----------------  -----------------  -----------------
       1        0.000005913727    -0.000000700010    -0.000009582367
       2       -0.001434367230     0.002818559957    -0.001222975376
       3        0.001568194637    -0.002667107346     0.001709351125
       4        0.001089199286    -0.004349750278    -0.000999021845
       5        0.000003496852     0.000000332169    -0.000009320247
       6        0.000000105648     0.000004804586     0.000003806854
       7       -0.000008064727     0.000008911530    -0.000003946465
       8       -0.001234298112     0.004180250660     0.000518335189
       9        0.000003742861     0.000009961046     0.000004624618
      10        0.000001763533    -0.000010235282    -0.000005998575
      11        0.000005020159     0.000011658292     0.000002140340
      12        0.000004200033    -0.000007532505     0.000008294533
      13       -0.000001231592     0.000001130636     0.000003101729
      14       -0.000001949321     0.000000373632    -0.000000605375
      15       -0.000001231654    -0.000000888247     0.000001327326
      16       -0.000000229385     0.000000457699    -0.000000629891
      17       -0.000000983331     0.000001309255     0.000000533179
      18        0.000000718607    -0.000001535792     0.000000565250

  **** Optimization is complete! (in 6 steps) ****
    Final optimized geometry and variables:
    Molecular point group: c1

    Geometry (in Angstrom), charge = 0, multiplicity = 1:

    H           -2.993709733203     0.173211216205     1.678252256392
    O           -2.211151165658     0.525163607626     1.296170051930
    C           -2.049660300199     0.037044831872    -0.012055566013
    C           -0.699301174852     0.498175409741    -0.539455617395
    H           -2.115012652698    -1.048317766254    -0.029065201998
    H           -2.843265431587     0.422911644100    -0.646406686760
    C            0.463270888548    -0.407560442371    -0.149050288352
    H           -0.757103831624     0.616039811691    -1.617641132494
    H           -0.531515318209     1.496255285640    -0.146692887553
    C            1.820665668807     0.125904932995    -0.596542904457
    H            0.308724702968    -1.395794810832    -0.576659551861
    H            0.463110607870    -0.534964311880     0.929551191878
    C            2.979463216991    -0.788354930409    -0.213256389503
    H            1.814470062053     0.266741393530    -1.674327352721
    H            1.978882563221     1.109030300252    -0.162245872499
    H            2.868914040582    -1.770015015177    -0.662169590479
    H            3.928169869327    -0.379871364484    -0.542211502430
    H            3.031922647733    -0.922298666321     0.862063886957

  Mulliken Charges: (a.u.)
   Center  Symbol    Alpha    Beta     Spin     Total
       1     H     0.39517  0.39517  0.00000  0.20967
       2     O     4.19993  4.19993  0.00000 -0.39986
       3     C     2.97006  2.97006  0.00000  0.05988
       4     C     3.09063  3.09063  0.00000 -0.18127
       5     H     0.47527  0.47527  0.00000  0.04946
       6     H     0.46724  0.46724  0.00000  0.06552
       7     C     3.08854  3.08854  0.00000 -0.17708
       8     H     0.45227  0.45227  0.00000  0.09545
       9     H     0.45062  0.45062  0.00000  0.09877
      10     C     3.08449  3.08449  0.00000 -0.16898
      11     H     0.45835  0.45835  0.00000  0.08330
      12     H     0.44874  0.44874  0.00000  0.10252
      13     C     3.14991  3.14991  0.00000 -0.29982
      14     H     0.45615  0.45615  0.00000  0.08770
      15     H     0.45305  0.45305  0.00000  0.09390
      16     H     0.45605  0.45605  0.00000  0.08789
      17     H     0.44890  0.44890  0.00000  0.10219
      18     H     0.45462  0.45462  0.00000  0.09076

   Total alpha = 25.00000, Total beta = 25.00000, Total charge = -0.00000
