  ==> Input File <==

--------------------------------------------------------------------------
set {
	reference rhf
	basis cc-pvtz
}

set_num_threads( 4 )
memory 2 gb

molecule MOL {
0 1

H	 -1.927000	 1.392000	 0.000000
C	 -1.393000	 0.448000	 0.000000
O	 -0.095000	 0.663000	 -0.000000
O	 -1.921000	 -0.612000	 0.000000
C	 0.759000	 -0.480000	 -0.000000
C	 2.188000	 0.021000	 0.000000
H	 0.543000	 -1.077000	 -0.875000
H	 0.543000	 -1.078000	 0.875000
H	 2.384000	 0.623000	 -0.879000
H	 2.873000	 -0.821000	 -0.000000
H	 2.384000	 0.623000	 0.880000

	symmetry c1
}
ee = optimize('scf')
oeprop('DIPOLE', 'QUADRUPOLE', 'MULLIKEN_CHARGES')
f=open( 'psi4out.xyz', 'w' )
f.write( "11  " )
f.write( str(ee) + "\n" )
f.write( MOL.save_string_xyz() )
f.close()
--------------------------------------------------------------------------

    Molecular point group: c1
  Charge       = 0
  Multiplicity = 1
  Basis Set: CC-PVTZ
  Basis Set:
  @DF-RHF Final Energy:  -266.93178491780020
    Total Energy =                       -266.9317849178003144
    Molecular point group: c1
  Basis Set: CC-PVTZ
  Basis Set:
  Basis Set: CC-PVTZ
  Basis Set:
  @DF-RHF Final Energy:  -266.93189242596316
    Total Energy =                       -266.9318924259632695
  Basis Set: CC-PVTZ
  Basis Set:
  Basis Set: CC-PVTZ
  Basis Set:
  @DF-RHF Final Energy:  -266.93189411564299
    Total Energy =                       -266.9318941156430469
  Basis Set: CC-PVTZ
  Basis Set:
  Basis Set: CC-PVTZ
  Basis Set:
  @DF-RHF Final Energy:  -266.93186985412615
    Total Energy =                       -266.9318698541260346
  Basis Set: CC-PVTZ
  Basis Set:
  Charge       = 0
  Multiplicity = 1
  Basis Set: CC-PVTZ
  Basis Set:

    Orbital Energies (a.u.)
    -----------------------

    Doubly Occupied:

       1A    -20.605708     2A    -20.545759     3A    -11.370108
       4A    -11.290037     5A    -11.225160     6A     -1.479593
       7A     -1.377445     8A     -1.053890     9A     -0.903812
      10A     -0.806099    11A     -0.740614    12A     -0.693506
      13A     -0.682536    14A     -0.593493    15A     -0.578611
      16A     -0.558141    17A     -0.519304    18A     -0.516176
      19A     -0.463785    20A     -0.458244

  @DF-RHF Final Energy:  -266.93189480489593

   => Energetics <=

    Nuclear Repulsion Energy =            179.6469575812714368
    One-Electron Energy =                -720.2336654149860351
    Two-Electron Energy =                 273.6548130288188077
    DFT Exchange-Correlation Energy =       0.0000000000000000
    Empirical Dispersion Energy =           0.0000000000000000
    PCM Polarization Energy =               0.0000000000000000
    EFP Energy =                            0.0000000000000000
    Total Energy =                       -266.9318948048958191
    Molecular point group: c1
  Basis Set: CC-PVTZ
  Basis Set:

  -Total Gradient:
     Atom            X                  Y                   Z
    ------   -----------------  -----------------  -----------------
       1       -0.000002769837     0.000019162237     0.000009467978
       2        0.000064623178    -0.000093777120    -0.000028393473
       3       -0.000074082710     0.000076797570     0.000007011752
       4       -0.000023054970     0.000040583069     0.000011314312
       5        0.000050201395    -0.000089531696    -0.000002996281
       6        0.000010922668     0.000018317219     0.000002919853
       7       -0.000015206902     0.000013130664     0.000004850692
       8       -0.000014885613     0.000009397620    -0.000002679363
       9        0.000004844561    -0.000000231729     0.000002552998
      10       -0.000005606746     0.000006151904    -0.000000401203
      11        0.000005014971     0.000000000261    -0.000003647265

  **** Optimization is complete! (in 5 steps) ****
    Final optimized geometry and variables:
    Molecular point group: c1

    Geometry (in Angstrom), charge = 0, multiplicity = 1:

    H           -1.835081431804     1.385983299961     0.000069005984
    C           -1.300515850485     0.441153578022    -0.000027538852
    O           -0.006603603439     0.654344757159    -0.000106327165
    O           -1.828919651618    -0.612307830724     0.000112959475
    C            0.852092871584    -0.482520808845    -0.000160851813
    C            2.277532955350     0.016300487314     0.000164359764
    H            0.638922994316    -1.081154545193    -0.874319671887
    H            0.638638648970    -1.081486054381     0.873703971843
    H            2.475816174900     0.617389045737    -0.878100206620
    H            2.958365554255    -0.826504978797     0.000125061535
    H            2.475524990314     0.617082125322     0.878702711402

  Mulliken Charges: (a.u.)
   Center  Symbol    Alpha    Beta     Spin     Total
       1     H     0.44778  0.44778  0.00000  0.10443
       2     C     2.84644  2.84644  0.00000  0.30713
       3     O     4.14418  4.14418  0.00000 -0.28837
       4     O     4.19490  4.19490  0.00000 -0.38981
       5     C     2.97238  2.97238  0.00000  0.05523
       6     C     3.13325  3.13325  0.00000 -0.26650
       7     H     0.45309  0.45309  0.00000  0.09382
       8     H     0.45308  0.45308  0.00000  0.09383
       9     H     0.45033  0.45033  0.00000  0.09933
      10     H     0.45422  0.45422  0.00000  0.09156
      11     H     0.45033  0.45033  0.00000  0.09934

   Total alpha = 20.00000, Total beta = 20.00000, Total charge = -0.00000
