                              Psi4 1.0.54 Driver

  ==> Input File <==

--------------------------------------------------------------------------
set {
	reference rhf
	basis cc-pvtz
}

set_num_threads( 4 )
memory 2 gb

molecule MOL {
0 1

H	 1.956738	 -0.862761	 1.229432
C	 1.946031	 -0.216544	 0.341771
C	 0.692262	 0.592428	 0.156232
O	 2.876840	 -0.197235	 -0.386828
C	 -0.554654	 -0.292621	 0.086567
H	 0.800313	 1.192313	 -0.737803
H	 0.610141	 1.265277	 1.007354
C	 -1.846385	 0.513195	 -0.016346
H	 -0.473986	 -0.956115	 -0.769708
H	 -0.597929	 -0.929215	 0.966651
C	 -3.089953	 -0.365049	 -0.098564
H	 -1.798267	 1.154820	 -0.891143
H	 -1.925398	 1.173265	 0.842889
H	 -3.055079	 -1.012299	 -0.968245
H	 -3.988403	 0.236438	 -0.170014
H	 -3.183055	 -0.995885	 0.779079

	symmetry c1
}
set optking {
	frozen_dihedral = ("
		6 3 5 9
	")
}

ee,wfn = optimize('scf', return_wfn=True)
oeprop( wfn, 'DIPOLE', 'QUADRUPOLE', 'MULLIKEN_CHARGES')
f=open( 'psi4out.xyz', 'w' )
f.write( "16  " )
f.write( str(ee) + "\n" )
f.write( MOL.save_string_xyz() )
f.close()
--------------------------------------------------------------------------

    Molecular point group: c1
  Charge       = 0
  Multiplicity = 1
  Basis Set: CC-PVTZ
  Basis Set:
  @DF-RHF Final Energy:  -270.11924354635278
    Total Energy =                       -270.1192435463528909
    Molecular point group: c1
  Basis Set: CC-PVTZ
  Basis Set:
  Charge       = 0
  Multiplicity = 1
  Basis Set: CC-PVTZ
  Basis Set:

    Orbital Energies (a.u.)
    -----------------------

    Doubly Occupied:

       1A    -20.552094     2A    -11.321303     3A    -11.234690
       4A    -11.233985     5A    -11.227514     6A    -11.216713
       7A     -1.406861     8A     -1.097994     9A     -1.020205
      10A     -0.906881    11A     -0.812619    12A     -0.794003
      13A     -0.680982    14A     -0.649377    15A     -0.634102
      16A     -0.604591    17A     -0.582698    18A     -0.552573
      19A     -0.530209    20A     -0.510256    21A     -0.488666
      22A     -0.483023    23A     -0.480257    24A     -0.411557

  @DF-RHF Final Energy:  -270.11924366858852

   => Energetics <=

    Nuclear Repulsion Energy =            229.3691102900797603
    One-Electron Energy =                -820.1104079809242648
    Two-Electron Energy =                 320.6220540222559521
    DFT Exchange-Correlation Energy =       0.0000000000000000
    Empirical Dispersion Energy =           0.0000000000000000
    PCM Polarization Energy =               0.0000000000000000
    EFP Energy =                            0.0000000000000000
    Total Energy =                       -270.1192436685885241
    Molecular point group: c1
  Basis Set: CC-PVTZ
  Basis Set:

  -Total Gradient:
     Atom            X                  Y                   Z
    ------   -----------------  -----------------  -----------------
       1        0.000017926716     0.000065769044     0.000044283521
       2       -0.000120851140    -0.000151570016    -0.000169612289
       3       -0.000102574577     0.000173722508     0.000082614971
       4        0.000062306424     0.000062441688     0.000043618845
       5        0.000103852344    -0.000129646003     0.000151794626
       6        0.000114750957    -0.000108998180    -0.000068236390
       7       -0.000011245586     0.000017850530     0.000010986983
       8        0.000021671916    -0.000018576038    -0.000001565353
       9       -0.000083424522     0.000111191649    -0.000091046100
      10       -0.000003744172    -0.000019674539     0.000023218273
      11       -0.000001810857    -0.000001154600    -0.000024020647
      12       -0.000003608540     0.000012339719     0.000000302193
      13        0.000008029028    -0.000012735009     0.000005024917
      14       -0.000004546727    -0.000008127131    -0.000002894718
      15       -0.000000845232     0.000000227672    -0.000006452022
      16        0.000004113970     0.000006938706     0.000001983190

  **** Optimization is complete! (in 2 steps) ****
    Final optimized geometry and variables:
    Molecular point group: c1

    Geometry (in Angstrom), charge = 0, multiplicity = 1:

    H            1.959620327375    -0.858703658378     1.221037082134
    C            1.946077737612    -0.215173901218     0.331453759870
    C            0.692133639650     0.594103236172     0.148377780320
    O            2.874803224175    -0.197429062120    -0.399857800874
    C           -0.554981795083    -0.290981600858     0.082430957499
    H            0.798790116212     1.192221487646    -0.747008004431
    H            0.612478761577     1.267846499857     0.999018584218
    C           -1.846611808237     0.514820506559    -0.022127911244
    H           -0.475220045372    -0.955902588738    -0.772781570827
    H           -0.598005494113    -0.925459561837     0.964090555410
    C           -3.089825885699    -0.363487263491    -0.109011515483
    H           -1.796541021978     1.158038065871    -0.895677262045
    H           -1.927778314156     1.173332760540     0.838095372026
    H           -3.052398583171    -1.009732141183    -0.979345684421
    H           -3.988139812583     0.237979325966    -0.182338600417
    H           -3.185359109126    -0.995355305522     0.767634450334

  Mulliken Charges: (a.u.)
   Center  Symbol    Alpha    Beta     Spin     Total
       1     H     0.46537  0.46537  0.00000  0.06926
       2     C     2.90923  2.90923  0.00000  0.18155
       3     C     3.07663  3.07663  0.00000 -0.15325
       4     O     4.16415  4.16415  0.00000 -0.32830
       5     C     3.10227  3.10227  0.00000 -0.20453
       6     H     0.44239  0.44239  0.00000  0.11522
       7     H     0.45018  0.45018  0.00000  0.09965
       8     C     3.08466  3.08466  0.00000 -0.16931
       9     H     0.44573  0.44573  0.00000  0.10853
      10     H     0.45197  0.45197  0.00000  0.09606
      11     C     3.14906  3.14906  0.00000 -0.29812
      12     H     0.45070  0.45070  0.00000  0.09859
      13     H     0.45328  0.45328  0.00000  0.09344
      14     H     0.45321  0.45321  0.00000  0.09358
      15     H     0.44664  0.44664  0.00000  0.10673
      16     H     0.45454  0.45454  0.00000  0.09092

   Total alpha = 24.00000, Total beta = 24.00000, Total charge =  0.00000

*** Psi4 exiting successfully. Buy a developer a beer!
