  ==> Input File <==

--------------------------------------------------------------------------
set {
	reference rhf
	basis 6-31G*
}

set_num_threads( 1 )
memory 2 gb

molecule MOL {
0 1

O	 -2.723086	 0.159885	 0.153516
C	 -1.999293	 -0.489911	 0.845124
C	 -0.763536	 -1.157690	 0.267819
C	 -2.253926	 -0.654709	 2.326805
C	 0.379448	 -0.143569	 0.099626
H	 -1.031858	 -1.564455	 -0.701124
H	 -0.441201	 -1.978695	 0.901914
C	 1.631333	 -0.777471	 -0.511575
H	 0.021243	 0.669685	 -0.521414
H	 0.632161	 0.287471	 1.067143
C	 2.915987	 -0.544314	 0.291766
H	 1.766672	 -0.399098	 -1.523130
H	 1.471257	 -1.849544	 -0.605828
C	 3.373361	 0.914346	 0.347591
H	 3.708709	 -1.142521	 -0.150311
H	 2.780642	 -0.921148	 1.303579
H	 3.506512	 1.320010	 -0.651625
H	 4.322697	 0.999599	 0.867103
H	 2.660624	 1.545032	 0.868198
H	 -2.489605	 -1.693317	 2.543632
H	 -3.079976	 -0.027833	 2.632506
H	 -1.366626	 -0.401522	 2.899867

	symmetry c1
}
set optking {
	frozen_dihedral = ("
		6 3 2 1,
		6 3 5 8,
		12 8 11 15
	")
}

ee = energy('scf')
oeprop('DIPOLE', 'QUADRUPOLE', 'MULLIKEN_CHARGES')
f=open( 'psi4out.xyz', 'w' )
f.write( "22  " )
f.write( str(ee) + "\n" )
f.write( MOL.save_string_xyz() )
f.close()
--------------------------------------------------------------------------

    Molecular point group: c1

    Geometry (in Angstrom), charge = 0, multiplicity = 1:

       Center              X                  Y                   Z               Mass
    ------------   -----------------  -----------------  -----------------  -----------------
           O         -2.796735358173     0.483090174736    -0.332545074004    15.994914619560
           C         -2.072942358173    -0.166705825264     0.359062925996    12.000000000000
           C         -0.837185358173    -0.834484825264    -0.218242074004    12.000000000000
           C         -2.327575358173    -0.331503825264     1.840743925996    12.000000000000
           C          0.305798641827     0.179636174736    -0.386435074004    12.000000000000
           H         -1.105507358173    -1.241249825264    -1.187185074004     1.007825032070
           H         -0.514850358173    -1.655489825264     0.415852925996     1.007825032070
           C          1.557683641827    -0.454265825264    -0.997636074004    12.000000000000
           H         -0.052406358173     0.992890174736    -1.007475074004     1.007825032070
           H          0.558511641827     0.610676174736     0.581081925996     1.007825032070
           C          2.842337641827    -0.221108825264    -0.194295074004    12.000000000000
           H          1.693022641827    -0.075892825264    -2.009191074004     1.007825032070
           H          1.397607641827    -1.526338825264    -1.091889074004     1.007825032070
           C          3.299711641827     1.237551174736    -0.138470074004    12.000000000000
           H          3.635059641827    -0.819315825264    -0.636372074004     1.007825032070
           H          2.706992641827    -0.597942825264     0.817517925996     1.007825032070
           H          3.432862641827     1.643215174736    -1.137686074004     1.007825032070
           H          4.249047641827     1.322804174736     0.381041925996     1.007825032070
           H          2.586974641827     1.868237174736     0.382136925996     1.007825032070
           H         -2.563254358173    -1.370111825264     2.057570925996     1.007825032070
           H         -3.153625358173     0.295372174736     2.146444925996     1.007825032070
           H         -1.440275358173    -0.078316825264     2.413805925996     1.007825032070

  Charge       = 0
  Multiplicity = 1
  Basis Set: 6-31G*
  Basis Set:

    Orbital Energies (a.u.)
    -----------------------

    Doubly Occupied:

       1A    -20.547139     2A    -11.323977     3A    -11.229569
       4A    -11.228097     5A    -11.228029     6A    -11.222126
       7A    -11.220817     8A    -11.213167     9A     -1.392853
      10A     -1.096346    11A     -1.044368    12A     -0.999681
      13A     -0.938002    14A     -0.859472    15A     -0.785490
      16A     -0.734636    17A     -0.662746    18A     -0.645015
      19A     -0.626457    20A     -0.615368    21A     -0.597390
      22A     -0.588186    23A     -0.559717    24A     -0.543529
      25A     -0.532596    26A     -0.525220    27A     -0.498610
      28A     -0.488471    29A     -0.467653    30A     -0.464227
      31A     -0.458892    32A     -0.395799

  @DF-RHF Final Energy:  -348.09309013294160

   => Energetics <=

    Nuclear Repulsion Energy =            373.8766881213568922
    One-Electron Energy =               -1212.4723547582473202
    Two-Electron Energy =                 490.5025765039484895
    DFT Exchange-Correlation Energy =       0.0000000000000000
    Empirical Dispersion Energy =           0.0000000000000000
    PCM Polarization Energy =               0.0000000000000000
    EFP Energy =                            0.0000000000000000
    Total Energy =                       -348.0930901329419385

  Mulliken Charges: (a.u.)
   Center  Symbol    Alpha    Beta     Spin     Total
       1     O     4.26253  4.26253  0.00000 -0.52505
       2     C     2.73731  2.73731  0.00000  0.52539
       3     C     3.20306  3.20306  0.00000 -0.40613
       4     C     3.28964  3.28964  0.00000 -0.57929
       5     C     3.16444  3.16444  0.00000 -0.32889
       6     H     0.40060  0.40060  0.00000  0.19879
       7     H     0.41668  0.41668  0.00000  0.16663
       8     C     3.15547  3.15547  0.00000 -0.31094
       9     H     0.40285  0.40285  0.00000  0.19430
      10     H     0.41893  0.41893  0.00000  0.16214
      11     C     3.15516  3.15516  0.00000 -0.31031
      12     H     0.41728  0.41728  0.00000  0.16544
      13     H     0.41856  0.41856  0.00000  0.16287
      14     C     3.24125  3.24125  0.00000 -0.48250
      15     H     0.41985  0.41985  0.00000  0.16030
      16     H     0.42429  0.42429  0.00000  0.15141
      17     H     0.42035  0.42035  0.00000  0.15929
      18     H     0.41812  0.41812  0.00000  0.16376
      19     H     0.41973  0.41973  0.00000  0.16055
      20     H     0.40703  0.40703  0.00000  0.18594
      21     H     0.39707  0.39707  0.00000  0.20587
      22     H     0.40979  0.40979  0.00000  0.18042

   Total alpha = 32.00000, Total beta = 32.00000, Total charge = -0.00000
