                              Psi4 1.0.54 Driver

  ==> Input File <==

--------------------------------------------------------------------------
set {
	reference rhf
	basis cc-pvtz
}

set_num_threads( 4 )
memory 2 gb

molecule MOL {
0 1

O	 0.749630	 1.305591	 -0.000460
C	 0.576499	 0.134701	 -0.003900
C	 -0.765656	 -0.550508	 -0.002152
O	 1.564816	 -0.744612	 -0.000631
C	 -1.945526	 0.411052	 0.000603
H	 -0.794329	 -1.203792	 -0.868145
H	 -0.791555	 -1.205429	 0.862701
C	 -3.282915	 -0.321280	 0.002596
H	 -1.880300	 1.059126	 -0.864925
H	 -1.877207	 1.057892	 0.866807
H	 -3.388495	 -0.952755	 -0.873419
H	 -4.107811	 0.380864	 0.004116
H	 -3.385717	 -0.953283	 0.878571
C	 1.626621	 -1.647408	 1.085256
H	 1.740032	 -1.114689	 2.017674
H	 2.487644	 -2.270188	 0.905051
H	 0.732414	 -2.251058	 1.130424

	symmetry c1
}
set optking {
	frozen_dihedral = ("
		14 4 2 1
	")
}

ee,wfn = optimize('scf', return_wfn=True)
oeprop( wfn, 'DIPOLE', 'QUADRUPOLE', 'MULLIKEN_CHARGES')
f=open( 'psi4out.xyz', 'w' )
f.write( "17  " )
f.write( str(ee) + "\n" )
f.write( MOL.save_string_xyz() )
f.close()
--------------------------------------------------------------------------

    Molecular point group: c1
  Charge       = 0
  Multiplicity = 1
  Basis Set: CC-PVTZ
  Basis Set:
  @DF-RHF Final Energy:  -345.01101956062485
    Total Energy =                       -345.0110195606250159
    Molecular point group: c1
  Basis Set: CC-PVTZ
  Basis Set:
  Basis Set: CC-PVTZ
  Basis Set:
  @DF-RHF Final Energy:  -345.01056307934056
    Total Energy =                       -345.0105630793401019
  Basis Set: CC-PVTZ
  Basis Set:
  Basis Set: CC-PVTZ
  Basis Set:
  @DF-RHF Final Energy:  -345.01490030857161
    Total Energy =                       -345.0149003085717823
  Basis Set: CC-PVTZ
  Basis Set:
  Basis Set: CC-PVTZ
  Basis Set:
  @DF-RHF Final Energy:  -345.00697891770517
    Total Energy =                       -345.0069789177052257
  Basis Set: CC-PVTZ
  Basis Set:
  @DF-RHF Final Energy:  -345.01536981021593
    Total Energy =                       -345.0153698102159296
  Basis Set: CC-PVTZ
  Basis Set:
  @DF-RHF Final Energy:  -345.01579144429013
    Total Energy =                       -345.0157914442902438
  Basis Set: CC-PVTZ
  Basis Set:
  Basis Set: CC-PVTZ
  Basis Set:
  @DF-RHF Final Energy:  -345.01580924335275
    Total Energy =                       -345.0158092433527486
  Basis Set: CC-PVTZ
  Basis Set:
  Basis Set: CC-PVTZ
  Basis Set:
  @DF-RHF Final Energy:  -345.01581195787497
    Total Energy =                       -345.0158119578749734
  Basis Set: CC-PVTZ
  Basis Set:
  Charge       = 0
  Multiplicity = 1
  Basis Set: CC-PVTZ
  Basis Set:

    Orbital Energies (a.u.)
    -----------------------

    Doubly Occupied:

       1A    -20.582096     2A    -20.541795     3A    -11.367693
       4A    -11.291825     5A    -11.240924     6A    -11.224140
       7A    -11.216340     8A     -1.462210     9A     -1.370472
      10A     -1.083043    11A     -0.989158    12A     -0.961580
      13A     -0.837618    14A     -0.766807    15A     -0.702685
      16A     -0.682769    17A     -0.677517    18A     -0.640226
      19A     -0.615979    20A     -0.581249    21A     -0.567268
      22A     -0.546675    23A     -0.520254    24A     -0.496755
      25A     -0.491828    26A     -0.483562    27A     -0.457456
      28A     -0.437653

  @DF-RHF Final Energy:  -345.01581257510776

   => Energetics <=

    Nuclear Repulsion Energy =            313.5976664808554801
    One-Electron Energy =               -1091.5518017052493178
    Two-Electron Energy =                 432.9383226492859649
    DFT Exchange-Correlation Energy =       0.0000000000000000
    Empirical Dispersion Energy =           0.0000000000000000
    PCM Polarization Energy =               0.0000000000000000
    EFP Energy =                            0.0000000000000000
    Total Energy =                       -345.0158125751079297
    Molecular point group: c1
  Basis Set: CC-PVTZ
  Basis Set:

  -Total Gradient:
     Atom            X                  Y                   Z
    ------   -----------------  -----------------  -----------------
       1       -0.000908363066    -0.000233937468     0.002621514319
       2        0.001371456043     0.001318049419    -0.002848323354
       3        0.000023226300     0.000064316030    -0.000062867763
       4       -0.001082488013    -0.002759661547    -0.001335074791
       5        0.000029942699    -0.000066389737     0.000021099847
       6        0.000025885097    -0.000011239864    -0.000008083441
       7       -0.000000805287    -0.000021980680    -0.000017234745
       8       -0.000008726795     0.000038744581     0.000007379581
       9       -0.000002976925     0.000008747631    -0.000004534632
      10       -0.000017683899     0.000024104357     0.000011811769
      11        0.000006479602    -0.000014720040    -0.000014603495
      12       -0.000014354306    -0.000003453789    -0.000013660066
      13        0.000000083665    -0.000001585901     0.000005801528
      14        0.000570976161     0.001606403558     0.001620522440
      15        0.000012620230    -0.000003166159    -0.000051365438
      16       -0.000056056775    -0.000013171074     0.000006651545
      17        0.000050785269     0.000068940678     0.000060966697

  **** Optimization is complete! (in 9 steps) ****
    Final optimized geometry and variables:
    Molecular point group: c1

    Geometry (in Angstrom), charge = 0, multiplicity = 1:

    O            0.631110714157     1.597189444161     0.301915788895
    C            0.660346327603     0.427019874952     0.188442578468
    C           -0.486122560459    -0.404441952701    -0.338325410235
    O            1.777574833750    -0.257807682714     0.496094412869
    C           -1.645771679599     0.423351039286    -0.876021261062
    H           -0.085836826170    -1.063191932053    -1.102578031431
    H           -0.829400614701    -1.051716239348     0.463388597688
    C           -2.781467416277    -0.449222843003    -1.399126593247
    H           -1.284252416834     1.071456229411    -1.665201485383
    H           -2.010146080069     1.076626412599    -0.093144855516
    H           -2.446402640344    -1.092740083073    -2.206003961710
    H           -3.592445099222     0.160094501109    -1.779153796247
    H           -3.184915462708    -1.084039094864    -0.616802271657
    C            1.731612569102    -1.239309999489     1.503900191360
    H            1.300692141659    -0.838515299648     2.413543525919
    H            2.752539621175    -1.525676752133     1.696733631913
    H            1.174490493415    -2.113786729315     1.191960638606

  Mulliken Charges: (a.u.)
   Center  Symbol    Alpha    Beta     Spin     Total
       1     O     4.16778  4.16778  0.00000 -0.33556
       2     C     2.79572  2.79572  0.00000  0.40856
       3     C     3.12215  3.12215  0.00000 -0.24431
       4     O     4.15395  4.15395  0.00000 -0.30789
       5     C     3.08056  3.08056  0.00000 -0.16113
       6     H     0.43688  0.43688  0.00000  0.12623
       7     H     0.44623  0.44623  0.00000  0.10754
       8     C     3.15000  3.15000  0.00000 -0.29999
       9     H     0.44503  0.44503  0.00000  0.10995
      10     H     0.44441  0.44441  0.00000  0.11117
      11     H     0.45558  0.45558  0.00000  0.08883
      12     H     0.44457  0.44457  0.00000  0.11087
      13     H     0.45670  0.45670  0.00000  0.08659
      14     C     3.04449  3.04449  0.00000 -0.08898
      15     H     0.45779  0.45779  0.00000  0.08442
      16     H     0.43681  0.43681  0.00000  0.12638
      17     H     0.46134  0.46134  0.00000  0.07731

   Total alpha = 28.00000, Total beta = 28.00000, Total charge = -0.00000

*** Psi4 exiting successfully. Buy a developer a beer!
