                              Psi4 1.0.54 Driver

  ==> Input File <==

--------------------------------------------------------------------------
set {
	reference rhf
	basis cc-pvtz
}

set_num_threads( 4 )
memory 2 gb

molecule MOL {
0 1

H	 -2.734220	 -1.165326	 1.979659
O	 -2.233160	 -1.297758	 1.189015
C	 -1.163626	 -0.508292	 1.231131
C	 -0.310616	 -0.658853	 0.000791
O	 -0.949364	 0.212414	 2.143625
C	 0.926581	 0.227233	 0.000178
H	 -0.945144	 -0.451468	 -0.854834
H	 -0.044739	 -1.708150	 -0.076691
C	 2.220156	 -0.582071	 -0.000088
H	 0.899945	 0.878221	 -0.866390
H	 0.900542	 0.878581	 0.866486
C	 3.466689	 0.296012	 -0.000457
H	 2.239073	 -1.234095	 -0.869382
H	 2.239505	 -1.233985	 0.869270
H	 3.493549	 0.935857	 -0.875887
H	 4.368821	 -0.304526	 -0.001199
H	 3.494559	 0.935166	 0.875458

	symmetry c1
}
set optking {
	frozen_dihedral = ("
		7 4 6 10
	")
}

ee,wfn = optimize('scf', return_wfn=True)
oeprop( wfn, 'DIPOLE', 'QUADRUPOLE', 'MULLIKEN_CHARGES')
f=open( 'psi4out.xyz', 'w' )
f.write( "17  " )
f.write( str(ee) + "\n" )
f.write( MOL.save_string_xyz() )
f.close()
--------------------------------------------------------------------------

    Molecular point group: c1
  Charge       = 0
  Multiplicity = 1
  Basis Set: CC-PVTZ
  Basis Set:
  @DF-RHF Final Energy:  -345.04416828991486
    Total Energy =                       -345.0441682899146372
    Molecular point group: c1
  Basis Set: CC-PVTZ
  Basis Set:
  Basis Set: CC-PVTZ
  Basis Set:
  @DF-RHF Final Energy:  -345.04438409038647
    Total Energy =                       -345.0443840903866999
  Basis Set: CC-PVTZ
  Basis Set:
  Basis Set: CC-PVTZ
  Basis Set:
  @DF-RHF Final Energy:  -345.04325418727433
    Total Energy =                       -345.0432541872743855
  Basis Set: CC-PVTZ
  Basis Set:
  Basis Set: CC-PVTZ
  Basis Set:
  @DF-RHF Final Energy:  -345.04452390961228
    Total Energy =                       -345.0445239096122805
  Basis Set: CC-PVTZ
  Basis Set:
  Basis Set: CC-PVTZ
  Basis Set:
  @DF-RHF Final Energy:  -345.04454050010372
    Total Energy =                       -345.0445405001037216
  Basis Set: CC-PVTZ
  Basis Set:
  Basis Set: CC-PVTZ
  Basis Set:
  @DF-RHF Final Energy:  -345.04454241545795
    Total Energy =                       -345.0445424154577836
  Basis Set: CC-PVTZ
  Basis Set:
  Charge       = 0
  Multiplicity = 1
  Basis Set: CC-PVTZ
  Basis Set:

    Orbital Energies (a.u.)
    -----------------------

    Doubly Occupied:

       1A    -20.604500     2A    -20.541636     3A    -11.374719
       4A    -11.239305     5A    -11.219700     6A    -11.219084
       7A    -11.209131     8A     -1.478541     9A     -1.369919
      10A     -1.089877    11A     -1.018603    12A     -0.914809
      13A     -0.826065    14A     -0.789403    15A     -0.705556
      16A     -0.695787    17A     -0.659894    18A     -0.630191
      19A     -0.589940    20A     -0.584778    21A     -0.582270
      22A     -0.527000    23A     -0.519320    24A     -0.486039
      25A     -0.481974    26A     -0.472176    27A     -0.466923
      28A     -0.449358

  @DF-RHF Final Energy:  -345.04454317463438

   => Energetics <=

    Nuclear Repulsion Energy =            306.4586809043358357
    One-Electron Energy =               -1077.5134571320354553
    Two-Electron Energy =                 426.0102330530651216
    DFT Exchange-Correlation Energy =       0.0000000000000000
    Empirical Dispersion Energy =           0.0000000000000000
    PCM Polarization Energy =               0.0000000000000000
    EFP Energy =                            0.0000000000000000
    Total Energy =                       -345.0445431746345548
    Molecular point group: c1
  Basis Set: CC-PVTZ
  Basis Set:

  -Total Gradient:
     Atom            X                  Y                   Z
    ------   -----------------  -----------------  -----------------
       1       -0.000002076553    -0.000008050276    -0.000024402413
       2        0.000012589120     0.000010511379     0.000058613071
       3        0.000037989051     0.000019429914     0.000088326185
       4       -0.000701483606     0.001078259754     0.000817532236
       5       -0.000056735113    -0.000024119579    -0.000100513211
       6        0.000732641485    -0.001077480350    -0.000825204343
       7        0.000505237772    -0.000693770356    -0.000558430568
       8       -0.000015999211    -0.000003863410    -0.000024682276
       9       -0.000022546444    -0.000006761074    -0.000009656587
      10       -0.000488625750     0.000716421078     0.000552729281
      11       -0.000012983683    -0.000010105245     0.000016000688
      12        0.000003566518     0.000000695465    -0.000006156756
      13       -0.000005566290    -0.000014067353     0.000012746632
      14        0.000010758221     0.000012690917     0.000004343190
      15       -0.000004341305    -0.000000893147     0.000003582455
      16        0.000005001115     0.000003944127    -0.000004973628
      17        0.000002574674    -0.000002841845     0.000000146045

  **** Optimization is complete! (in 7 steps) ****
    Final optimized geometry and variables:
    Molecular point group: c1

    Geometry (in Angstrom), charge = 0, multiplicity = 1:

    H           -3.001826110322    -0.827193846882     1.278238756494
    O           -2.500589591854    -0.938084636469     0.484481334982
    C           -1.415775442771    -0.172504905811     0.561698887920
    C           -0.561330070138    -0.307204872501    -0.672126123883
    O           -1.193313915065     0.505336816806     1.504485403914
    C            0.698168877992     0.568408268206    -0.684761521347
    H           -1.203467870331    -0.108292303534    -1.521700915507
    H           -0.312126507784    -1.360440786519    -0.749515248681
    C            1.995017933393    -0.237409315115    -0.678456094316
    H            0.677804268714     1.212158670745    -1.557279831624
    H            0.680041527784     1.222467528226     0.176342611766
    C            3.238550321393     0.643708505959    -0.690891918688
    H            2.014085130296    -0.901700196636    -1.538500927215
    H            2.012793520505    -0.874586364199     0.201532847407
    H            3.263646925594     1.272266093894    -1.574923053616
    H            4.142458368393     0.045828617633    -0.684691555732
    H            3.264398796785     1.293661939287     0.176920316516

  Mulliken Charges: (a.u.)
   Center  Symbol    Alpha    Beta     Spin     Total
       1     H     0.38264  0.38264  0.00000  0.23471
       2     O     4.15960  4.15960  0.00000 -0.31920
       3     C     2.79964  2.79964  0.00000  0.40072
       4     C     3.12036  3.12036  0.00000 -0.24072
       5     O     4.19103  4.19103  0.00000 -0.38206
       6     C     3.09551  3.09551  0.00000 -0.19102
       7     H     0.43016  0.43016  0.00000  0.13968
       8     H     0.43711  0.43711  0.00000  0.12578
       9     C     3.08581  3.08581  0.00000 -0.17162
      10     H     0.44919  0.44919  0.00000  0.10163
      11     H     0.43634  0.43634  0.00000  0.12732
      12     C     3.15043  3.15043  0.00000 -0.30086
      13     H     0.45454  0.45454  0.00000  0.09091
      14     H     0.45205  0.45205  0.00000  0.09589
      15     H     0.45547  0.45547  0.00000  0.08905
      16     H     0.44814  0.44814  0.00000  0.10372
      17     H     0.45196  0.45196  0.00000  0.09608

   Total alpha = 28.00000, Total beta = 28.00000, Total charge =  0.00000

*** Psi4 exiting successfully. Buy a developer a beer!
