  ==> Input File <==

--------------------------------------------------------------------------
set {
	reference rhf
	basis 6-31G*
}

set_num_threads( 1 )
memory 2 gb

molecule MOL {
0 1

H	 2.591676	 2.013956	 0.335017
O	 3.341076	 1.666752	 -0.126416
C	 3.569581	 0.339145	 0.272707
C	 2.539767	 -0.640285	 -0.279495
H	 4.553106	 0.084646	 -0.100901
H	 3.608576	 0.269204	 1.359154
C	 1.115811	 -0.397273	 0.226630
H	 2.556196	 -0.582511	 -1.364741
H	 2.852081	 -1.648031	 -0.010655
C	 0.559892	 -1.583022	 1.020212
H	 0.466484	 -0.190619	 -0.619558
H	 1.102394	 0.492059	 0.856908
C	 -0.831727	 -1.358688	 1.623046
H	 0.537127	 -2.463091	 0.380049
H	 1.251637	 -1.813891	 1.827608
C	 -1.961419	 -1.212753	 0.599826
H	 -1.061115	 -2.198885	 2.275172
H	 -0.808498	 -0.477822	 2.262868
C	 -3.342274	 -1.096879	 1.248863
H	 -1.951582	 -2.070935	 -0.070650
H	 -1.791676	 -0.337676	 -0.022854
C	 -4.471093	 -0.944654	 0.229912
H	 -3.526525	 -1.976187	 1.862343
H	 -3.351020	 -0.245665	 1.926537
H	 -4.509549	 -1.796819	 -0.442814
H	 -5.436496	 -0.867025	 0.720428
H	 -4.335557	 -0.052890	 -0.375687

	symmetry c1
}
set optking {
	frozen_dihedral = ("
		14 10 7 4,
		14 10 13 16,
		8 4 3 2,
		10 13 16 20,
		20 16 19 22,
		4 3 2 1
	")
}

ee = energy('scf')
oeprop('DIPOLE', 'QUADRUPOLE', 'MULLIKEN_CHARGES')
f=open( 'psi4out.xyz', 'w' )
f.write( "27  " )
f.write( str(ee) + "\n" )
f.write( MOL.save_string_xyz() )
f.close()
--------------------------------------------------------------------------

    Molecular point group: c1

    Geometry (in Angstrom), charge = 0, multiplicity = 1:

       Center              X                  Y                   Z               Mass
    ------------   -----------------  -----------------  -----------------  -----------------
           H          2.497365359048     2.552193939284    -0.188752305229     1.007825032070
           O          3.246765359048     2.204989939284    -0.650185305229    15.994914619560
           C          3.475270359048     0.877382939284    -0.251062305229    12.000000000000
           C          2.445456359048    -0.102047060716    -0.803264305229    12.000000000000
           H          4.458795359048     0.622883939284    -0.624670305229     1.007825032070
           H          3.514265359048     0.807441939284     0.835384694771     1.007825032070
           C          1.021500359048     0.140964939284    -0.297139305229    12.000000000000
           H          2.461885359048    -0.044273060716    -1.888510305229     1.007825032070
           H          2.757770359048    -1.109793060716    -0.534424305229     1.007825032070
           C          0.465581359048    -1.044784060716     0.496442694771    12.000000000000
           H          0.372173359048     0.347618939284    -1.143327305229     1.007825032070
           H          1.008083359048     1.030296939284     0.333138694771     1.007825032070
           C         -0.926037640952    -0.820450060716     1.099276694771    12.000000000000
           H          0.442816359048    -1.924853060716    -0.143720305229     1.007825032070
           H          1.157326359048    -1.275653060716     1.303838694771     1.007825032070
           C         -2.055729640952    -0.674515060716     0.076056694771    12.000000000000
           H         -1.155425640952    -1.660647060716     1.751402694771     1.007825032070
           H         -0.902808640952     0.060415939284     1.739098694771     1.007825032070
           C         -3.436584640952    -0.558641060716     0.725093694771    12.000000000000
           H         -2.045892640952    -1.532697060716    -0.594419305229     1.007825032070
           H         -1.885986640952     0.200561939284    -0.546623305229     1.007825032070
           C         -4.565403640952    -0.406416060716    -0.293857305229    12.000000000000
           H         -3.620835640952    -1.437949060716     1.338573694771     1.007825032070
           H         -3.445330640952     0.292572939284     1.402767694771     1.007825032070
           H         -4.603859640952    -1.258581060716    -0.966583305229     1.007825032070
           H         -5.530806640952    -0.328787060716     0.196658694771     1.007825032070
           H         -4.429867640952     0.485347939284    -0.899456305229     1.007825032070

  Charge       = 0
  Multiplicity = 1
  Basis Set: 6-31G*
  Basis Set:

    Orbital Energies (a.u.)
    -----------------------

    Doubly Occupied:

       1A    -20.551867     2A    -11.267133     3A    -11.219640
       4A    -11.218593     5A    -11.216367     6A    -11.216144
       7A    -11.214575     8A    -11.213778     9A    -11.209512
      10A     -1.358817    11A     -1.096064    12A     -1.061987
      13A     -1.011282    14A     -0.948002    15A     -0.889532
      16A     -0.821964    17A     -0.800559    18A     -0.778273
      19A     -0.698215    20A     -0.647484    21A     -0.631737
      22A     -0.617969    23A     -0.605713    24A     -0.585566
      25A     -0.575402    26A     -0.555675    27A     -0.542887
      28A     -0.525381    29A     -0.510140    30A     -0.496458
      31A     -0.486024    32A     -0.475208    33A     -0.469418
      34A     -0.461679    35A     -0.446685    36A     -0.439443
      37A     -0.424984

  @DF-RHF Final Energy:  -388.27605495401440

   => Energetics <=

    Nuclear Repulsion Energy =            459.3920404070837549
    One-Electron Energy =               -1436.7558415721300662
    Two-Electron Energy =                 589.0877462110337319
    DFT Exchange-Correlation Energy =       0.0000000000000000
    Empirical Dispersion Energy =           0.0000000000000000
    PCM Polarization Energy =               0.0000000000000000
    EFP Energy =                            0.0000000000000000
    Total Energy =                       -388.2760549540125794

  Mulliken Charges: (a.u.)
   Center  Symbol    Alpha    Beta     Spin     Total
       1     H     0.27948  0.27948  0.00000  0.44104
       2     O     4.37138  4.37138  0.00000 -0.74276
       3     C     2.99998  2.99998  0.00000  0.00003
       4     C     3.16345  3.16345  0.00000 -0.32691
       5     H     0.41500  0.41500  0.00000  0.16999
       6     H     0.43225  0.43225  0.00000  0.13550
       7     C     3.15882  3.15882  0.00000 -0.31763
       8     H     0.41281  0.41281  0.00000  0.17438
       9     H     0.42097  0.42097  0.00000  0.15805
      10     C     3.15613  3.15613  0.00000 -0.31226
      11     H     0.41357  0.41357  0.00000  0.17287
      12     H     0.43399  0.43399  0.00000  0.13202
      13     C     3.15383  3.15383  0.00000 -0.30766
      14     H     0.42141  0.42141  0.00000  0.15718
      15     H     0.42224  0.42224  0.00000  0.15552
      16     C     3.15279  3.15279  0.00000 -0.30559
      17     H     0.42138  0.42138  0.00000  0.15724
      18     H     0.42468  0.42468  0.00000  0.15064
      19     C     3.15114  3.15114  0.00000 -0.30227
      20     H     0.42414  0.42414  0.00000  0.15172
      21     H     0.42231  0.42231  0.00000  0.15539
      22     C     3.23925  3.23925  0.00000 -0.47849
      23     H     0.42300  0.42300  0.00000  0.15399
      24     H     0.42329  0.42329  0.00000  0.15343
      25     H     0.42166  0.42166  0.00000  0.15669
      26     H     0.41921  0.41921  0.00000  0.16157
      27     H     0.42184  0.42184  0.00000  0.15631

   Total alpha = 37.00000, Total beta = 37.00000, Total charge =  0.00000
