  ==> Input File <==

--------------------------------------------------------------------------
set {
	reference rhf
	basis 6-31G*
}

set_num_threads( 4 )
memory 2 gb

molecule MOL {
0 1

H	 1.655428	 -0.506830	 1.818528
C	 1.850977	 -0.120644	 0.810847
C	 0.692068	 0.589600	 0.160137
O	 2.916902	 -0.275459	 0.308885
C	 -0.558097	 -0.297372	 0.091132
H	 1.002368	 0.912900	 -0.826611
H	 0.472127	 1.477391	 0.751984
C	 -1.850991	 0.512573	 -0.019058
H	 -0.476753	 -0.965681	 -0.762987
H	 -0.604799	 -0.930658	 0.975228
C	 -3.096943	 -0.368295	 -0.099594
H	 -1.800724	 1.150330	 -0.898172
H	 -1.931651	 1.177355	 0.838044
H	 -3.060452	 -1.020287	 -0.967456
H	 -3.996858	 0.233488	 -0.175704
H	 -3.191959	 -0.995686	 0.782074

	symmetry c1
}
set optking {
	frozen_dihedral = ("
		6 3 5 9
	")
}

ee = optimize('scf')
oeprop('DIPOLE', 'QUADRUPOLE', 'MULLIKEN_CHARGES')
f=open( 'psi4out.xyz', 'w' )
f.write( "16  " )
f.write( str(ee) + "\n" )
f.write( MOL.save_string_xyz() )
f.close()
--------------------------------------------------------------------------

    Molecular point group: c1
  Charge       = 0
  Multiplicity = 1
  Basis Set: 6-31G*
  Basis Set:
  @DF-RHF Final Energy:  -270.01851833279079
    Total Energy =                       -270.0185183327906202
    Molecular point group: c1
  Basis Set: 6-31G*
  Basis Set:
  Basis Set: 6-31G*
  Basis Set:
  @DF-RHF Final Energy:  -270.01860014659928
    Total Energy =                       -270.0186001465991694
  Basis Set: 6-31G*
  Basis Set:
  Basis Set: 6-31G*
  Basis Set:
  @DF-RHF Final Energy:  -270.01826510924548
    Total Energy =                       -270.0182651092454762
  Basis Set: 6-31G*
  Basis Set:
  Basis Set: 6-31G*
  Basis Set:
  @DF-RHF Final Energy:  -270.01865730715906
    Total Energy =                       -270.0186573071588896
  Basis Set: 6-31G*
  Basis Set:
  Basis Set: 6-31G*
  Basis Set:
  @DF-RHF Final Energy:  -270.01865664072693
    Total Energy =                       -270.0186566407268174
  Basis Set: 6-31G*
  Basis Set:
  Basis Set: 6-31G*
  Basis Set:
  @DF-RHF Final Energy:  -270.01866570893526
    Total Energy =                       -270.0186657089352025
  Basis Set: 6-31G*
  Basis Set:
  Charge       = 0
  Multiplicity = 1
  Basis Set: 6-31G*
  Basis Set:

    Orbital Energies (a.u.)
    -----------------------

    Doubly Occupied:

       1A    -20.562540     2A    -11.326512     3A    -11.236617
       4A    -11.235315     5A    -11.229386     6A    -11.218511
       7A     -1.402492     8A     -1.096074     9A     -1.018663
      10A     -0.906121    11A     -0.812600    12A     -0.793600
      13A     -0.676029    14A     -0.650252    15A     -0.626941
      16A     -0.603438    17A     -0.581092    18A     -0.552769
      19A     -0.530139    20A     -0.507257    21A     -0.486509
      22A     -0.481157    23A     -0.479784    24A     -0.408840

  @DF-RHF Final Energy:  -270.01866580577769

   => Energetics <=

    Nuclear Repulsion Energy =            228.7574392383198472
    One-Electron Energy =                -818.7069326656351222
    Two-Electron Energy =                 319.9308276215377873
    DFT Exchange-Correlation Energy =       0.0000000000000000
    Empirical Dispersion Energy =           0.0000000000000000
    PCM Polarization Energy =               0.0000000000000000
    EFP Energy =                            0.0000000000000000
    Total Energy =                       -270.0186658057774594
    Molecular point group: c1
  Basis Set: 6-31G*
  Basis Set:

  -Total Gradient:
     Atom            X                  Y                   Z
    ------   -----------------  -----------------  -----------------
       1        0.000000101602    -0.000004793208    -0.000000486623
       2        0.000014868166    -0.000001056424     0.000003766496
       3       -0.002787717454     0.003855093120    -0.000112043261
       4        0.000002194027     0.000011250482     0.000004669735
       5        0.002335045312    -0.003373608841     0.002251415430
       6        0.001924119156    -0.002690611800    -0.000259107316
       7        0.000009787524     0.000006689120    -0.000000523841
       8       -0.000001031263    -0.000001433928     0.000013349035
       9       -0.001490902640     0.002191916891    -0.001890807780
      10       -0.000003659311     0.000004584358    -0.000005382425
      11       -0.000001913008     0.000001312587    -0.000009066143
      12       -0.000004409826    -0.000002172391     0.000001063991
      13        0.000003829052     0.000003444389     0.000001960731
      14        0.000000551600    -0.000004357360     0.000002232310
      15       -0.000000962715    -0.000000317891    -0.000002741883
      16        0.000000099769     0.000004060896     0.000001701544

  **** Optimization is complete! (in 7 steps) ****
    Final optimized geometry and variables:
    Molecular point group: c1

    Geometry (in Angstrom), charge = 0, multiplicity = 1:

    H            1.708119860144    -0.502504718589     1.603676181088
    C            1.876044172014    -0.119840075515     0.589603092706
    C            0.701087778817     0.597934238980    -0.026942074609
    O            2.924461195987    -0.284401698398     0.055421826542
    C           -0.551696514417    -0.292173095945    -0.071583893561
    H            1.000721064398     0.908074921359    -1.020598543735
    H            0.505850685915     1.484409579080     0.574197714495
    C           -1.845268250184     0.514933030870    -0.210639969052
    H           -0.472698261252    -0.968227406429    -0.918462412100
    H           -0.609184341719    -0.906318357831     0.824956506620
    C           -3.086672384882    -0.368888515596    -0.318965249405
    H           -1.776725731846     1.153014258430    -1.088704065219
    H           -1.946646697604     1.179944363859     0.644107829734
    H           -3.030971967346    -1.019115501628    -1.187133943640
    H           -3.986616436162     0.230488845218    -0.411974034373
    H           -3.197910115420    -0.998761967872     0.559097575112

  Mulliken Charges: (a.u.)
   Center  Symbol    Alpha    Beta     Spin     Total
       1     H     0.43235  0.43235  0.00000  0.13530
       2     C     2.83107  2.83107  0.00000  0.33787
       3     C     3.20792  3.20792  0.00000 -0.41584
       4     O     4.23685  4.23685  0.00000 -0.47369
       5     C     3.16457  3.16457  0.00000 -0.32914
       6     H     0.39834  0.39834  0.00000  0.20333
       7     H     0.40924  0.40924  0.00000  0.18153
       8     C     3.15254  3.15254  0.00000 -0.30509
       9     H     0.41140  0.41140  0.00000  0.17719
      10     H     0.41866  0.41866  0.00000  0.16269
      11     C     3.24067  3.24067  0.00000 -0.48134
      12     H     0.41879  0.41879  0.00000  0.16241
      13     H     0.42129  0.42129  0.00000  0.15742
      14     H     0.41937  0.41937  0.00000  0.16126
      15     H     0.41646  0.41646  0.00000  0.16708
      16     H     0.42049  0.42049  0.00000  0.15902

   Total alpha = 24.00000, Total beta = 24.00000, Total charge = -0.00000
