                              Psi4 1.0.54 Driver

  ==> Input File <==

--------------------------------------------------------------------------
set {
	reference rhf
	basis cc-pvtz
}

set_num_threads( 4 )
memory 2 gb

molecule MOL {
0 1

O	 0.312534	 0.896309	 0.806131
C	 0.029490	 0.077183	 0.000078
C	 -1.232113	 -0.748027	 0.000015
O	 0.803347	 -0.226117	 -1.028701
C	 -2.501422	 0.088592	 -0.000052
H	 -1.188777	 -1.400384	 -0.865133
H	 -1.188857	 -1.400312	 0.865225
H	 -2.548170	 0.725504	 -0.873205
H	 -3.371613	 -0.556398	 -0.000040
H	 -2.548215	 0.725571	 0.873047
C	 2.023982	 0.475720	 -1.151650
H	 1.845445	 1.535697	 -1.255614
H	 2.501346	 0.090009	 -2.037752
H	 2.649410	 0.306797	 -0.287619

	symmetry c1
}
set optking {
	frozen_dihedral = ("
		4 2 3 6
	")
}

ee,wfn = optimize('scf', return_wfn=True)
oeprop( wfn, 'DIPOLE', 'QUADRUPOLE', 'MULLIKEN_CHARGES')
f=open( 'psi4out.xyz', 'w' )
f.write( "14  " )
f.write( str(ee) + "\n" )
f.write( MOL.save_string_xyz() )
f.close()
--------------------------------------------------------------------------

    Molecular point group: c1
  Charge       = 0
  Multiplicity = 1
  Basis Set: CC-PVTZ
  Basis Set:
  @DF-RHF Final Energy:  -305.98545719722802
    Total Energy =                       -305.9854571972279018
    Molecular point group: c1
  Basis Set: CC-PVTZ
  Basis Set:
  Basis Set: CC-PVTZ
  Basis Set:
  @DF-RHF Final Energy:  -305.98599020835195
    Total Energy =                       -305.9859902083519501
  Basis Set: CC-PVTZ
  Basis Set:
  Basis Set: CC-PVTZ
  Basis Set:
  @DF-RHF Final Energy:  -305.98546020326785
    Total Energy =                       -305.9854602032677917
  Basis Set: CC-PVTZ
  Basis Set:
  Basis Set: CC-PVTZ
  Basis Set:
  @DF-RHF Final Energy:  -305.98604019050720
    Total Energy =                       -305.9860401905071967
  Basis Set: CC-PVTZ
  Basis Set:
  Basis Set: CC-PVTZ
  Basis Set:
  @DF-RHF Final Energy:  -305.98605240056145
    Total Energy =                       -305.9860524005614479
  Basis Set: CC-PVTZ
  Basis Set:
  Charge       = 0
  Multiplicity = 1
  Basis Set: CC-PVTZ
  Basis Set:

    Orbital Energies (a.u.)
    -----------------------

    Doubly Occupied:

       1A    -20.599770     2A    -20.532135     3A    -11.364951
       4A    -11.279319     5A    -11.235955     6A    -11.221060
       7A     -1.473633     8A     -1.365637     9A     -1.065746
      10A     -0.980951    11A     -0.881065    12A     -0.774482
      13A     -0.701230    14A     -0.684032    15A     -0.675838
      16A     -0.618728    17A     -0.602923    18A     -0.561452
      19A     -0.540708    20A     -0.520226    21A     -0.512466
      22A     -0.500274    23A     -0.459853    24A     -0.439850

  @DF-RHF Final Energy:  -305.98605284156361

   => Energetics <=

    Nuclear Repulsion Energy =            247.7523225823432824
    One-Electron Energy =                -908.2921835844946372
    Two-Electron Energy =                 354.5538081605881189
    DFT Exchange-Correlation Energy =       0.0000000000000000
    Empirical Dispersion Energy =           0.0000000000000000
    PCM Polarization Energy =               0.0000000000000000
    EFP Energy =                            0.0000000000000000
    Total Energy =                       -305.9860528415632643
    Molecular point group: c1
  Basis Set: CC-PVTZ
  Basis Set:

  -Total Gradient:
     Atom            X                  Y                   Z
    ------   -----------------  -----------------  -----------------
       1       -0.000031339793    -0.000014202479     0.000006836570
       2        0.000421699684    -0.000571464997     0.000459698107
       3       -0.000469618124     0.000711009625    -0.000564233258
       4       -0.000274501832     0.000330375372    -0.000245450104
       5        0.000035526136    -0.000031629769     0.000024602714
       6        0.000289993672    -0.000445201129     0.000340048897
       7        0.000002449073     0.000009631993    -0.000009375996
       8        0.000010561915    -0.000013867259     0.000009830271
       9        0.000008204538     0.000003249397    -0.000001857845
      10       -0.000008774152     0.000007689901     0.000001339598
      11        0.000012759232     0.000030781490    -0.000011106023
      12        0.000017084548    -0.000014256946     0.000002387918
      13       -0.000002438106    -0.000004923495     0.000001858292
      14       -0.000011606791     0.000002808294    -0.000014579143

  **** Optimization is complete! (in 6 steps) ****
    Final optimized geometry and variables:
    Molecular point group: c1

    Geometry (in Angstrom), charge = 0, multiplicity = 1:

    O            0.331424888969     0.784398263949     1.037090008482
    C            0.095177405287    -0.042847697264     0.222772441415
    C           -1.147960822908    -0.898118712591     0.223669740322
    O            0.899909588721    -0.313210698425    -0.789128033477
    C           -2.418097164096    -0.049982500602     0.228621939763
    H           -1.125517759290    -1.570856593203    -0.620977283678
    H           -1.107051275770    -1.497842480560     1.125995036484
    H           -2.494179279897     0.544613874229    -0.674334229186
    H           -3.291649224753    -0.687182686451     0.283281006851
    H           -2.426408461827     0.620139798003     1.076805278131
    C            2.101132667538     0.427858454601    -0.876475256592
    H            1.891181052800     1.482365512675    -0.975245232109
    H            2.610971622180     0.064954815950    -1.754034535533
    H            2.709835362191     0.270340753409     0.001341354677

  Mulliken Charges: (a.u.)
   Center  Symbol    Alpha    Beta     Spin     Total
       1     O     4.20425  4.20425  0.00000 -0.40850
       2     C     2.80436  2.80436  0.00000  0.39128
       3     C     3.08581  3.08581  0.00000 -0.17161
       4     O     4.14390  4.14390  0.00000 -0.28781
       5     C     3.14523  3.14523  0.00000 -0.29046
       6     H     0.43942  0.43942  0.00000  0.12116
       7     H     0.44565  0.44565  0.00000  0.10870
       8     H     0.45330  0.45330  0.00000  0.09339
       9     H     0.44926  0.44926  0.00000  0.10149
      10     H     0.44172  0.44172  0.00000  0.11656
      11     C     3.03380  3.03380  0.00000 -0.06760
      12     H     0.45397  0.45397  0.00000  0.09207
      13     H     0.44524  0.44524  0.00000  0.10951
      14     H     0.45408  0.45408  0.00000  0.09183

   Total alpha = 24.00000, Total beta = 24.00000, Total charge =  0.00000

*** Psi4 exiting successfully. Buy a developer a beer!
