  ==> Input File <==

--------------------------------------------------------------------------
set {
	reference rhf
	basis 6-31G*
}

set_num_threads( 4 )
memory 2 gb

molecule MOL {
0 1

O	 -1.302675	 0.146346	 -1.057793
C	 -1.083277	 0.139568	 0.115197
C	 0.323299	 -0.082943	 0.642902
C	 -2.188354	 0.325211	 1.131155
C	 1.355627	 -0.005344	 -0.493127
H	 0.396251	 -1.044647	 1.143147
H	 0.528637	 0.693580	 1.371677
C	 2.786168	 -0.195604	 0.007473
H	 1.132807	 -0.760304	 -1.243899
H	 1.259610	 0.958506	 -0.981915
H	 3.495561	 -0.130713	 -0.811210
H	 2.912696	 -1.165395	 0.480041
H	 3.049284	 0.565503	 0.735850
H	 -2.166461	 -0.467458	 1.873358
H	 -3.148749	 0.337531	 0.634945
H	 -2.043734	 1.263501	 1.660213

	symmetry c1
}
set optking {
	frozen_dihedral = ("
		4 2 3 5
	")
}

ee = optimize('scf')
oeprop('DIPOLE', 'QUADRUPOLE', 'MULLIKEN_CHARGES')
f=open( 'psi4out.xyz', 'w' )
f.write( "16  " )
f.write( str(ee) + "\n" )
f.write( MOL.save_string_xyz() )
f.close()
--------------------------------------------------------------------------

    Molecular point group: c1
  Charge       = 0
  Multiplicity = 1
  Basis Set: 6-31G*
  Basis Set:
  @DF-RHF Final Energy:  -270.03118170262906
    Total Energy =                       -270.0311817026289987
    Molecular point group: c1
  Basis Set: 6-31G*
  Basis Set:
  Basis Set: 6-31G*
  Basis Set:
  @DF-RHF Final Energy:  -270.03133375599020
    Total Energy =                       -270.0313337559900901
  Basis Set: 6-31G*
  Basis Set:
  Basis Set: 6-31G*
  Basis Set:
  @DF-RHF Final Energy:  -270.03206840785947
    Total Energy =                       -270.0320684078596969
  Basis Set: 6-31G*
  Basis Set:
  Basis Set: 6-31G*
  Basis Set:
  @DF-RHF Final Energy:  -270.03232190094155
    Total Energy =                       -270.0323219009415538
  Basis Set: 6-31G*
  Basis Set:
  @DF-RHF Final Energy:  -270.03233091600407
    Total Energy =                       -270.0323309160039571
  @DF-RHF Final Energy:  -270.03234253499022
    Total Energy =                       -270.0323425349901640
  Basis Set: 6-31G*
  Basis Set:
  @DF-RHF Final Energy:  -270.03234740771018
    Total Energy =                       -270.0323474077102901
  Basis Set: 6-31G*
  Basis Set:
  Basis Set: 6-31G*
  Basis Set:
  @DF-RHF Final Energy:  -270.03235123135278
    Total Energy =                       -270.0323512313527772
  Basis Set: 6-31G*
  Basis Set:
  Basis Set: 6-31G*
  Basis Set:
  @DF-RHF Final Energy:  -270.03235238026434
    Total Energy =                       -270.0323523802643990
  Basis Set: 6-31G*
  Basis Set:
  Charge       = 0
  Multiplicity = 1
  Basis Set: 6-31G*
  Basis Set:

    Orbital Energies (a.u.)
    -----------------------

    Doubly Occupied:

       1A    -20.550675     2A    -11.326813     3A    -11.232540
       4A    -11.228832     5A    -11.219913     6A    -11.213750
       7A     -1.396131     8A     -1.077256     9A     -1.015776
      10A     -0.946958    11A     -0.824406    12A     -0.732103
      13A     -0.654798    14A     -0.650198    15A     -0.624874
      16A     -0.598470    17A     -0.567062    18A     -0.559584
      19A     -0.546718    20A     -0.500316    21A     -0.490859
      22A     -0.483412    23A     -0.476330    24A     -0.401311

  @DF-RHF Final Energy:  -270.03235260811846

   => Energetics <=

    Nuclear Repulsion Energy =            236.7821837314681659
    One-Electron Energy =                -834.9909024723392577
    Two-Electron Energy =                 328.1763661327526620
    DFT Exchange-Correlation Energy =       0.0000000000000000
    Empirical Dispersion Energy =           0.0000000000000000
    PCM Polarization Energy =               0.0000000000000000
    EFP Energy =                            0.0000000000000000
    Total Energy =                       -270.0323526081184013
    Molecular point group: c1
  Basis Set: 6-31G*
  Basis Set:

  -Total Gradient:
     Atom            X                  Y                   Z
    ------   -----------------  -----------------  -----------------
       1        0.000018030179    -0.000020038338    -0.000014591724
       2       -0.000088283099    -0.000331998295     0.000050259176
       3       -0.000035286167    -0.000255226382    -0.000027408715
       4        0.000045831067     0.000341121724    -0.000015902856
       5        0.000040341547     0.000334654264     0.000042839058
       6        0.000001407264    -0.000014750054     0.000012065141
       7       -0.000012737770    -0.000045966484    -0.000017670168
       8        0.000000050117    -0.000010165851    -0.000011224451
       9        0.000017181779    -0.000005299539     0.000002379320
      10        0.000001520772     0.000020819511    -0.000025766217
      11       -0.000004479544     0.000004023241     0.000000830587
      12        0.000015686089    -0.000009591593     0.000005841194
      13       -0.000021980599    -0.000005031521    -0.000009465653
      14       -0.000003110329    -0.000005796198     0.000000088533
      15        0.000015229716    -0.000002190863    -0.000004012801
      16        0.000010598983     0.000005436378     0.000011739574

  **** Optimization is complete! (in 10 steps) ****
    Final optimized geometry and variables:
    Molecular point group: c1

    Geometry (in Angstrom), charge = 0, multiplicity = 1:

    O           -1.350633148769     0.091238682194    -1.118546042374
    C           -1.081210621272     0.077144610726     0.043353203402
    C            0.339911791213    -0.115128775821     0.541227768115
    C           -2.147723631525     0.257389118415     1.103413571558
    C            1.397431788054    -0.050414816478    -0.557310206515
    H            0.376795073435    -1.078021169378     1.050599364686
    H            0.537882561676     0.627399197743     1.312376632120
    C            2.810436764599    -0.261191476145    -0.015387123104
    H            1.173612830324    -0.796854550695    -1.310830463597
    H            1.333671711036     0.910909999886    -1.057100291414
    H            3.543692723684    -0.208581884352    -0.813659251207
    H            2.910831286588    -1.232821837829     0.460649224061
    H            3.069911934620     0.494786130046     0.720740007399
    H           -2.073372943205    -0.510690079915     1.867080734984
    H           -3.127125492965     0.227054606338     0.646542414633
    H           -2.013645950427     1.216621042947     1.596086177652

  Mulliken Charges: (a.u.)
   Center  Symbol    Alpha    Beta     Spin     Total
       1     O     4.26130  4.26130  0.00000 -0.52260
       2     C     2.73564  2.73564  0.00000  0.52872
       3     C     3.20914  3.20914  0.00000 -0.41827
       4     C     3.28697  3.28697  0.00000 -0.57394
       5     C     3.14841  3.14841  0.00000 -0.29682
       6     H     0.40816  0.40816  0.00000  0.18368
       7     H     0.41199  0.41199  0.00000  0.17602
       8     C     3.24201  3.24201  0.00000 -0.48403
       9     H     0.40864  0.40864  0.00000  0.18271
      10     H     0.41383  0.41383  0.00000  0.17235
      11     H     0.41563  0.41563  0.00000  0.16873
      12     H     0.42214  0.42214  0.00000  0.15571
      13     H     0.42264  0.42264  0.00000  0.15473
      14     H     0.41030  0.41030  0.00000  0.17940
      15     H     0.39657  0.39657  0.00000  0.20685
      16     H     0.40663  0.40663  0.00000  0.18675

   Total alpha = 24.00000, Total beta = 24.00000, Total charge = -0.00000
