  ==> Input File <==

--------------------------------------------------------------------------
set {
	reference rhf
	basis cc-pvtz
}

set_num_threads( 4 )
memory 2 gb

molecule MOL {
0 1

H	 0.480180	 -2.178171	 -0.848041
C	 -0.301835	 -1.444787	 -1.053097
N	 -0.537714	 -0.645117	 0.000000
O	 -0.855429	 -1.396402	 -2.105670
C	 -1.522613	 0.412524	 0.000000
H	 -0.000238	 -0.798372	 0.817078
H	 -2.150256	 0.356137	 -0.880771
H	 -1.005621	 1.357208	 0.000000
H	 -2.150256	 0.356137	 0.880771

	symmetry c1
}
set optking {
	frozen_dihedral = ("
		6 3 5 7
	")
}

ee = optimize('scf')
oeprop('DIPOLE', 'QUADRUPOLE', 'MULLIKEN_CHARGES')
f=open( 'psi4out.xyz', 'w' )
f.write( "9  " )
f.write( str(ee) + "\n" )
f.write( MOL.save_string_xyz() )
f.close()
--------------------------------------------------------------------------

    Molecular point group: c1
  Charge       = 0
  Multiplicity = 1
  Basis Set: CC-PVTZ
  Basis Set:
  @DF-RHF Final Energy:  -208.04298402423706
    Total Energy =                       -208.0429840242371142
    Molecular point group: c1
  Basis Set: CC-PVTZ
  Basis Set:
  Basis Set: CC-PVTZ
  Basis Set:
  @DF-RHF Final Energy:  -208.04347958349166
    Total Energy =                       -208.0434795834917168
  Basis Set: CC-PVTZ
  Basis Set:
  Basis Set: CC-PVTZ
  Basis Set:
  @DF-RHF Final Energy:  -208.04355102938487
    Total Energy =                       -208.0435510293848722
  Basis Set: CC-PVTZ
  Basis Set:
  Basis Set: CC-PVTZ
  Basis Set:
  @DF-RHF Final Energy:  -208.04351130921299
    Total Energy =                       -208.0435113092129882
  Basis Set: CC-PVTZ
  Basis Set:
  Basis Set: CC-PVTZ
  Basis Set:
  @DF-RHF Final Energy:  -208.04357744017000
    Total Energy =                       -208.0435774401699405
  Basis Set: CC-PVTZ
  Basis Set:
  Basis Set: CC-PVTZ
  Basis Set:
  @DF-RHF Final Energy:  -208.04358113761447
    Total Energy =                       -208.0435811376144954
  Basis Set: CC-PVTZ
  Basis Set:
  Charge       = 0
  Multiplicity = 1
  Basis Set: CC-PVTZ
  Basis Set:

    Orbital Energies (a.u.)
    -----------------------

    Doubly Occupied:

       1A    -20.516169     2A    -15.585063     3A    -11.337521
       4A    -11.259261     5A     -1.393667     6A     -1.239927
       7A     -0.970410     8A     -0.808286     9A     -0.748815
      10A     -0.646391    11A     -0.629329    12A     -0.596881
      13A     -0.555432    14A     -0.542046    15A     -0.428271
      16A     -0.395992

  @DF-RHF Final Energy:  -208.04359077711587

   => Energetics <=

    Nuclear Repulsion Energy =            122.7159792376128991
    One-Electron Energy =                -526.2122155044489773
    Two-Electron Energy =                 195.4526454897201688
    DFT Exchange-Correlation Energy =       0.0000000000000000
    Empirical Dispersion Energy =           0.0000000000000000
    PCM Polarization Energy =               0.0000000000000000
    EFP Energy =                            0.0000000000000000
    Total Energy =                       -208.0435907771159236
    Molecular point group: c1
  Basis Set: CC-PVTZ
  Basis Set:

  -Total Gradient:
     Atom            X                  Y                   Z
    ------   -----------------  -----------------  -----------------
       1       -0.000019738928     0.000008273677     0.000010567428
       2        0.000003148860     0.000070327371     0.000010993571
       3       -0.000113716533    -0.000093034354     0.000111475780
       4       -0.000005097624    -0.000045264560    -0.000053198111
       5       -0.000086529095    -0.000121083000     0.000063385310
       6        0.000090213589     0.000075346935    -0.000107057812
       7        0.000141853874     0.000050408584    -0.000059243545
       8       -0.000016688361     0.000005145185     0.000013117081
       9        0.000006554220     0.000049880162     0.000009960293

  **** Optimization is complete! (in 7 steps) ****
    Final optimized geometry and variables:
    Molecular point group: c1

    Geometry (in Angstrom), charge = 0, multiplicity = 1:

    H            1.282646084113    -1.431791448794    -0.069249268155
    C            0.509625291573    -0.687895101389    -0.271312922104
    N            0.248280876787     0.079756555604     0.799836432170
    O           -0.022197488640    -0.607057619041    -1.332947435867
    C           -0.704557199482     1.166320905027     0.788866747188
    H            0.804805542836    -0.060609993083     1.606481560574
    H           -1.333647828703     1.060725070634    -0.079104626001
    H           -0.209890699275     2.129627260862     0.743103316240
    H           -1.320303480490     1.131794453889     1.677979844844

  Mulliken Charges: (a.u.)
   Center  Symbol    Alpha    Beta     Spin     Total
       1     H     0.46295  0.46295  0.00000  0.07410
       2     C     2.88098  2.88098  0.00000  0.23804
       3     N     3.60782  3.60782  0.00000 -0.21564
       4     O     4.21487  4.21487  0.00000 -0.42974
       5     C     3.08070  3.08070  0.00000 -0.16140
       6     H     0.40973  0.40973  0.00000  0.18054
       7     H     0.43358  0.43358  0.00000  0.13284
       8     H     0.45536  0.45536  0.00000  0.08928
       9     H     0.45401  0.45401  0.00000  0.09197

   Total alpha = 16.00000, Total beta = 16.00000, Total charge = -0.00000
