                              Psi4 1.0.54 Driver

  ==> Input File <==

--------------------------------------------------------------------------
set {
	reference rhf
	basis cc-pvtz
}

set_num_threads( 4 )
memory 2 gb

molecule MOL {
0 1

H	 -3.162190	 0.493205	 -0.000107
C	 -2.363908	 -0.234727	 0.000005
O	 -1.158738	 0.454634	 -0.000087
H	 -2.464314	 -0.863616	 -0.882153
H	 -2.464327	 -0.863359	 0.882345
C	 -0.028611	 -0.359694	 0.000037
C	 1.108390	 0.364243	 -0.692448
H	 -0.243785	 -1.297916	 -0.511898
H	 0.252581	 -0.608825	 1.023515
C	 2.387186	 -0.464808	 -0.733761
H	 0.794545	 0.617267	 -1.699129
H	 1.286992	 1.300844	 -0.175891
H	 2.236943	 -1.397013	 -1.268091
H	 3.181854	 0.075526	 -1.233323
H	 2.732842	 -0.708612	 0.265313

	symmetry c1
}
set optking {
	frozen_dihedral = ("
		8 6 3 2
	")
}

ee,wfn = optimize('scf', return_wfn=True)
oeprop( wfn, 'DIPOLE', 'QUADRUPOLE', 'MULLIKEN_CHARGES')
f=open( 'psi4out.xyz', 'w' )
f.write( "15  " )
f.write( str(ee) + "\n" )
f.write( MOL.save_string_xyz() )
f.close()
--------------------------------------------------------------------------

    Molecular point group: c1
  Charge       = 0
  Multiplicity = 1
  Basis Set: CC-PVTZ
  Basis Set:
  @DF-RHF Final Energy:  -232.22638000558422
    Total Energy =                       -232.2263800055842466
    Molecular point group: c1
  Basis Set: CC-PVTZ
  Basis Set:
  Basis Set: CC-PVTZ
  Basis Set:
  @DF-RHF Final Energy:  -232.22648077381848
    Total Energy =                       -232.2264807738188210
  Basis Set: CC-PVTZ
  Basis Set:
  Basis Set: CC-PVTZ
  Basis Set:
  @DF-RHF Final Energy:  -232.22652054967602
    Total Energy =                       -232.2265205496761382
  Basis Set: CC-PVTZ
  Basis Set:
  Charge       = 0
  Multiplicity = 1
  Basis Set: CC-PVTZ
  Basis Set:

    Orbital Energies (a.u.)
    -----------------------

    Doubly Occupied:

       1A    -20.546012     2A    -11.264204     3A    -11.262166
       4A    -11.212884     5A    -11.210773     6A     -1.379566
       7A     -1.058264     8A     -0.956435     9A     -0.877861
      10A     -0.809660    11A     -0.674608    12A     -0.655317
      13A     -0.633546    14A     -0.606394    15A     -0.566661
      16A     -0.540315    17A     -0.503817    18A     -0.491036
      19A     -0.480070    20A     -0.464082    21A     -0.412353

  @DF-RHF Final Energy:  -232.22652095495732

   => Energetics <=

    Nuclear Repulsion Energy =            189.9578104062613306
    One-Electron Energy =                -691.1566176599958453
    Two-Electron Energy =                 268.9722862987772487
    DFT Exchange-Correlation Energy =       0.0000000000000000
    Empirical Dispersion Energy =           0.0000000000000000
    PCM Polarization Energy =               0.0000000000000000
    EFP Energy =                            0.0000000000000000
    Total Energy =                       -232.2265209549572660
    Molecular point group: c1
  Basis Set: CC-PVTZ
  Basis Set:

  -Total Gradient:
     Atom            X                  Y                   Z
    ------   -----------------  -----------------  -----------------
       1       -0.000019535500    -0.000013974009     0.000003282988
       2       -0.000177067700     0.000009591553    -0.002305589401
       3       -0.000058786974    -0.000341423007     0.003967111985
       4        0.000026247875     0.000010560802     0.000014895983
       5        0.000028701198     0.000017112805    -0.000020039420
       6        0.000907319683     0.001492732996    -0.004143148610
       7        0.000000720991     0.000004090000     0.000019611557
       8       -0.000735334191    -0.001161597153     0.002477209740
       9        0.000009945978     0.000006778848    -0.000011797623
      10        0.000013855107    -0.000013786819    -0.000016218326
      11       -0.000007533081    -0.000006806386     0.000013624640
      12       -0.000004045993    -0.000008079807    -0.000002541450
      13        0.000004746772     0.000008625645     0.000010622092
      14        0.000013922424    -0.000007575154    -0.000001114582
      15       -0.000003156587     0.000003749686    -0.000005909572

  **** Optimization is complete! (in 4 steps) ****
    Final optimized geometry and variables:
    Molecular point group: c1

    Geometry (in Angstrom), charge = 0, multiplicity = 1:

    H           -3.119778248668     0.555419439943     0.364972113836
    C           -2.329351915742    -0.180567411833     0.331137305887
    O           -1.118565804755     0.498199017598     0.292753053481
    H           -2.465828261056    -0.800347259254    -0.551967090680
    H           -2.409286750017    -0.815132296887     1.211681843489
    C            0.018266423515    -0.310900998568     0.253087457505
    C            1.144847660425     0.424507433197    -0.444471445947
    H           -0.202237550481    -1.249515185683    -0.252594499242
    H            0.315181051045    -0.571599062362     1.268959717336
    C            2.440750208418    -0.378500707216    -0.465354144498
    H            0.832957623925     0.658781127521    -1.456566218023
    H            1.300852206567     1.371360100677     0.060811014810
    H            2.312603094189    -1.322946448820    -0.984058254296
    H            3.227193680067     0.169081510585    -0.970221616815
    H            2.785393675484    -0.597845907581     0.539652852174

  Mulliken Charges: (a.u.)
   Center  Symbol    Alpha    Beta     Spin     Total
       1     H     0.44844  0.44844  0.00000  0.10312
       2     C     3.03229  3.03229  0.00000 -0.06458
       3     O     4.17455  4.17455  0.00000 -0.34910
       4     H     0.47160  0.47160  0.00000  0.05679
       5     H     0.47195  0.47195  0.00000  0.05610
       6     C     2.95841  2.95841  0.00000  0.08318
       7     C     3.07997  3.07997  0.00000 -0.15995
       8     H     0.47728  0.47728  0.00000  0.04545
       9     H     0.46873  0.46873  0.00000  0.06254
      10     C     3.15569  3.15569  0.00000 -0.31138
      11     H     0.45305  0.45305  0.00000  0.09391
      12     H     0.45020  0.45020  0.00000  0.09960
      13     H     0.45609  0.45609  0.00000  0.08781
      14     H     0.44636  0.44636  0.00000  0.10727
      15     H     0.45538  0.45538  0.00000  0.08925

   Total alpha = 21.00000, Total beta = 21.00000, Total charge =  0.00000

*** Psi4 exiting successfully. Buy a developer a beer!
