  ==> Input File <==

--------------------------------------------------------------------------
set {
	reference rhf
	basis 6-31G*
}

set_num_threads( 1 )
memory 2 gb

molecule MOL {
0 1

H	 4.059732	 4.902775	 -0.000121
C	 3.500063	 3.984323	 -0.000085
C	 2.113736	 4.019601	 -0.000019
C	 4.167072	 2.769402	 -0.000103
H	 1.597681	 4.962497	 -0.000005
C	 1.394805	 2.838237	 0.000029
H	 5.241764	 2.744025	 -0.000153
C	 3.449487	 1.585576	 -0.000055
H	 0.321676	 2.846419	 0.000078
C	 2.059976	 1.617553	 0.000010
H	 3.961522	 0.643164	 -0.000067
C	 1.239129	 0.373821	 0.000060
O	 1.970282	 -0.730723	 0.000018
O	 0.048025	 0.362498	 0.000126
C	 3.377318	 -0.566646	 -0.000065
H	 3.695437	 -0.028981	 -0.881264
H	 3.789299	 -1.563704	 0.000236
H	 3.695516	 -0.028316	 0.880770

	symmetry c1
}
set optking {
	frozen_dihedral = ("
		12 13 15 16,
		13 12 10 6
	")
}

ee = energy('scf')
oeprop('DIPOLE', 'QUADRUPOLE', 'MULLIKEN_CHARGES')
f=open( 'psi4out.xyz', 'w' )
f.write( "18  " )
f.write( str(ee) + "\n" )
f.write( MOL.save_string_xyz() )
f.close()
--------------------------------------------------------------------------

    Molecular point group: c1

    Geometry (in Angstrom), charge = 0, multiplicity = 1:

       Center              X                  Y                   Z               Mass
    ------------   -----------------  -----------------  -----------------  -----------------
           H          1.748339276559     3.372748331580    -0.000113922962     1.007825032070
           C          1.188670276559     2.454296331580    -0.000077922962    12.000000000000
           C         -0.197656723441     2.489574331580    -0.000011922962    12.000000000000
           C          1.855679276559     1.239375331580    -0.000095922962    12.000000000000
           H         -0.713711723441     3.432470331580     0.000002077038     1.007825032070
           C         -0.916587723441     1.308210331580     0.000036077038    12.000000000000
           H          2.930371276559     1.213998331580    -0.000145922962     1.007825032070
           C          1.138094276559     0.055549331580    -0.000047922962    12.000000000000
           H         -1.989716723441     1.316392331580     0.000085077038     1.007825032070
           C         -0.251416723441     0.087526331580     0.000017077038    12.000000000000
           H          1.650129276559    -0.886862668420    -0.000059922962     1.007825032070
           C         -1.072263723441    -1.156205668420     0.000067077038    12.000000000000
           O         -0.341110723441    -2.260749668420     0.000025077038    15.994914619560
           O         -2.263367723441    -1.167528668420     0.000133077038    15.994914619560
           C          1.065925276559    -2.096672668420    -0.000057922962    12.000000000000
           H          1.384044276559    -1.559007668420    -0.881256922962     1.007825032070
           H          1.477906276559    -3.093730668420     0.000243077038     1.007825032070
           H          1.384123276559    -1.558342668420     0.880777077038     1.007825032070

  Charge       = 0
  Multiplicity = 1
  Basis Set: 6-31G*
  Basis Set:

    Orbital Energies (a.u.)
    -----------------------

    Doubly Occupied:

       1A    -20.621127     2A    -20.541094     3A    -11.380725
       4A    -11.299687     5A    -11.249994     6A    -11.249192
       7A    -11.247197     8A    -11.240331     9A    -11.238267
      10A    -11.218494    11A     -1.478743    12A     -1.372095
      13A     -1.178148    14A     -1.097633    15A     -1.042257
      16A     -1.009792    17A     -0.885770    18A     -0.862318
      19A     -0.804171    20A     -0.732214    21A     -0.709485
      22A     -0.706362    23A     -0.675683    24A     -0.644752
      25A     -0.622669    26A     -0.612272    27A     -0.585816
      28A     -0.576370    29A     -0.550272    30A     -0.519641
      31A     -0.515523    32A     -0.460490    33A     -0.449110
      34A     -0.406671    35A     -0.350022    36A     -0.342837

  @DF-RHF Final Energy:  -457.13186124742901

   => Energetics <=

    Nuclear Repulsion Energy =            510.8664110021616125
    One-Electron Energy =               -1635.0422791913492802
    Two-Electron Energy =                 667.0440069417577433
    DFT Exchange-Correlation Energy =       0.0000000000000000
    Empirical Dispersion Energy =           0.0000000000000000
    PCM Polarization Energy =               0.0000000000000000
    EFP Energy =                            0.0000000000000000
    Total Energy =                       -457.1318612474299243

  Mulliken Charges: (a.u.)
   Center  Symbol    Alpha    Beta     Spin     Total
       1     H     0.39629  0.39629  0.00000  0.20742
       2     C     3.08737  3.08737  0.00000 -0.17474
       3     C     3.10832  3.10832  0.00000 -0.21665
       4     C     3.11654  3.11654  0.00000 -0.23308
       5     H     0.39435  0.39435  0.00000  0.21130
       6     C     3.08011  3.08011  0.00000 -0.16022
       7     H     0.39999  0.39999  0.00000  0.20002
       8     C     3.14137  3.14137  0.00000 -0.28274
       9     H     0.37337  0.37337  0.00000  0.25326
      10     C     3.08896  3.08896  0.00000 -0.17792
      11     H     0.36285  0.36285  0.00000  0.27430
      12     C     2.56926  2.56926  0.00000  0.86149
      13     O     4.30305  4.30305  0.00000 -0.60609
      14     O     4.28268  4.28268  0.00000 -0.56537
      15     C     3.11383  3.11383  0.00000 -0.22767
      16     H     0.39068  0.39068  0.00000  0.21864
      17     H     0.40031  0.40031  0.00000  0.19939
      18     H     0.39067  0.39067  0.00000  0.21866

   Total alpha = 36.00000, Total beta = 36.00000, Total charge =  0.00000
