  ==> Input File <==

--------------------------------------------------------------------------
set {
	reference rhf
	basis 6-31G*
}

set_num_threads( 1 )
memory 2 gb

molecule MOL {
0 1

H	 3.729471	 -0.928294	 -0.070608
O	 2.826016	 -1.159218	 0.122261
C	 2.077727	 -0.067559	 -0.035091
C	 0.624473	 -0.343591	 0.253101
O	 2.542965	 0.974826	 -0.363729
C	 -0.265902	 0.883932	 0.072916
H	 0.324016	 -1.163849	 -0.390541
H	 0.565024	 -0.726111	 1.268924
C	 -1.728698	 0.646073	 0.462102
H	 -0.209144	 1.219470	 -0.958188
H	 0.135059	 1.692851	 0.673903
C	 -2.641627	 0.214300	 -0.689023
H	 -2.118913	 1.568305	 0.886346
H	 -1.777008	 -0.095736	 1.258056
C	 -4.104955	 0.093315	 -0.264153
H	 -2.559767	 0.934661	 -1.500455
H	 -2.312039	 -0.739788	 -1.092099
H	 -4.731426	 -0.215104	 -1.095252
H	 -4.485887	 1.041668	 0.103740
H	 -4.223348	 -0.639591	 0.528985

	symmetry c1
}
set optking {
	frozen_dihedral = ("
		16 12 9 6,
		7 4 6 10,
		5 3 4 7,
		1 2 3 5
	")
}

ee = energy('scf')
oeprop('DIPOLE', 'QUADRUPOLE', 'MULLIKEN_CHARGES')
f=open( 'psi4out.xyz', 'w' )
f.write( "20  " )
f.write( str(ee) + "\n" )
f.write( MOL.save_string_xyz() )
f.close()
--------------------------------------------------------------------------

    Molecular point group: c1

    Geometry (in Angstrom), charge = 0, multiplicity = 1:

       Center              X                  Y                   Z               Mass
    ------------   -----------------  -----------------  -----------------  -----------------
           H          3.767319322020    -1.067262955338    -0.013285110468     1.007825032070
           O          2.863864322020    -1.298186955338     0.179583889532    15.994914619560
           C          2.115575322020    -0.206527955338     0.022231889532    12.000000000000
           C          0.662321322020    -0.482559955338     0.310423889532    12.000000000000
           O          2.580813322020     0.835857044662    -0.306406110468    15.994914619560
           C         -0.228053677980     0.744963044662     0.130238889532    12.000000000000
           H          0.361864322020    -1.302817955338    -0.333218110468     1.007825032070
           H          0.602872322020    -0.865079955338     1.326246889532     1.007825032070
           C         -1.690849677980     0.507104044662     0.519424889532    12.000000000000
           H         -0.171295677980     1.080501044662    -0.900865110468     1.007825032070
           H          0.172907322020     1.553882044662     0.731225889532     1.007825032070
           C         -2.603778677980     0.075331044662    -0.631700110468    12.000000000000
           H         -2.081064677980     1.429336044662     0.943668889532     1.007825032070
           H         -1.739159677980    -0.234704955338     1.315378889532     1.007825032070
           C         -4.067106677980    -0.045653955338    -0.206830110468    12.000000000000
           H         -2.521918677980     0.795692044662    -1.443132110468     1.007825032070
           H         -2.274190677980    -0.878756955338    -1.034776110468     1.007825032070
           H         -4.693577677980    -0.354072955338    -1.037929110468     1.007825032070
           H         -4.448038677980     0.902699044662     0.161062889532     1.007825032070
           H         -4.185499677980    -0.778559955338     0.586307889532     1.007825032070

  Charge       = 0
  Multiplicity = 1
  Basis Set: 6-31G*
  Basis Set:

    Orbital Energies (a.u.)
    -----------------------

    Doubly Occupied:

       1A    -20.612529     2A    -20.551693     3A    -11.381100
       4A    -11.240751     5A    -11.222095     6A    -11.220056
       7A    -11.219368     8A    -11.211672     9A     -1.474620
      10A     -1.365678    11A     -1.095222    12A     -1.041896
      13A     -0.960521    14A     -0.868342    15A     -0.811416
      16A     -0.782803    17A     -0.699574    18A     -0.689501
      19A     -0.662851    20A     -0.634634    21A     -0.604865
      22A     -0.593486    23A     -0.571608    24A     -0.557143
      25A     -0.542930    26A     -0.505731    27A     -0.498367
      28A     -0.479224    29A     -0.471669    30A     -0.467608
      31A     -0.455892    32A     -0.442771

  @DF-RHF Final Energy:  -383.94648034695985

   => Energetics <=

    Nuclear Repulsion Energy =            373.9607261891443954
    One-Electron Energy =               -1263.9390755477611492
    Two-Electron Energy =                 506.0318690116571361
    DFT Exchange-Correlation Energy =       0.0000000000000000
    Empirical Dispersion Energy =           0.0000000000000000
    PCM Polarization Energy =               0.0000000000000000
    EFP Energy =                            0.0000000000000000
    Total Energy =                       -383.9464803469595608

  Mulliken Charges: (a.u.)
   Center  Symbol    Alpha    Beta     Spin     Total
       1     H     0.26789  0.26789  0.00000  0.46422
       2     O     4.35168  4.35168  0.00000 -0.70336
       3     C     2.62285  2.62285  0.00000  0.75430
       4     C     3.21169  3.21169  0.00000 -0.42338
       5     O     4.27925  4.27925  0.00000 -0.55850
       6     C     3.15579  3.15579  0.00000 -0.31158
       7     H     0.39796  0.39796  0.00000  0.20409
       8     H     0.39851  0.39851  0.00000  0.20299
       9     C     3.15700  3.15700  0.00000 -0.31399
      10     H     0.41086  0.41086  0.00000  0.17828
      11     H     0.40766  0.40766  0.00000  0.18469
      12     C     3.15266  3.15266  0.00000 -0.30532
      13     H     0.41798  0.41798  0.00000  0.16405
      14     H     0.42341  0.42341  0.00000  0.15317
      15     C     3.23996  3.23996  0.00000 -0.47991
      16     H     0.42056  0.42056  0.00000  0.15887
      17     H     0.42367  0.42367  0.00000  0.15267
      18     H     0.41834  0.41834  0.00000  0.16332
      19     H     0.42071  0.42071  0.00000  0.15857
      20     H     0.42158  0.42158  0.00000  0.15683

   Total alpha = 32.00000, Total beta = 32.00000, Total charge =  0.00000
