  ==> Input File <==

--------------------------------------------------------------------------
set {
	reference rhf
	basis 6-31G*
}

set_num_threads( 4 )
memory 2 gb

molecule MOL {
0 1

H	 2.089113	 -0.728339	 -0.456437
O	 1.257964	 -0.641023	 -0.012494
C	 0.702312	 0.627605	 -0.264544
C	 -0.714990	 0.596302	 0.266387
H	 0.685494	 0.834954	 -1.331117
H	 1.273296	 1.409092	 0.232226
O	 -1.405996	 -0.526611	 -0.195820
H	 -1.257453	 1.468809	 -0.075599
H	 -0.688972	 0.618407	 1.353696
H	 -0.890587	 -1.292708	 0.022039

	symmetry c1
}
set optking {
	frozen_dihedral = ("
		5 3 4 7
	")
}

ee = optimize('scf')
oeprop('DIPOLE', 'QUADRUPOLE', 'MULLIKEN_CHARGES')
f=open( 'psi4out.xyz', 'w' )
f.write( "10  " )
f.write( str(ee) + "\n" )
f.write( MOL.save_string_xyz() )
f.close()
--------------------------------------------------------------------------

    Molecular point group: c1
  Charge       = 0
  Multiplicity = 1
  Basis Set: 6-31G*
  Basis Set:
  @DF-RHF Final Energy:  -228.92457779691694
    Total Energy =                       -228.9245777969169353
    Molecular point group: c1
  Basis Set: 6-31G*
  Basis Set:
  Basis Set: 6-31G*
  Basis Set:
  @DF-RHF Final Energy:  -228.92476115473963
    Total Energy =                       -228.9247611547394854
  Basis Set: 6-31G*
  Basis Set:
  Basis Set: 6-31G*
  Basis Set:
  @DF-RHF Final Energy:  -228.92486040410867
    Total Energy =                       -228.9248604041086423
  Basis Set: 6-31G*
  Basis Set:
  Basis Set: 6-31G*
  Basis Set:
  @DF-RHF Final Energy:  -228.92486223865995
    Total Energy =                       -228.9248622386599266
  Basis Set: 6-31G*
  Basis Set:
  Charge       = 0
  Multiplicity = 1
  Basis Set: 6-31G*
  Basis Set:

    Orbital Energies (a.u.)
    -----------------------

    Doubly Occupied:

       1A    -20.572353     2A    -20.545590     3A    -11.277801
       4A    -11.268078     5A     -1.385287     6A     -1.348960
       7A     -1.001992     8A     -0.843512     9A     -0.730182
      10A     -0.678397    11A     -0.650620    12A     -0.601188
      13A     -0.576147    14A     -0.533764    15A     -0.489146
      16A     -0.454262    17A     -0.429701

  @DF-RHF Final Energy:  -228.92486247766820

   => Energetics <=

    Nuclear Repulsion Energy =            134.9184028658367822
    One-Electron Energy =                -580.9125701384871263
    Two-Electron Energy =                 217.0693047949820880
    DFT Exchange-Correlation Energy =       0.0000000000000000
    Empirical Dispersion Energy =           0.0000000000000000
    PCM Polarization Energy =               0.0000000000000000
    EFP Energy =                            0.0000000000000000
    Total Energy =                       -228.9248624776682277
    Molecular point group: c1
  Basis Set: 6-31G*
  Basis Set:

  -Total Gradient:
     Atom            X                  Y                   Z
    ------   -----------------  -----------------  -----------------
       1       -0.000000523503     0.000002149770    -0.000001939540
       2        0.000024665252     0.000024455595     0.000013973168
       3        0.000003397575    -0.005191244660    -0.000097243613
       4       -0.001183773164     0.002997831873    -0.003001163658
       5        0.000216590448     0.003732209623     0.000697904781
       6       -0.000005691802    -0.000005716817     0.000023240785
       7        0.000967773351    -0.001535179158     0.002378361690
       8        0.000008014444     0.000010173993    -0.000007689676
       9        0.000007125467    -0.000006881031    -0.000007503912
      10       -0.000037578062    -0.000027799186     0.000002059975

  **** Optimization is complete! (in 5 steps) ****
    Final optimized geometry and variables:
    Molecular point group: c1

    Geometry (in Angstrom), charge = 0, multiplicity = 1:

    H            2.127656173199    -0.697919622158    -0.380155335585
    O            1.292154940531    -0.611531619359     0.055601778655
    C            0.722262426447     0.641503487808    -0.226624769179
    C           -0.692792877881     0.623007107774     0.321410387731
    H            0.707733898714     0.845146728661    -1.294307918121
    H            1.286382060403     1.440036243058     0.251690579761
    O           -1.401614923816    -0.493082946295    -0.126348087260
    H           -1.228077863942     1.505309823393    -0.005664097097
    H           -0.652029011744     0.638040348254     1.408915640682
    H           -0.855344754901    -1.255889795554     0.013720265480

  Mulliken Charges: (a.u.)
   Center  Symbol    Alpha    Beta     Spin     Total
       1     H     0.27525  0.27525  0.00000  0.44950
       2     O     4.37795  4.37795  0.00000 -0.75589
       3     C     3.01211  3.01211  0.00000 -0.02423
       4     C     2.99565  2.99565  0.00000  0.00870
       5     H     0.42372  0.42372  0.00000  0.15256
       6     H     0.42837  0.42837  0.00000  0.14326
       7     O     4.37428  4.37428  0.00000 -0.74855
       8     H     0.41717  0.41717  0.00000  0.16567
       9     H     0.42543  0.42543  0.00000  0.14915
      10     H     0.27008  0.27008  0.00000  0.45984

   Total alpha = 17.00000, Total beta = 17.00000, Total charge = -0.00000
