  ==> Input File <==

--------------------------------------------------------------------------
set {
	reference rhf
	basis 6-31G*
}

set_num_threads( 4 )
memory 2 gb

molecule MOL {
0 1

H	 -2.273092	 1.173159	 0.000295
O	 -1.438904	 1.618192	 0.000114
C	 -0.409536	 0.736003	 0.000030
C	 0.202314	 0.494655	 -1.220048
C	 0.023751	 0.095820	 1.159068
H	 -0.163266	 1.009538	 -2.089091
C	 1.258783	 -0.392665	 -1.297801
C	 1.087986	 -0.791197	 1.051398
C	 -0.645239	 0.360395	 2.489278
H	 1.729200	 -0.575530	 -2.247413
C	 1.708577	 -1.042156	 -0.159458
H	 1.434627	 -1.293876	 1.937683
H	 -1.699551	 0.091765	 2.474892
H	 -0.178923	 -0.221177	 3.274326
H	 -0.573305	 1.406537	 2.779810
H	 2.529751	 -1.733572	 -0.212522

	symmetry c1
}
set optking {
	frozen_dihedral = ("
		4 3 2 1
	")
}

ee = optimize('scf')
oeprop('DIPOLE', 'QUADRUPOLE', 'MULLIKEN_CHARGES')
f=open( 'psi4out.xyz', 'w' )
f.write( "16  " )
f.write( str(ee) + "\n" )
f.write( MOL.save_string_xyz() )
f.close()
--------------------------------------------------------------------------

    Molecular point group: c1
  Charge       = 0
  Multiplicity = 1
  Basis Set: 6-31G*
  Basis Set:
  @DF-RHF Final Energy:  -344.58995230625226
    Total Energy =                       -344.5899523062522576
    Molecular point group: c1
  Basis Set: 6-31G*
  Basis Set:
  Basis Set: 6-31G*
  Basis Set:
  @DF-RHF Final Energy:  -344.59088430338807
    Total Energy =                       -344.5908843033879521
  Basis Set: 6-31G*
  Basis Set:
  Basis Set: 6-31G*
  Basis Set:
  @DF-RHF Final Energy:  -344.59096115031804
    Total Energy =                       -344.5909611503181509
  Basis Set: 6-31G*
  Basis Set:
  Basis Set: 6-31G*
  Basis Set:
  @DF-RHF Final Energy:  -344.59097503593136
    Total Energy =                       -344.5909750359314785
  Basis Set: 6-31G*
  Basis Set:
  Basis Set: 6-31G*
  Basis Set:
  @DF-RHF Final Energy:  -344.59097863348961
    Total Energy =                       -344.5909786334892715
  Basis Set: 6-31G*
  Basis Set:
  Charge       = 0
  Multiplicity = 1
  Basis Set: 6-31G*
  Basis Set:

    Orbital Energies (a.u.)
    -----------------------

    Doubly Occupied:

       1A    -20.575721     2A    -11.282960     3A    -11.234812
       4A    -11.229137     5A    -11.228504     6A    -11.225403
       7A    -11.224251     8A    -11.220544     9A     -1.389946
      10A     -1.148475    11A     -1.044681    12A     -1.002970
      13A     -0.933178    14A     -0.827047    15A     -0.806387
      16A     -0.724518    17A     -0.667053    18A     -0.652845
      19A     -0.621534    20A     -0.590265    21A     -0.570790
      22A     -0.566066    23A     -0.544989    24A     -0.517095
      25A     -0.499730    26A     -0.482489    27A     -0.461427
      28A     -0.328835    29A     -0.317806

  @DF-RHF Final Energy:  -344.59097942373035

   => Energetics <=

    Nuclear Repulsion Energy =            349.6565756337741959
    One-Electron Energy =               -1160.6561894270262201
    Two-Electron Energy =                 466.4086343695217920
    DFT Exchange-Correlation Energy =       0.0000000000000000
    Empirical Dispersion Energy =           0.0000000000000000
    PCM Polarization Energy =               0.0000000000000000
    EFP Energy =                            0.0000000000000000
    Total Energy =                       -344.5909794237302322
    Molecular point group: c1
  Basis Set: 6-31G*
  Basis Set:

  -Total Gradient:
     Atom            X                  Y                   Z
    ------   -----------------  -----------------  -----------------
       1        0.000000904486     0.000039244859    -0.000654427983
       2       -0.000210503889    -0.000161526653     0.000767452568
       3        0.000542674523     0.000445464673    -0.000056216091
       4       -0.000408864367    -0.000254393101    -0.000106499312
       5        0.000052853256    -0.000043404364     0.000050135123
       6        0.000006811854    -0.000013228211     0.000018848995
       7        0.000076056128    -0.000078067188     0.000049554833
       8       -0.000107565673     0.000085016256     0.000058973471
       9       -0.000009782646    -0.000020536401    -0.000042203018
      10        0.000003948638    -0.000005380193    -0.000010846771
      11        0.000027888458     0.000007878264    -0.000109713519
      12        0.000005446947    -0.000008073965     0.000009355419
      13        0.000008931097     0.000004620705    -0.000008692646
      14        0.000007081730    -0.000002384424     0.000023578517
      15        0.000014189169     0.000000783292     0.000002826143
      16       -0.000010069704     0.000003986447     0.000007874271

  **** Optimization is complete! (in 6 steps) ****
    Final optimized geometry and variables:
    Molecular point group: c1

    Geometry (in Angstrom), charge = 0, multiplicity = 1:

    H           -2.419184739410     1.022090298347    -0.227221720922
    O           -1.580709026156     1.465012377851    -0.223803271933
    C           -0.559191848899     0.549661873425    -0.288369892302
    C            0.053504636042     0.316635791420    -1.505277772697
    C           -0.131618447100    -0.092311383121     0.871159322209
    H           -0.301799530229     0.843157415318    -2.372170022518
    C            1.112028303253    -0.574001283205    -1.588631660184
    C            0.928121776183    -0.982799067973     0.765075515644
    C           -0.807622037929     0.185616059989     2.191798537658
    H            1.588866575306    -0.752713629143    -2.535685883286
    C            1.548942243135    -1.227399729505    -0.450484779016
    H            1.275843194453    -1.489607064345     1.648411469298
    H           -1.838551254346    -0.159087296585     2.192670862220
    H           -0.293013963218    -0.317887383863     3.001499555644
    H           -0.825116133636     1.248360191652     2.404157727213
    H            2.369754332677    -1.919949406590    -0.503413675987

  Mulliken Charges: (a.u.)
   Center  Symbol    Alpha    Beta     Spin     Total
       1     H     0.27190  0.27190  0.00000  0.45620
       2     O     4.38800  4.38800  0.00000 -0.77600
       3     C     2.83608  2.83608  0.00000  0.32783
       4     C     3.11229  3.11229  0.00000 -0.22459
       5     C     2.99919  2.99919  0.00000  0.00161
       6     H     0.39401  0.39401  0.00000  0.21199
       7     C     3.10205  3.10205  0.00000 -0.20410
       8     C     3.11333  3.11333  0.00000 -0.22665
       9     C     3.24664  3.24664  0.00000 -0.49329
      10     H     0.39898  0.39898  0.00000  0.20205
      11     C     3.10044  3.10044  0.00000 -0.20089
      12     H     0.40101  0.40101  0.00000  0.19798
      13     H     0.41895  0.41895  0.00000  0.16209
      14     H     0.41449  0.41449  0.00000  0.17102
      15     H     0.40253  0.40253  0.00000  0.19494
      16     H     0.40010  0.40010  0.00000  0.19981

   Total alpha = 29.00000, Total beta = 29.00000, Total charge = -0.00000
