                              Psi4 1.0.54 Driver

  ==> Input File <==

--------------------------------------------------------------------------
set {
	reference rhf
	basis cc-pvtz
}

set_num_threads( 4 )
memory 2 gb

molecule MOL {
0 1

H	 2.413683	 -0.991731	 -1.988477
C	 1.691978	 -1.190849	 -1.206956
C	 1.322304	 0.099773	 -0.484271
H	 0.822995	 -1.648061	 -1.666517
H	 2.130335	 -1.912041	 -0.526467
C	 0.308557	 -0.162619	 0.622645
H	 0.901941	 0.811619	 -1.183773
H	 2.206412	 0.550786	 -0.050823
N	 -1.069352	 -0.004081	 0.085342
H	 0.371632	 -1.172932	 0.991288
H	 0.400391	 0.548875	 1.426218
O	 -1.584901	 -0.965470	 -0.377818
O	 -1.548033	 1.079343	 0.130056

	symmetry c1
}
set optking {
	frozen_dihedral = ("
		7 3 6 9
	")
}

ee,wfn = optimize('scf', return_wfn=True)
oeprop( wfn, 'DIPOLE', 'QUADRUPOLE', 'MULLIKEN_CHARGES')
f=open( 'psi4out.xyz', 'w' )
f.write( "13  " )
f.write( str(ee) + "\n" )
f.write( MOL.save_string_xyz() )
f.close()
--------------------------------------------------------------------------

    Molecular point group: c1
  Charge       = 0
  Multiplicity = 1
  Basis Set: CC-PVTZ
  Basis Set:
  @DF-RHF Final Energy:  -321.85790405407278
    Total Energy =                       -321.8579040540726055
    Molecular point group: c1
  Basis Set: CC-PVTZ
  Basis Set:
  Basis Set: CC-PVTZ
  Basis Set:
  @DF-RHF Final Energy:  -321.85749079843060
    Total Energy =                       -321.8574907984307742
  Basis Set: CC-PVTZ
  Basis Set:
  Basis Set: CC-PVTZ
  Basis Set:
  @DF-RHF Final Energy:  -321.81120416643125
    Total Energy =                       -321.8112041664313097
  Basis Set: CC-PVTZ
  Basis Set:
  Basis Set: CC-PVTZ
  Basis Set:
  @DF-RHF Final Energy:  -321.85094849639040
    Total Energy =                       -321.8509484963902878
  Basis Set: CC-PVTZ
  Basis Set:
  @DF-RHF Final Energy:  -321.83914888444167
    Total Energy =                       -321.8391488844416131
  @DF-RHF Final Energy:  -321.85569876774025
    Total Energy =                       -321.8556987677404777
  @DF-RHF Final Energy:  -321.81912276019784
    Total Energy =                       -321.8191227601980700
  @DF-RHF Final Energy:  -321.85432320995358
    Total Energy =                       -321.8543232099535771
  @DF-RHF Final Energy:  -321.85808072378541
    Total Energy =                       -321.8580807237851786
  Basis Set: CC-PVTZ
  Basis Set:
  @DF-RHF Final Energy:  -321.85836453665826
    Total Energy =                       -321.8583645366585415
  Basis Set: CC-PVTZ
  Basis Set:
  Basis Set: CC-PVTZ
  Basis Set:
  @DF-RHF Final Energy:  -321.85839602441479
    Total Energy =                       -321.8583960244149011
  Basis Set: CC-PVTZ
  Basis Set:
  Basis Set: CC-PVTZ
  Basis Set:
  @DF-RHF Final Energy:  -321.85839917027511
    Total Energy =                       -321.8583991702751064
  Basis Set: CC-PVTZ
  Basis Set:
  Charge       = 0
  Multiplicity = 1
  Basis Set: CC-PVTZ
  Basis Set:

    Orbital Energies (a.u.)
    -----------------------

    Doubly Occupied:

       1A    -20.591823     2A    -20.589925     3A    -15.837283
       4A    -11.297664     5A    -11.254815     6A    -11.229557
       7A     -1.636390     8A     -1.420562     9A     -1.132077
      10A     -1.023587    11A     -0.888304    12A     -0.830228
      13A     -0.763453    14A     -0.738559    15A     -0.727739
      16A     -0.646215    17A     -0.627987    18A     -0.594397
      19A     -0.529479    20A     -0.522859    21A     -0.514775
      22A     -0.485351    23A     -0.474522    24A     -0.453564

  @DF-RHF Final Energy:  -321.85839958587155

   => Energetics <=

    Nuclear Repulsion Energy =            251.1211608306769278
    One-Electron Energy =                -936.3368945865242949
    Two-Electron Energy =                 363.3573341699759567
    DFT Exchange-Correlation Energy =       0.0000000000000000
    Empirical Dispersion Energy =           0.0000000000000000
    PCM Polarization Energy =               0.0000000000000000
    EFP Energy =                            0.0000000000000000
    Total Energy =                       -321.8583995858714388
    Molecular point group: c1
  Basis Set: CC-PVTZ
  Basis Set:

  -Total Gradient:
     Atom            X                  Y                   Z
    ------   -----------------  -----------------  -----------------
       1        0.000010828254     0.000002374180     0.000004642415
       2       -0.000010937182     0.000003650483     0.000010571954
       3        0.004899091180     0.002584348749     0.001092945219
       4        0.000004597690     0.000008786690     0.000000022101
       5        0.000002929932    -0.000009862135     0.000009208705
       6       -0.003136302591    -0.003356425167    -0.000395003322
       7       -0.003492249110    -0.001484815999    -0.000868924404
       8       -0.000033964709     0.000002247422     0.000010283065
       9        0.001749953554     0.002254183563     0.000191799030
      10        0.000020591050    -0.000019588614     0.000002384354
      11       -0.000001404204    -0.000013034170    -0.000015871898
      12        0.000044222619     0.000071308801    -0.000026619564
      13       -0.000057356485    -0.000043173804    -0.000015437651

  **** Optimization is complete! (in 12 steps) ****
    Final optimized geometry and variables:
    Molecular point group: c1

    Geometry (in Angstrom), charge = 0, multiplicity = 1:

    H            0.875468838958    -1.963706254789    -2.465698237823
    C            0.524175780944    -1.814441528804    -1.452250460548
    C            1.177363535914    -0.578946570778    -0.838784609490
    H           -0.553640075686    -1.714024605383    -1.481958849017
    H            0.761828680888    -2.706053002692    -0.882809788927
    C            0.701340843869    -0.290034232697     0.589986371903
    H            0.962577956635     0.283227982996    -1.457108675222
    H            2.252388751105    -0.699578759140    -0.813393293939
    N           -0.465508571529     0.634343632472     0.565010516960
    H            0.377649444369    -1.177483099171     1.106182200792
    H            1.454035440254     0.230103652073     1.157795655317
    O           -1.547966088775     0.153260973887     0.616400192500
    O           -0.233493239443     1.792760404159     0.469916384166

  Mulliken Charges: (a.u.)
   Center  Symbol    Alpha    Beta     Spin     Total
       1     H     0.44603  0.44603  0.00000  0.10795
       2     C     3.14471  3.14471  0.00000 -0.28942
       3     C     3.09369  3.09369  0.00000 -0.18738
       4     H     0.44367  0.44367  0.00000  0.11266
       5     H     0.45519  0.45519  0.00000  0.08962
       6     C     3.04631  3.04631  0.00000 -0.09262
       7     H     0.43870  0.43870  0.00000  0.12261
       8     H     0.44480  0.44480  0.00000  0.11040
       9     N     3.27779  3.27779  0.00000  0.44443
      10     H     0.43558  0.43558  0.00000  0.12883
      11     H     0.42764  0.42764  0.00000  0.14471
      12     O     4.17305  4.17305  0.00000 -0.34610
      13     O     4.17285  4.17285  0.00000 -0.34570

   Total alpha = 24.00000, Total beta = 24.00000, Total charge = -0.00000

*** Psi4 exiting successfully. Buy a developer a beer!
