                              Psi4 1.0.54 Driver

  ==> Input File <==

--------------------------------------------------------------------------
set {
	reference rhf
	basis cc-pvtz
}

set_num_threads( 4 )
memory 2 gb

molecule MOL {
0 1

O	 -2.081319	 -0.951530	 -0.502732
N	 -1.613558	 0.006676	 0.014756
C	 -0.329345	 -0.171618	 0.743966
O	 -2.068523	 1.100482	 -0.024385
C	 -0.354740	 0.644518	 2.030187
H	 0.444024	 0.162578	 0.072674
H	 -0.241462	 -1.227033	 0.940453
C	 0.946418	 0.489273	 2.813164
H	 -0.516060	 1.687145	 1.782270
H	 -1.192817	 0.320197	 2.636141
C	 0.944394	 1.291078	 4.109923
H	 1.780420	 0.805776	 2.193725
H	 1.109492	 -0.560682	 3.037685
H	 0.816577	 2.349919	 3.914434
H	 0.139225	 0.974801	 4.763673
H	 1.876849	 1.162740	 4.645851

	symmetry c1
}
set optking {
	frozen_dihedral = ("
		5 3 2 1
	")
}

ee,wfn = optimize('scf', return_wfn=True)
oeprop( wfn, 'DIPOLE', 'QUADRUPOLE', 'MULLIKEN_CHARGES')
f=open( 'psi4out.xyz', 'w' )
f.write( "16  " )
f.write( str(ee) + "\n" )
f.write( MOL.save_string_xyz() )
f.close()
--------------------------------------------------------------------------

    Molecular point group: c1
  Charge       = 0
  Multiplicity = 1
  Basis Set: CC-PVTZ
  Basis Set:
  @DF-RHF Final Energy:  -360.90810570601053
    Total Energy =                       -360.9081057060103603
    Molecular point group: c1
  Basis Set: CC-PVTZ
  Basis Set:
  Basis Set: CC-PVTZ
  Basis Set:
  @DF-RHF Final Energy:  -360.90811736321359
    Total Energy =                       -360.9081173632134778
  Basis Set: CC-PVTZ
  Basis Set:
  Basis Set: CC-PVTZ
  Basis Set:
  @DF-RHF Final Energy:  -360.90873315360699
    Total Energy =                       -360.9087331536070451
  Basis Set: CC-PVTZ
  Basis Set:
  Basis Set: CC-PVTZ
  Basis Set:
  @DF-RHF Final Energy:  -360.90885352106596
    Total Energy =                       -360.9088535210657938
  Basis Set: CC-PVTZ
  Basis Set:
  Basis Set: CC-PVTZ
  Basis Set:
  @DF-RHF Final Energy:  -360.90885012346212
    Total Energy =                       -360.9088501234618889
  Basis Set: CC-PVTZ
  Basis Set:
  Basis Set: CC-PVTZ
  Basis Set:
  @DF-RHF Final Energy:  -360.90885417126066
    Total Energy =                       -360.9088541712607139
  Basis Set: CC-PVTZ
  Basis Set:
  Basis Set: CC-PVTZ
  Basis Set:
  @DF-RHF Final Energy:  -360.90885618551039
    Total Energy =                       -360.9088561855105581
  Basis Set: CC-PVTZ
  Basis Set:
  Charge       = 0
  Multiplicity = 1
  Basis Set: CC-PVTZ
  Basis Set:

    Orbital Energies (a.u.)
    -----------------------

    Doubly Occupied:

       1A    -20.590803     2A    -20.589647     3A    -15.837290
       4A    -11.297458     5A    -11.245876     6A    -11.240379
       7A    -11.224736     8A     -1.636167     9A     -1.420223
      10A     -1.134726    11A     -1.059151    12A     -0.948882
      13A     -0.843514    14A     -0.824301    15A     -0.759781
      16A     -0.744957    17A     -0.729992    18A     -0.672101
      19A     -0.615334    20A     -0.605050    21A     -0.566332
      22A     -0.538106    23A     -0.519482    24A     -0.502605
      25A     -0.495732    26A     -0.485390    27A     -0.469438
      28A     -0.453790

  @DF-RHF Final Energy:  -360.90885619588471

   => Energetics <=

    Nuclear Repulsion Energy =            312.5668407531923094
    One-Electron Energy =               -1110.8489105986309369
    Two-Electron Energy =                 437.3732136495540317
    DFT Exchange-Correlation Energy =       0.0000000000000000
    Empirical Dispersion Energy =           0.0000000000000000
    PCM Polarization Energy =               0.0000000000000000
    EFP Energy =                            0.0000000000000000
    Total Energy =                       -360.9088561958845958
    Molecular point group: c1
  Basis Set: CC-PVTZ
  Basis Set:

  -Total Gradient:
     Atom            X                  Y                   Z
    ------   -----------------  -----------------  -----------------
       1        0.000293757648     0.000092476940    -0.000439117707
       2       -0.000341519473    -0.000019090763     0.000521298429
       3       -0.000109666943    -0.000405995024     0.000117094738
       4       -0.000002402290     0.000016919069    -0.000003166981
       5        0.000150203215     0.000313981641    -0.000180130577
       6        0.000006943864     0.000003247172    -0.000000629577
       7        0.000005635922     0.000008383164     0.000004182860
       8        0.000005342495     0.000003440587    -0.000012649296
       9        0.000008871097    -0.000013438609    -0.000008105068
      10       -0.000009078564     0.000002643463     0.000006566149
      11       -0.000009207858    -0.000003379265     0.000000231116
      12        0.000004006445     0.000000730473    -0.000001123334
      13       -0.000001684589     0.000002337095    -0.000002157441
      14        0.000001271618    -0.000000635728    -0.000000935733
      15       -0.000001267528     0.000001816842     0.000001799122
      16       -0.000001205063    -0.000003437059    -0.000003156698

  **** Optimization is complete! (in 8 steps) ****
    Final optimized geometry and variables:
    Molecular point group: c1

    Geometry (in Angstrom), charge = 0, multiplicity = 1:

    O           -1.294680671830    -1.411339339183    -1.778036924048
    N           -0.908998622957    -0.404920550883    -1.286134330807
    C            0.353996714564    -0.478438544448    -0.494871973255
    O           -1.426985481981     0.654816872675    -1.400017961859
    C            0.301006933541     0.362437830971     0.767736324058
    H            1.119623665993    -0.128338724728    -1.173954881705
    H            0.507846739794    -1.525312200407    -0.298041310841
    C            1.600315986653     0.240953803357     1.561225933834
    H            0.118248907034     1.394599646810     0.504357200896
    H           -0.534470926501     0.036903798808     1.378727493402
    C            1.580584838637     1.071662510905     2.839505329572
    H            2.433682903009     0.555996389295     0.939525731121
    H            1.779876961168    -0.800714970264     1.810825465600
    H            1.436434278453     2.123523369361     2.619468358587
    H            0.777583873740     0.757726403926     3.497154404321
    H            2.512478371823     0.970387831521     3.382273404676

  Mulliken Charges: (a.u.)
   Center  Symbol    Alpha    Beta     Spin     Total
       1     O     4.17033  4.17033  0.00000 -0.34066
       2     N     3.27544  3.27544  0.00000  0.44912
       3     C     3.04561  3.04561  0.00000 -0.09122
       4     O     4.17209  4.17209  0.00000 -0.34418
       5     C     3.09858  3.09858  0.00000 -0.19716
       6     H     0.43646  0.43646  0.00000  0.12709
       7     H     0.43103  0.43103  0.00000  0.13794
       8     C     3.09409  3.09409  0.00000 -0.18817
       9     H     0.43296  0.43296  0.00000  0.13408
      10     H     0.44384  0.44384  0.00000  0.11232
      11     C     3.14797  3.14797  0.00000 -0.29593
      12     H     0.45143  0.45143  0.00000  0.09714
      13     H     0.45089  0.45089  0.00000  0.09823
      14     H     0.45161  0.45161  0.00000  0.09678
      15     H     0.45218  0.45218  0.00000  0.09564
      16     H     0.44550  0.44550  0.00000  0.10899

   Total alpha = 28.00000, Total beta = 28.00000, Total charge = -0.00000

*** Psi4 exiting successfully. Buy a developer a beer!
