  ==> Input File <==

--------------------------------------------------------------------------
set {
	reference rhf
	basis 6-31G*
}

set_num_threads( 1 )
memory 2 gb

molecule MOL {
0 1

O	 -2.218281	 -2.747954	 0.745256
C	 -1.483196	 -3.071919	 -0.137428
C	 -0.550844	 -2.062497	 -0.784029
C	 -1.418096	 -4.499434	 -0.632743
C	 0.685253	 -1.815942	 0.095982
H	 -1.101179	 -1.135497	 -0.902797
H	 -0.243624	 -2.402143	 -1.769058
C	 1.631333	 -0.777471	 -0.511575
H	 0.345297	 -1.496411	 1.074611
H	 1.224639	 -2.750811	 0.240308
C	 2.915987	 -0.544314	 0.291766
H	 1.101727	 0.166774	 -0.624025
H	 1.903486	 -1.095980	 -1.515732
C	 3.373361	 0.914346	 0.347591
H	 3.708709	 -1.142521	 -0.150311
H	 2.780642	 -0.921148	 1.303579
H	 3.506512	 1.320010	 -0.651625
H	 4.322697	 0.999599	 0.867103
H	 2.660624	 1.545032	 0.868198
H	 -1.778957	 -4.547555	 -1.656817
H	 -2.027530	 -5.136584	 -0.007112
H	 -0.392930	 -4.858346	 -0.637476

	symmetry c1
}
set optking {
	frozen_dihedral = ("
		6 3 2 1,
		6 3 5 8,
		3 5 8 12
	")
}

ee = energy('scf')
oeprop('DIPOLE', 'QUADRUPOLE', 'MULLIKEN_CHARGES')
f=open( 'psi4out.xyz', 'w' )
f.write( "22  " )
f.write( str(ee) + "\n" )
f.write( MOL.save_string_xyz() )
f.close()
--------------------------------------------------------------------------

    Molecular point group: c1

    Geometry (in Angstrom), charge = 0, multiplicity = 1:

       Center              X                  Y                   Z               Mass
    ------------   -----------------  -----------------  -----------------  -----------------
           O         -2.590744544042    -0.926259002411     0.812159131704    15.994914619560
           C         -1.855659544042    -1.250224002411    -0.070524868296    12.000000000000
           C         -0.923307544042    -0.240802002411    -0.717125868296    12.000000000000
           C         -1.790559544042    -2.677739002411    -0.565839868296    12.000000000000
           C          0.312789455958     0.005752997589     0.162885131704    12.000000000000
           H         -1.473642544042     0.686197997589    -0.835893868296     1.007825032070
           H         -0.616087544042    -0.580448002411    -1.702154868296     1.007825032070
           C          1.258869455958     1.044223997589    -0.444671868296    12.000000000000
           H         -0.027166544042     0.325283997589     1.141514131704     1.007825032070
           H          0.852175455958    -0.929116002411     0.307211131704     1.007825032070
           C          2.543523455958     1.277380997589     0.358669131704    12.000000000000
           H          0.729263455958     1.988468997589    -0.557121868296     1.007825032070
           H          1.531022455958     0.725714997589    -1.448828868296     1.007825032070
           C          3.000897455958     2.736040997589     0.414494131704    12.000000000000
           H          3.336245455958     0.679173997589    -0.083407868296     1.007825032070
           H          2.408178455958     0.900546997589     1.370482131704     1.007825032070
           H          3.134048455958     3.141704997589    -0.584721868296     1.007825032070
           H          3.950233455958     2.821293997589     0.934006131704     1.007825032070
           H          2.288160455958     3.366726997589     0.935101131704     1.007825032070
           H         -2.151420544042    -2.725860002411    -1.589913868296     1.007825032070
           H         -2.399993544042    -3.314889002411     0.059791131704     1.007825032070
           H         -0.765393544042    -3.036651002411    -0.570572868296     1.007825032070

  Charge       = 0
  Multiplicity = 1
  Basis Set: 6-31G*
  Basis Set:

    Orbital Energies (a.u.)
    -----------------------

    Doubly Occupied:

       1A    -20.547379     2A    -11.324558     3A    -11.230423
       4A    -11.229053     5A    -11.228251     6A    -11.221339
       7A    -11.219633     8A    -11.212645     9A     -1.393133
      10A     -1.094929    11A     -1.044906    12A     -1.000878
      13A     -0.938827    14A     -0.847853    15A     -0.796910
      16A     -0.732445    17A     -0.663840    18A     -0.645557
      19A     -0.630078    20A     -0.608886    21A     -0.597392
      22A     -0.582042    23A     -0.559979    24A     -0.554403
      25A     -0.529803    26A     -0.513645    27A     -0.501858
      28A     -0.486284    29A     -0.472045    30A     -0.464128
      31A     -0.458936    32A     -0.396245

  @DF-RHF Final Energy:  -348.09540570475588

   => Energetics <=

    Nuclear Repulsion Energy =            368.6141408811490692
    One-Electron Energy =               -1201.9627565860032519
    Two-Electron Energy =                 485.2532100000983064
    DFT Exchange-Correlation Energy =       0.0000000000000000
    Empirical Dispersion Energy =           0.0000000000000000
    PCM Polarization Energy =               0.0000000000000000
    EFP Energy =                            0.0000000000000000
    Total Energy =                       -348.0954057047558763

  Mulliken Charges: (a.u.)
   Center  Symbol    Alpha    Beta     Spin     Total
       1     O     4.26238  4.26238  0.00000 -0.52476
       2     C     2.73722  2.73722  0.00000  0.52555
       3     C     3.20062  3.20062  0.00000 -0.40123
       4     C     3.28957  3.28957  0.00000 -0.57913
       5     C     3.16385  3.16385  0.00000 -0.32770
       6     H     0.40104  0.40104  0.00000  0.19792
       7     H     0.41691  0.41691  0.00000  0.16619
       8     C     3.15331  3.15331  0.00000 -0.30661
       9     H     0.40501  0.40501  0.00000  0.18998
      10     H     0.42057  0.42057  0.00000  0.15886
      11     C     3.15465  3.15465  0.00000 -0.30929
      12     H     0.41864  0.41864  0.00000  0.16271
      13     H     0.42178  0.42178  0.00000  0.15644
      14     C     3.24060  3.24060  0.00000 -0.48121
      15     H     0.42086  0.42086  0.00000  0.15829
      16     H     0.41939  0.41939  0.00000  0.16122
      17     H     0.42141  0.42141  0.00000  0.15719
      18     H     0.41901  0.41901  0.00000  0.16199
      19     H     0.41953  0.41953  0.00000  0.16095
      20     H     0.40691  0.40691  0.00000  0.18617
      21     H     0.39707  0.39707  0.00000  0.20587
      22     H     0.40969  0.40969  0.00000  0.18061

   Total alpha = 32.00000, Total beta = 32.00000, Total charge = -0.00000
