                              Psi4 1.0.54 Driver

  ==> Input File <==

--------------------------------------------------------------------------
set {
	reference rhf
	basis cc-pvtz
}

set_num_threads( 4 )
memory 2 gb

molecule MOL {
0 1

H	 2.764751	 0.511509	 0.679347
N	 2.326826	 -0.066186	 0.000000
C	 0.934676	 -0.005420	 0.000000
H	 2.744565	 0.049031	 -0.894003
C	 0.226436	 -0.001077	 -1.195129
C	 0.226436	 -0.001077	 1.195129
H	 0.759091	 -0.011439	 -2.128123
C	 -1.153391	 0.009141	 -1.189028
H	 0.759091	 -0.011439	 2.128123
C	 -1.153391	 0.009141	 1.189028
H	 -1.680905	 0.012964	 -2.124348
C	 -1.857876	 0.014675	 0.000000
H	 -1.680905	 0.012964	 2.124348
H	 -2.930222	 0.022904	 0.000000

	symmetry c1
}
set optking {
	frozen_dihedral = ("
		1 2 3 5
	")
}

ee,wfn = optimize('scf', return_wfn=True)
oeprop( wfn, 'DIPOLE', 'QUADRUPOLE', 'MULLIKEN_CHARGES')
f=open( 'psi4out.xyz', 'w' )
f.write( "14  " )
f.write( str(ee) + "\n" )
f.write( MOL.save_string_xyz() )
f.close()
--------------------------------------------------------------------------

    Molecular point group: c1
  Charge       = 0
  Multiplicity = 1
  Basis Set: CC-PVTZ
  Basis Set:
  @DF-RHF Final Energy:  -285.83305789332422
    Total Energy =                       -285.8330578933243942
    Molecular point group: c1
  Basis Set: CC-PVTZ
  Basis Set:
  Basis Set: CC-PVTZ
  Basis Set:
  @DF-RHF Final Energy:  -285.83319569351676
    Total Energy =                       -285.8331956935167568
  Basis Set: CC-PVTZ
  Basis Set:
  Basis Set: CC-PVTZ
  Basis Set:
  @DF-RHF Final Energy:  -285.83323082135757
    Total Energy =                       -285.8332308213573469
  Basis Set: CC-PVTZ
  Basis Set:
  Charge       = 0
  Multiplicity = 1
  Basis Set: CC-PVTZ
  Basis Set:

    Orbital Energies (a.u.)
    -----------------------

    Doubly Occupied:

       1A    -15.555449     2A    -11.270076     3A    -11.227620
       4A    -11.227409     5A    -11.216986     6A    -11.216019
       7A    -11.212567     8A     -1.225990     9A     -1.131176
      10A     -1.014055    11A     -0.988458    12A     -0.833034
      13A     -0.813338    14A     -0.707870    15A     -0.685136
      16A     -0.654332    17A     -0.601043    18A     -0.594747
      19A     -0.582480    20A     -0.532430    21A     -0.506549
      22A     -0.488224    23A     -0.448305    24A     -0.336597
      25A     -0.297597

  @DF-RHF Final Energy:  -285.83323421046737

   => Energetics <=

    Nuclear Repulsion Energy =            273.6714969148609953
    One-Electron Energy =                -928.2744831795326945
    Two-Electron Energy =                 368.7697520542043321
    DFT Exchange-Correlation Energy =       0.0000000000000000
    Empirical Dispersion Energy =           0.0000000000000000
    PCM Polarization Energy =               0.0000000000000000
    EFP Energy =                            0.0000000000000000
    Total Energy =                       -285.8332342104673671
    Molecular point group: c1
  Basis Set: CC-PVTZ
  Basis Set:

  -Total Gradient:
     Atom            X                  Y                   Z
    ------   -----------------  -----------------  -----------------
       1        0.000047826390     0.001471458855    -0.001285015459
       2       -0.000143417285    -0.001152235977     0.001507288370
       3        0.000078358172    -0.001823691103    -0.000254993442
       4        0.000067194129     0.000026838772     0.000041526554
       5       -0.000094148312     0.001468808486    -0.000029715207
       6       -0.000032593761    -0.000014960107    -0.000025291063
       7        0.000025879972    -0.000004098671    -0.000020033194
       8        0.000173358003     0.000065414601    -0.000065388806
       9       -0.000002108438    -0.000018583218    -0.000008679275
      10       -0.000132328451     0.000052865678    -0.000063786466
      11        0.000010573588    -0.000016785165     0.000010503456
      12        0.000001350543    -0.000065573514     0.000190029110
      13       -0.000000323273     0.000014828990     0.000007965680
      14        0.000000378723    -0.000004287626    -0.000004410259

  **** Optimization is complete! (in 4 steps) ****
    Final optimized geometry and variables:
    Molecular point group: c1

    Geometry (in Angstrom), charge = 0, multiplicity = 1:

    H            2.748857768870     0.505896329461     0.699497541618
    N            2.330819366592    -0.074002289714     0.007572756434
    C            0.933499840232    -0.016694262936    -0.003065673247
    H            2.741246579435     0.108482853301    -0.879646507320
    C            0.223581597006    -0.006029054713    -1.195141932838
    C            0.228438896190    -0.001919951571     1.194431032604
    H            0.753094359754    -0.012593901039    -2.130141013836
    C           -1.157705631666     0.006734425454    -1.186549008839
    H            0.765875411089    -0.020285953570     2.124206025086
    C           -1.150230632163     0.023577319443     1.192277395702
    H           -1.687554669769     0.010287629368    -2.120480200757
    C           -1.857573497931     0.024589348865     0.003624179708
    H           -1.675980474196     0.036659190210     2.128464632664
    H           -2.929901801186     0.039492853038     0.006488597683

  Mulliken Charges: (a.u.)
   Center  Symbol    Alpha    Beta     Spin     Total
       1     H     0.42067  0.42067  0.00000  0.15866
       2     N     3.67014  3.67014  0.00000 -0.34028
       3     C     2.88878  2.88878  0.00000  0.22244
       4     H     0.42577  0.42577  0.00000  0.14846
       5     C     3.11828  3.11828  0.00000 -0.23656
       6     C     3.11557  3.11557  0.00000 -0.23115
       7     H     0.43468  0.43468  0.00000  0.13064
       8     C     3.05949  3.05949  0.00000 -0.11899
       9     H     0.43071  0.43071  0.00000  0.13859
      10     C     3.05879  3.05879  0.00000 -0.11758
      11     H     0.42461  0.42461  0.00000  0.15078
      12     C     3.10285  3.10285  0.00000 -0.20570
      13     H     0.42451  0.42451  0.00000  0.15099
      14     H     0.42515  0.42515  0.00000  0.14970

   Total alpha = 25.00000, Total beta = 25.00000, Total charge = -0.00000

*** Psi4 exiting successfully. Buy a developer a beer!
