  ==> Input File <==

--------------------------------------------------------------------------
set {
	reference rhf
	basis 6-31G*
}

set_num_threads( 4 )
memory 2 gb

molecule MOL {
0 1

O	 3.225979	 0.970355	 -0.599647
C	 2.701189	 0.057885	 -0.047330
C	 1.245376	 -0.013843	 0.345420
O	 3.347903	 -1.046386	 0.304773
C	 0.455112	 1.231400	 -0.050772
H	 0.838542	 -0.913825	 -0.103701
H	 1.208210	 -0.175333	 1.419774
C	 -0.998893	 1.219485	 0.433193
H	 0.482531	 1.345121	 -1.130325
H	 0.957290	 2.103070	 0.354729
C	 -1.426559	 2.460176	 1.222430
H	 -1.137383	 0.343032	 1.061981
H	 -1.663641	 1.086890	 -0.419180
C	 -2.848670	 2.351922	 1.776400
H	 -0.731182	 2.617781	 2.045492
H	 -1.361217	 3.345190	 0.593581
C	 -3.288689	 3.588278	 2.562491
H	 -2.919012	 1.475296	 2.418127
H	 -3.543290	 2.183591	 0.954897
C	 -4.708548	 3.470544	 3.115518
H	 -2.595070	 3.758526	 3.383193
H	 -3.223215	 4.464920	 1.921404
H	 -4.991367	 4.361694	 3.667307
H	 -4.798000	 2.622559	 3.788656
H	 -5.430821	 3.333784	 2.315585
C	 4.728119	 -1.109107	 -0.004993
H	 4.882018	 -1.033965	 -1.071845
H	 5.068212	 -2.067527	 0.355250
H	 5.265056	 -0.311663	 0.488280

	symmetry c1
}
set optking {
	frozen_dihedral = ("
		11 8 5 9
	")
}

ee = optimize('scf')
oeprop('DIPOLE', 'QUADRUPOLE', 'MULLIKEN_CHARGES')
f=open( 'psi4out.xyz', 'w' )
f.write( "29  " )
f.write( str(ee) + "\n" )
f.write( MOL.save_string_xyz() )
f.close()
--------------------------------------------------------------------------

    Molecular point group: c1
  Charge       = 0
  Multiplicity = 1
  Basis Set: 6-31G*
  Basis Set:
  @DF-RHF Final Energy:  -501.03976690436696
    Total Energy =                       -501.0397669043667292
    Molecular point group: c1
  Basis Set: 6-31G*
  Basis Set:
  Basis Set: 6-31G*
  Basis Set:
  @DF-RHF Final Energy:  -501.04039308525012
    Total Energy =                       -501.0403930852502299
  Basis Set: 6-31G*
  Basis Set:
  Basis Set: 6-31G*
  Basis Set:
  @DF-RHF Final Energy:  -501.04046326125786
    Total Energy =                       -501.0404632612588784
  Basis Set: 6-31G*
  Basis Set:
  Basis Set: 6-31G*
  Basis Set:
  @DF-RHF Final Energy:  -501.04020610454506
    Total Energy =                       -501.0402061045451774
  Basis Set: 6-31G*
  Basis Set:
  Basis Set: 6-31G*
  Basis Set:
  @DF-RHF Final Energy:  -501.04049068389418
    Total Energy =                       -501.0404906838940633
  Basis Set: 6-31G*
  Basis Set:
  Basis Set: 6-31G*
  Basis Set:
  @DF-RHF Final Energy:  -501.04048631909950
    Total Energy =                       -501.0404863190996139
  Basis Set: 6-31G*
  Basis Set:
  Basis Set: 6-31G*
  Basis Set:
  @DF-RHF Final Energy:  -501.04049255566974
    Total Energy =                       -501.0404925556699709
  Basis Set: 6-31G*
  Basis Set:
  Charge       = 0
  Multiplicity = 1
  Basis Set: 6-31G*
  Basis Set:

    Orbital Energies (a.u.)
    -----------------------

    Doubly Occupied:

       1A    -20.603403     2A    -20.545301     3A    -11.371794
       4A    -11.280692     5A    -11.235479     6A    -11.218673
       7A    -11.217155     8A    -11.214884     9A    -11.214782
      10A    -11.213221    11A    -11.208310    12A     -1.469069
      13A     -1.362523    14A     -1.095876    15A     -1.066720
      16A     -1.019679    17A     -0.977179    18A     -0.926339
      19A     -0.856398    20A     -0.801681    21A     -0.790351
      22A     -0.766868    23A     -0.698953    24A     -0.682448
      25A     -0.671978    26A     -0.651798    27A     -0.628871
      28A     -0.599235    29A     -0.595555    30A     -0.582727
      31A     -0.565392    32A     -0.547699    33A     -0.529825
      34A     -0.529616    35A     -0.514625    36A     -0.508627
      37A     -0.496817    38A     -0.478628    39A     -0.468138
      40A     -0.462174    41A     -0.460147    42A     -0.455818
      43A     -0.443565    44A     -0.430863

  @DF-RHF Final Energy:  -501.04049251919059

   => Energetics <=

    Nuclear Repulsion Energy =            603.4342284622205170
    One-Electron Energy =               -1878.0296848241159751
    Two-Electron Energy =                 773.5549638427041828
    DFT Exchange-Correlation Energy =       0.0000000000000000
    Empirical Dispersion Energy =           0.0000000000000000
    PCM Polarization Energy =               0.0000000000000000
    EFP Energy =                            0.0000000000000000
    Total Energy =                       -501.0404925191912753
    Molecular point group: c1
  Basis Set: 6-31G*
  Basis Set:

  -Total Gradient:
     Atom            X                  Y                   Z
    ------   -----------------  -----------------  -----------------
       1        0.000005026275    -0.000003928614     0.000002950606
       2       -0.000006924552     0.000008713631     0.000006830674
       3        0.000011560681    -0.000009046941    -0.000027810087
       4        0.000001048765    -0.000002197997    -0.000009420120
       5        0.000150999870     0.002230148748     0.000755682253
       6       -0.000000082332     0.000007253629     0.000007532039
       7       -0.000001444614     0.000011050787     0.000005934108
       8       -0.000624697371     0.000372719179    -0.001756093147
       9        0.000038238496    -0.001987523435    -0.000200833389
      10        0.000005788297    -0.000014413841    -0.000006692160
      11        0.000428003256    -0.000606979326     0.001215045546
      12       -0.000013259232     0.000009551321    -0.000002984099
      13       -0.000005988847     0.000006004047     0.000000283496
      14        0.000007782249    -0.000006528920     0.000012075851
      15        0.000006297397    -0.000008306870    -0.000005867634
      16       -0.000004297467    -0.000001665973    -0.000003318045
      17        0.000003230063    -0.000003564853     0.000002958487
      18        0.000006423409    -0.000001599355     0.000004281555
      19       -0.000005127811    -0.000005240616     0.000007498280
      20       -0.000004315260     0.000005594041    -0.000012553761
      21       -0.000004813932    -0.000004798279     0.000004519559
      22        0.000007573080     0.000001972041     0.000003127097
      23       -0.000000899469     0.000001641774    -0.000003168680
      24        0.000004219954     0.000002521408    -0.000001245358
      25       -0.000004256067    -0.000001876657     0.000000030666
      26       -0.000002122799     0.000000390615     0.000001307566
      27        0.000000286553     0.000000025244     0.000000002651
      28        0.000001292601    -0.000000171085    -0.000000163079
      29        0.000000458801     0.000000256302     0.000000089128

  **** Optimization is complete! (in 8 steps) ****
    Final optimized geometry and variables:
    Molecular point group: c1

    Geometry (in Angstrom), charge = 0, multiplicity = 1:

    O            2.949950806133    -0.228215039397    -1.499018008715
    C            2.454455486398    -1.119190416220    -0.887463149741
    C            1.025507359513    -1.164343755787    -0.403745425234
    O            3.114273089861    -2.217583030384    -0.541756305414
    C            0.215451633816     0.073224612886    -0.784127770284
    H            0.574193138163    -2.067993776879    -0.804211155012
    H            1.051566487936    -1.299942829060     0.674188007570
    C           -1.246296358787    -0.001779086421    -0.290928721931
    H            0.244604458042     0.180444439454    -1.862395628853
    H            0.707205258817     0.950948366020    -0.379602496997
    C           -1.689209561509     1.240564596442     0.485864061753
    H           -1.377029509883    -0.871045052471     0.350589196275
    H           -1.913116295309    -0.155473618658    -1.135088015406
    C           -3.140845750704     1.171460044812     0.961158422225
    H           -1.033221460338     1.374576768180     1.344473703008
    H           -1.555255600690     2.122146827657    -0.138681181101
    C           -3.581884035645     2.410197684955     1.743104829366
    H           -3.274968149144     0.288090636945     1.583801871398
    H           -3.795404244025     1.038838564928     0.101161591216
    C           -5.034899694645     2.335693826571     2.210937442354
    H           -2.931756153875     2.541852352309     2.605465184642
    H           -3.447653681539     3.293778663400     1.122809559986
    H           -5.317536206402     3.227614128021     2.761602298353
    H           -5.193843669481     1.480772100659     2.862222682365
    H           -5.713615035934     2.238481312185     1.368225687397
    C            4.472120337467    -2.301914208238    -0.934260440723
    H            4.559930780684    -2.261060949206    -2.010432388793
    H            4.827394104841    -3.251704140335    -0.565937246691
    H            5.044080062908    -1.494356259526    -0.500383317430

  Mulliken Charges: (a.u.)
   Center  Symbol    Alpha    Beta     Spin     Total
       1     O     4.28607  4.28607  0.00000 -0.57214
       2     C     2.60570  2.60570  0.00000  0.78860
       3     C     3.21023  3.21023  0.00000 -0.42047
       4     O     4.30731  4.30731  0.00000 -0.61463
       5     C     3.15530  3.15530  0.00000 -0.31061
       6     H     0.40031  0.40031  0.00000  0.19939
       7     H     0.40089  0.40089  0.00000  0.19822
       8     C     3.15763  3.15763  0.00000 -0.31526
       9     H     0.40942  0.40942  0.00000  0.18116
      10     H     0.40879  0.40879  0.00000  0.18243
      11     C     3.15383  3.15383  0.00000 -0.30766
      12     H     0.42243  0.42243  0.00000  0.15513
      13     H     0.41884  0.41884  0.00000  0.16232
      14     C     3.15160  3.15160  0.00000 -0.30320
      15     H     0.42368  0.42368  0.00000  0.15264
      16     H     0.42109  0.42109  0.00000  0.15783
      17     C     3.15139  3.15139  0.00000 -0.30279
      18     H     0.42448  0.42448  0.00000  0.15104
      19     H     0.42380  0.42380  0.00000  0.15239
      20     C     3.23927  3.23927  0.00000 -0.47854
      21     H     0.42313  0.42313  0.00000  0.15375
      22     H     0.42255  0.42255  0.00000  0.15489
      23     H     0.41926  0.41926  0.00000  0.16148
      24     H     0.42205  0.42205  0.00000  0.15590
      25     H     0.42179  0.42179  0.00000  0.15642
      26     C     3.09243  3.09243  0.00000 -0.18486
      27     H     0.40910  0.40910  0.00000  0.18181
      28     H     0.40849  0.40849  0.00000  0.18301
      29     H     0.40913  0.40913  0.00000  0.18175

   Total alpha = 44.00000, Total beta = 44.00000, Total charge =  0.00000
