  ==> Input File <==

--------------------------------------------------------------------------
set {
	reference rhf
	basis 6-31G*
}

set_num_threads( 4 )
memory 2 gb

molecule MOL {
0 1

H	 1.916997	 -0.749804	 -0.917161
O	 1.096959	 -0.711374	 -0.446439
C	 0.702312	 0.627605	 -0.264544
C	 -0.714990	 0.596302	 0.266387
H	 0.724312	 1.166453	 -1.207949
H	 1.357377	 1.134866	 0.440510
O	 -1.405996	 -0.526611	 -0.195820
H	 -1.257453	 1.468809	 -0.075599
H	 -0.688972	 0.618407	 1.353696
H	 -0.890587	 -1.292708	 0.022039

	symmetry c1
}
set optking {
	frozen_dihedral = ("
		5 3 4 7
	")
}

ee = optimize('scf')
oeprop('DIPOLE', 'QUADRUPOLE', 'MULLIKEN_CHARGES')
f=open( 'psi4out.xyz', 'w' )
f.write( "10  " )
f.write( str(ee) + "\n" )
f.write( MOL.save_string_xyz() )
f.close()
--------------------------------------------------------------------------

    Molecular point group: c1
  Charge       = 0
  Multiplicity = 1
  Basis Set: 6-31G*
  Basis Set:
  @DF-RHF Final Energy:  -228.91831058934736
    Total Energy =                       -228.9183105893472714
    Molecular point group: c1
  Basis Set: 6-31G*
  Basis Set:
  Basis Set: 6-31G*
  Basis Set:
  @DF-RHF Final Energy:  -228.92011091767202
    Total Energy =                       -228.9201109176720195
  Basis Set: 6-31G*
  Basis Set:
  Basis Set: 6-31G*
  Basis Set:
  @DF-RHF Final Energy:  -228.92052568919303
    Total Energy =                       -228.9205256891928570
  Basis Set: 6-31G*
  Basis Set:
  Basis Set: 6-31G*
  Basis Set:
  @DF-RHF Final Energy:  -228.92056903142893
    Total Energy =                       -228.9205690314290678
  Basis Set: 6-31G*
  Basis Set:
  Basis Set: 6-31G*
  Basis Set:
  @DF-RHF Final Energy:  -228.92058224018933
    Total Energy =                       -228.9205822401893329
  Basis Set: 6-31G*
  Basis Set:
  Basis Set: 6-31G*
  Basis Set:
  @DF-RHF Final Energy:  -228.92058692187865
    Total Energy =                       -228.9205869218786233
  Basis Set: 6-31G*
  Basis Set:
  Charge       = 0
  Multiplicity = 1
  Basis Set: 6-31G*
  Basis Set:

    Orbital Energies (a.u.)
    -----------------------

    Doubly Occupied:

       1A    -20.575827     2A    -20.541713     3A    -11.280555
       4A    -11.268468     5A     -1.388878     6A     -1.346302
       7A     -1.000301     8A     -0.845063     9A     -0.731128
      10A     -0.678986    11A     -0.654200    12A     -0.594615
      13A     -0.578748    14A     -0.538037    15A     -0.486937
      16A     -0.456728    17A     -0.422861

  @DF-RHF Final Energy:  -228.92058637001119

   => Energetics <=

    Nuclear Repulsion Energy =            135.0329710801377985
    One-Electron Energy =                -581.1284218254248799
    Two-Electron Energy =                 217.1748643752758881
    DFT Exchange-Correlation Energy =       0.0000000000000000
    Empirical Dispersion Energy =           0.0000000000000000
    PCM Polarization Energy =               0.0000000000000000
    EFP Energy =                            0.0000000000000000
    Total Energy =                       -228.9205863700111649
    Molecular point group: c1
  Basis Set: 6-31G*
  Basis Set:

  -Total Gradient:
     Atom            X                  Y                   Z
    ------   -----------------  -----------------  -----------------
       1        0.000010099991    -0.000012658984     0.000007050584
       2       -0.000000019270     0.000088878235    -0.000025009957
       3       -0.001198124980    -0.010035489049    -0.003018984973
       4       -0.002683803267     0.006545686178    -0.006190226305
       5        0.001567322277     0.006942130435     0.003866774949
       6        0.000025745898     0.000002376880     0.000005063017
       7        0.002285291344    -0.003371705805     0.005230640755
       8        0.000028424619     0.000091191905     0.000106668931
       9       -0.000015348437    -0.000219428042    -0.000013854781
      10       -0.000019588174    -0.000030981752     0.000031877780

  **** Optimization is complete! (in 7 steps) ****
    Final optimized geometry and variables:
    Molecular point group: c1

    Geometry (in Angstrom), charge = 0, multiplicity = 1:

    H            2.052790152719    -0.708154644936    -0.670395659914
    O            1.200031281315    -0.674470952679    -0.261847696318
    C            0.762476080816     0.653313986112    -0.155511931406
    C           -0.649808034635     0.642774211601     0.436304572589
    H            0.784570491995     1.178663942934    -1.107172278053
    H            1.412902039166     1.215222667261     0.512512201710
    O           -1.390648462901    -0.465437625701     0.026570527549
    H           -1.184320203061     1.535246852583     0.137778260411
    H           -0.575002981925     0.650382648639     1.522129382740
    H           -0.807225623652    -1.212485245440    -0.004182376320

  Mulliken Charges: (a.u.)
   Center  Symbol    Alpha    Beta     Spin     Total
       1     H     0.27386  0.27386  0.00000  0.45228
       2     O     4.37894  4.37894  0.00000 -0.75788
       3     C     3.01316  3.01316  0.00000 -0.02632
       4     C     2.99415  2.99415  0.00000  0.01170
       5     H     0.42443  0.42443  0.00000  0.15114
       6     H     0.42787  0.42787  0.00000  0.14426
       7     O     4.37643  4.37643  0.00000 -0.75285
       8     H     0.41759  0.41759  0.00000  0.16482
       9     H     0.42764  0.42764  0.00000  0.14472
      10     H     0.26593  0.26593  0.00000  0.46815

   Total alpha = 17.00000, Total beta = 17.00000, Total charge = -0.00000
