                              Psi4 1.0.54 Driver

  ==> Input File <==

--------------------------------------------------------------------------
set {
	reference rhf
	basis cc-pvtz
}

set_num_threads( 4 )
memory 2 gb

molecule MOL {
0 1

H	 -2.498963	 -0.741158	 -0.729149
O	 -2.346257	 -0.289210	 0.080372
C	 -1.183935	 0.486039	 -0.009831
C	 0.062853	 -0.375310	 0.027457
H	 -1.178881	 1.094526	 -0.908634
H	 -1.184406	 1.155156	 0.838676
O	 1.172093	 0.457955	 -0.054438
H	 0.052476	 -1.081302	 -0.804627
H	 0.076323	 -0.955658	 0.947560
C	 1.616189	 0.705942	 -1.347691
H	 0.848889	 1.193955	 -1.944657
H	 2.474534	 1.358489	 -1.283573
H	 1.910411	 -0.212716	 -1.849709

	symmetry c1
}
set optking {
	frozen_dihedral = ("
		10 7 4 8
	")
}

ee,wfn = optimize('scf', return_wfn=True)
oeprop( wfn, 'DIPOLE', 'QUADRUPOLE', 'MULLIKEN_CHARGES')
f=open( 'psi4out.xyz', 'w' )
f.write( "13  " )
f.write( str(ee) + "\n" )
f.write( MOL.save_string_xyz() )
f.close()
--------------------------------------------------------------------------

    Molecular point group: c1
  Charge       = 0
  Multiplicity = 1
  Basis Set: CC-PVTZ
  Basis Set:
  @DF-RHF Final Energy:  -268.05769934080797
    Total Energy =                       -268.0576993408079716
    Molecular point group: c1
  Basis Set: CC-PVTZ
  Basis Set:
  Basis Set: CC-PVTZ
  Basis Set:
  @DF-RHF Final Energy:  -268.05145276706025
    Total Energy =                       -268.0514527670601410
  Basis Set: CC-PVTZ
  Basis Set:
  Basis Set: CC-PVTZ
  Basis Set:
  @DF-RHF Final Energy:  -268.05881977051433
    Total Energy =                       -268.0588197705142193
  Basis Set: CC-PVTZ
  Basis Set:
  Basis Set: CC-PVTZ
  Basis Set:
  @DF-RHF Final Energy:  -268.05895859209750
    Total Energy =                       -268.0589585920974969
  Basis Set: CC-PVTZ
  Basis Set:
  Basis Set: CC-PVTZ
  Basis Set:
  @DF-RHF Final Energy:  -268.05896239087622
    Total Energy =                       -268.0589623908763315
  Basis Set: CC-PVTZ
  Basis Set:
  Charge       = 0
  Multiplicity = 1
  Basis Set: CC-PVTZ
  Basis Set:

    Orbital Energies (a.u.)
    -----------------------

    Doubly Occupied:

       1A    -20.554759     2A    -20.554530     3A    -11.269681
       4A    -11.269346     5A    -11.268592     6A     -1.389090
       7A     -1.370225     8A     -1.016226     9A     -0.925464
      10A     -0.839533    11A     -0.712897    12A     -0.672241
      13A     -0.664292    14A     -0.640905    15A     -0.596274
      16A     -0.577819    17A     -0.542084    18A     -0.492987
      19A     -0.481997    20A     -0.465585    21A     -0.408278

  @DF-RHF Final Energy:  -268.05896277493582

   => Energetics <=

    Nuclear Repulsion Energy =            191.8231926600997213
    One-Electron Energy =                -746.3386958892269831
    Two-Electron Energy =                 286.4565404541914404
    DFT Exchange-Correlation Energy =       0.0000000000000000
    Empirical Dispersion Energy =           0.0000000000000000
    PCM Polarization Energy =               0.0000000000000000
    EFP Energy =                            0.0000000000000000
    Total Energy =                       -268.0589627749358215
    Molecular point group: c1
  Basis Set: CC-PVTZ
  Basis Set:

  -Total Gradient:
     Atom            X                  Y                   Z
    ------   -----------------  -----------------  -----------------
       1       -0.000010822789     0.000019128884     0.000002073079
       2       -0.000000115193    -0.000025939114    -0.000007531710
       3        0.000000570103    -0.000015734366     0.000009537127
       4        0.000225136081    -0.000318663527     0.000363284293
       5       -0.000000637119     0.000002224457     0.000000316040
       6        0.000005234912     0.000007011366    -0.000007662550
       7       -0.000220713857     0.000338447677    -0.000190516177
       8       -0.000118820586     0.000187278263    -0.000240903347
       9       -0.000018371139     0.000006177384    -0.000007275664
      10        0.000147227551    -0.000201379407     0.000076658196
      11       -0.000005280113    -0.000002362361     0.000002065752
      12        0.000003546294     0.000000525687    -0.000005420693
      13       -0.000006954144     0.000003285055     0.000005375655

  **** Optimization is complete! (in 6 steps) ****
    Final optimized geometry and variables:
    Molecular point group: c1

    Geometry (in Angstrom), charge = 0, multiplicity = 1:

    H           -2.322909566964    -1.019043755616    -0.481761691079
    O           -2.252813455419    -0.393001992734     0.215558910474
    C           -1.080201826384     0.359976196277     0.077158502522
    C            0.154643568991    -0.468464737941     0.397279640492
    H           -1.004936479597     0.787743002756    -0.918694709020
    H           -1.148811277753     1.179684466668     0.778006032807
    O            1.320075692339     0.293297746592     0.314725976985
    H            0.207651036501    -1.329797447814    -0.267818499698
    H            0.074374831822    -0.842828623342     1.409200187874
    C            1.975442448586     0.274374245753    -0.912670564023
    H            1.346552339537     0.638700140730    -1.720702460438
    H            2.837180469945     0.920788263177    -0.832530237298
    H            2.313332615450    -0.728039966360    -1.163746244800

  Mulliken Charges: (a.u.)
   Center  Symbol    Alpha    Beta     Spin     Total
       1     H     0.39438  0.39438  0.00000  0.21124
       2     O     4.20239  4.20239  0.00000 -0.40479
       3     C     2.97021  2.97021  0.00000  0.05957
       4     C     2.98295  2.98295  0.00000  0.03410
       5     H     0.47124  0.47124  0.00000  0.05751
       6     H     0.45286  0.45286  0.00000  0.09428
       7     O     4.18014  4.18014  0.00000 -0.36028
       8     H     0.47978  0.47978  0.00000  0.04045
       9     H     0.44677  0.44677  0.00000  0.10646
      10     C     3.03153  3.03153  0.00000 -0.06305
      11     H     0.47359  0.47359  0.00000  0.05282
      12     H     0.44577  0.44577  0.00000  0.10846
      13     H     0.46838  0.46838  0.00000  0.06324

   Total alpha = 21.00000, Total beta = 21.00000, Total charge = -0.00000

*** Psi4 exiting successfully. Buy a developer a beer!
