  ==> Input File <==

--------------------------------------------------------------------------
set {
	reference rhf
	basis 6-31G*
}

set_num_threads( 1 )
memory 2 gb

molecule MOL {
0 1

O	 3.225979	 0.970355	 -0.599647
C	 2.701189	 0.057885	 -0.047330
C	 1.245376	 -0.013843	 0.345420
O	 3.347903	 -1.046386	 0.304773
C	 1.033027	 -0.513854	 1.772659
H	 0.825844	 0.975261	 0.194235
H	 0.748302	 -0.660173	 -0.373520
C	 -0.441224	 -0.692161	 2.151192
H	 1.510954	 0.170462	 2.467220
H	 1.546222	 -1.462582	 1.886539
C	 -1.252387	 0.605124	 2.215824
H	 -0.482949	 -1.176735	 3.123905
H	 -0.914597	 -1.379528	 1.451582
C	 -2.686031	 0.386702	 2.703632
H	 -0.750326	 1.308250	 2.878671
H	 -1.282916	 1.077118	 1.236405
C	 -3.507621	 1.675529	 2.767234
H	 -2.664228	 -0.073589	 3.689984
H	 -3.185257	 -0.324541	 2.047426
C	 -4.936864	 1.449283	 3.258945
H	 -3.009651	 2.387746	 3.421768
H	 -3.534215	 2.134815	 1.781267
H	 -5.493630	 2.380656	 3.293039
H	 -4.944795	 1.022569	 4.257968
H	 -5.473106	 0.767208	 2.605116
C	 4.728119	 -1.109107	 -0.004993
H	 4.882018	 -1.033965	 -1.071845
H	 5.068212	 -2.067527	 0.355250
H	 5.265056	 -0.311663	 0.488280

	symmetry c1
}
set optking {
	frozen_dihedral = ("
		21 17 14 11,
		17 14 11 15,
		15 11 8 5,
		6 3 5 9,
		11 8 5 9,
		2 4 26 27,
		1 2 4 26
	")
}

ee = energy('scf')
oeprop('DIPOLE', 'QUADRUPOLE', 'MULLIKEN_CHARGES')
f=open( 'psi4out.xyz', 'w' )
f.write( "29  " )
f.write( str(ee) + "\n" )
f.write( MOL.save_string_xyz() )
f.close()
--------------------------------------------------------------------------

    Molecular point group: c1

    Geometry (in Angstrom), charge = 0, multiplicity = 1:

       Center              X                  Y                   Z               Mass
    ------------   -----------------  -----------------  -----------------  -----------------
           O          2.873298577185     0.814195640924    -1.935452081391    15.994914619560
           C          2.348508577185    -0.098274359076    -1.383135081391    12.000000000000
           C          0.892695577185    -0.170002359076    -0.990385081391    12.000000000000
           O          2.995222577185    -1.202545359076    -1.031032081391    15.994914619560
           C          0.680346577185    -0.670013359076     0.436853918609    12.000000000000
           H          0.473163577185     0.819101640924    -1.141570081391     1.007825032070
           H          0.395621577185    -0.816332359076    -1.709325081391     1.007825032070
           C         -0.793904422815    -0.848320359076     0.815386918609    12.000000000000
           H          1.158273577185     0.014302640924     1.131414918609     1.007825032070
           H          1.193541577185    -1.618741359076     0.550733918609     1.007825032070
           C         -1.605067422815     0.448964640924     0.880018918609    12.000000000000
           H         -0.835629422815    -1.332894359076     1.788099918609     1.007825032070
           H         -1.267277422815    -1.535687359076     0.115776918609     1.007825032070
           C         -3.038711422815     0.230542640924     1.367826918609    12.000000000000
           H         -1.103006422815     1.152090640924     1.542865918609     1.007825032070
           H         -1.635596422815     0.920958640924    -0.099400081391     1.007825032070
           C         -3.860301422815     1.519369640924     1.431428918609    12.000000000000
           H         -3.016908422815    -0.229748359076     2.354178918609     1.007825032070
           H         -3.537937422815    -0.480700359076     0.711620918609     1.007825032070
           C         -5.289544422815     1.293123640924     1.923139918609    12.000000000000
           H         -3.362331422815     2.231586640924     2.085962918609     1.007825032070
           H         -3.886895422815     1.978655640924     0.445461918609     1.007825032070
           H         -5.846310422815     2.224496640924     1.957233918609     1.007825032070
           H         -5.297475422815     0.866409640924     2.922162918609     1.007825032070
           H         -5.825786422815     0.611048640924     1.269310918609     1.007825032070
           C          4.375438577185    -1.265266359076    -1.340798081391    12.000000000000
           H          4.529337577185    -1.190124359076    -2.407650081391     1.007825032070
           H          4.715531577185    -2.223686359076    -0.980555081391     1.007825032070
           H          4.912375577185    -0.467822359076    -0.847525081391     1.007825032070

  Charge       = 0
  Multiplicity = 1
  Basis Set: 6-31G*
  Basis Set:

    Orbital Energies (a.u.)
    -----------------------

    Doubly Occupied:

       1A    -20.604241     2A    -20.543953     3A    -11.371409
       4A    -11.280976     5A    -11.233598     6A    -11.224664
       7A    -11.220336     8A    -11.216799     9A    -11.216081
      10A    -11.215117    11A    -11.209211    12A     -1.469263
      13A     -1.361734    14A     -1.100723    15A     -1.068856
      16A     -1.019460    17A     -0.973331    18A     -0.931202
      19A     -0.864656    20A     -0.799838    21A     -0.790852
      22A     -0.773118    23A     -0.698249    24A     -0.679819
      25A     -0.672785    26A     -0.651768    27A     -0.626229
      28A     -0.604095    29A     -0.594166    30A     -0.578872
      31A     -0.561582    32A     -0.554924    33A     -0.537788
      34A     -0.530626    35A     -0.519943    36A     -0.514069
      37A     -0.496891    38A     -0.481398    39A     -0.472665
      40A     -0.464315    41A     -0.462888    42A     -0.455742
      43A     -0.443085    44A     -0.426467

  @DF-RHF Final Energy:  -501.04196755715429

   => Energetics <=

    Nuclear Repulsion Energy =            612.9162087093254740
    One-Electron Energy =               -1896.8807156415109603
    Two-Electron Energy =                 782.9225393750317608
    DFT Exchange-Correlation Energy =       0.0000000000000000
    Empirical Dispersion Energy =           0.0000000000000000
    PCM Polarization Energy =               0.0000000000000000
    EFP Energy =                            0.0000000000000000
    Total Energy =                       -501.0419675571537255

  Mulliken Charges: (a.u.)
   Center  Symbol    Alpha    Beta     Spin     Total
       1     O     4.28650  4.28650  0.00000 -0.57299
       2     C     2.60973  2.60973  0.00000  0.78054
       3     C     3.20566  3.20566  0.00000 -0.41133
       4     O     4.30241  4.30241  0.00000 -0.60481
       5     C     3.16315  3.16315  0.00000 -0.32630
       6     H     0.39677  0.39677  0.00000  0.20646
       7     H     0.40336  0.40336  0.00000  0.19329
       8     C     3.15582  3.15582  0.00000 -0.31163
       9     H     0.41714  0.41714  0.00000  0.16572
      10     H     0.40298  0.40298  0.00000  0.19404
      11     C     3.15506  3.15506  0.00000 -0.31011
      12     H     0.41883  0.41883  0.00000  0.16233
      13     H     0.42241  0.42241  0.00000  0.15517
      14     C     3.15052  3.15052  0.00000 -0.30103
      15     H     0.42251  0.42251  0.00000  0.15497
      16     H     0.42177  0.42177  0.00000  0.15646
      17     C     3.15155  3.15155  0.00000 -0.30311
      18     H     0.42377  0.42377  0.00000  0.15247
      19     H     0.42394  0.42394  0.00000  0.15212
      20     C     3.23939  3.23939  0.00000 -0.47878
      21     H     0.42265  0.42265  0.00000  0.15471
      22     H     0.42273  0.42273  0.00000  0.15455
      23     H     0.41896  0.41896  0.00000  0.16208
      24     H     0.42179  0.42179  0.00000  0.15643
      25     H     0.42180  0.42180  0.00000  0.15639
      26     C     3.09223  3.09223  0.00000 -0.18447
      27     H     0.40886  0.40886  0.00000  0.18229
      28     H     0.40894  0.40894  0.00000  0.18211
      29     H     0.40878  0.40878  0.00000  0.18245

   Total alpha = 44.00000, Total beta = 44.00000, Total charge = -0.00000
