                              Psi4 1.0.54 Driver

  ==> Input File <==

--------------------------------------------------------------------------
set {
	reference rhf
	basis cc-pvtz
}

set_num_threads( 4 )
memory 2 gb

molecule MOL {
0 1

O	 0.556314	 1.252433	 -0.706887
C	 0.449281	 0.121213	 -0.374120
C	 1.576390	 -0.879048	 -0.319671
O	 -0.695554	 -0.422406	 0.000602
C	 2.917914	 -0.301845	 -0.741717
H	 1.292267	 -1.717094	 -0.946490
H	 1.613755	 -1.265675	 0.692781
H	 2.880677	 0.067574	 -1.757769
H	 3.685691	 -1.063659	 -0.682500
H	 3.205104	 0.523114	 -0.103602
C	 -1.852370	 0.402254	 0.000718
C	 -3.063338	 -0.501097	 -0.000437
H	 -1.831732	 1.039442	 -0.872158
H	 -1.832493	 1.038301	 0.874430
H	 -3.071944	 -1.133732	 -0.879113
H	 -3.966302	 0.097976	 -0.000483
H	 -3.072764	 -1.134834	 0.877435

	symmetry c1
}
set optking {
	frozen_dihedral = ("
		2 4 11 13
	")
}

ee,wfn = optimize('scf', return_wfn=True)
oeprop( wfn, 'DIPOLE', 'QUADRUPOLE', 'MULLIKEN_CHARGES')
f=open( 'psi4out.xyz', 'w' )
f.write( "17  " )
f.write( str(ee) + "\n" )
f.write( MOL.save_string_xyz() )
f.close()
--------------------------------------------------------------------------

    Molecular point group: c1
  Charge       = 0
  Multiplicity = 1
  Basis Set: CC-PVTZ
  Basis Set:
  @DF-RHF Final Energy:  -345.04002423840717
    Total Energy =                       -345.0400242384074545
    Molecular point group: c1
  Basis Set: CC-PVTZ
  Basis Set:
  Basis Set: CC-PVTZ
  Basis Set:
  @DF-RHF Final Energy:  -345.04006701427971
    Total Energy =                       -345.0400670142798845
  Basis Set: CC-PVTZ
  Basis Set:
  Basis Set: CC-PVTZ
  Basis Set:
  @DF-RHF Final Energy:  -345.03990884491407
    Total Energy =                       -345.0399088449142369
  Basis Set: CC-PVTZ
  Basis Set:
  Basis Set: CC-PVTZ
  Basis Set:
  @DF-RHF Final Energy:  -345.04010972129271
    Total Energy =                       -345.0401097212935042
  Basis Set: CC-PVTZ
  Basis Set:
  Basis Set: CC-PVTZ
  Basis Set:
  @DF-RHF Final Energy:  -345.04011956366412
    Total Energy =                       -345.0401195636642342
  Basis Set: CC-PVTZ
  Basis Set:
  Charge       = 0
  Multiplicity = 1
  Basis Set: CC-PVTZ
  Basis Set:

    Orbital Energies (a.u.)
    -----------------------

    Doubly Occupied:

       1A    -20.593208     2A    -20.532739     3A    -11.363805
       4A    -11.282279     5A    -11.235713     6A    -11.220515
       7A    -11.213687     8A     -1.469840     9A     -1.365019
      10A     -1.070812    11A     -1.032486    12A     -0.912243
      13A     -0.848087    14A     -0.774444    15A     -0.699586
      16A     -0.690497    17A     -0.667238    18A     -0.629968
      19A     -0.585859    20A     -0.573322    21A     -0.558475
      22A     -0.526224    23A     -0.520338    24A     -0.515261
      25A     -0.504397    26A     -0.493912    27A     -0.455147
      28A     -0.439025

  @DF-RHF Final Energy:  -345.04011966462366

   => Energetics <=

    Nuclear Repulsion Energy =            315.1941330963940686
    One-Electron Energy =               -1094.9202548843254590
    Two-Electron Energy =                 434.6860021233082421
    DFT Exchange-Correlation Energy =       0.0000000000000000
    Empirical Dispersion Energy =           0.0000000000000000
    PCM Polarization Energy =               0.0000000000000000
    EFP Energy =                            0.0000000000000000
    Total Energy =                       -345.0401196646230915
    Molecular point group: c1
  Basis Set: CC-PVTZ
  Basis Set:

  -Total Gradient:
     Atom            X                  Y                   Z
    ------   -----------------  -----------------  -----------------
       1        0.000037753325     0.000005844918    -0.000008296039
       2       -0.000230139761    -0.000320785347    -0.001233528146
       3       -0.000022944709    -0.000004475411    -0.000018908923
       4        0.000509704847     0.000685347500     0.001972277811
       5       -0.000002150989     0.000011147359     0.000005892005
       6       -0.000002406106     0.000004045067     0.000007713123
       7       -0.000002678192     0.000007033788     0.000009279388
       8        0.000001398757     0.000000743024    -0.000003994082
       9       -0.000004303750    -0.000000778906    -0.000000707594
      10       -0.000000436041    -0.000000097816    -0.000000946572
      11       -0.001001090319    -0.001435663252    -0.001494412742
      12        0.000007913228    -0.000003941049    -0.000003858789
      13        0.000715748003     0.001035990866     0.000780129476
      14       -0.000013911272     0.000009495801    -0.000003466682
      15        0.000000576847    -0.000002599442    -0.000002377287
      16        0.000004296331     0.000002952131    -0.000001360615
      17        0.000002669801     0.000005740771    -0.000003434334

  **** Optimization is complete! (in 6 steps) ****
    Final optimized geometry and variables:
    Molecular point group: c1

    Geometry (in Angstrom), charge = 0, multiplicity = 1:

    O            0.611409743336     1.301487463128    -0.372107101439
    C            0.483149752377     0.166185258208    -0.061743636409
    C            1.594178516728    -0.852736319756    -0.021052091715
    O           -0.670367641983    -0.368611813143     0.299618348092
    C            2.947079587775    -0.288761471042    -0.424229274639
    H            1.300664110717    -1.674108566542    -0.665289008023
    H            1.619484335128    -1.259072459783     0.984036179934
    H            2.921784308492     0.100745622282    -1.433123235339
    H            3.702386117113    -1.063672807009    -0.375482144115
    H            3.243376751307     0.519051284944     0.231392238842
    C           -1.830465207605     0.452121303334     0.285339215438
    C           -3.041837401563    -0.450378599827     0.299629257182
    H           -1.807190407111     1.088394375354    -0.585720039533
    H           -1.808914673341     1.093127283108     1.157436710713
    H           -3.062004943749    -1.081987970013    -0.579680128373
    H           -3.944375763794     0.149274771940     0.312000601117
    H           -3.040596324933    -1.085035904217     1.176818401603

  Mulliken Charges: (a.u.)
   Center  Symbol    Alpha    Beta     Spin     Total
       1     O     4.19745  4.19745  0.00000 -0.39491
       2     C     2.80724  2.80724  0.00000  0.38551
       3     C     3.09413  3.09413  0.00000 -0.18825
       4     O     4.15217  4.15217  0.00000 -0.30433
       5     C     3.13981  3.13981  0.00000 -0.27962
       6     H     0.44199  0.44199  0.00000  0.11602
       7     H     0.44133  0.44133  0.00000  0.11733
       8     H     0.44854  0.44854  0.00000  0.10292
       9     H     0.45060  0.45060  0.00000  0.09881
      10     H     0.44840  0.44840  0.00000  0.10320
      11     C     2.98254  2.98254  0.00000  0.03492
      12     C     3.13263  3.13263  0.00000 -0.26526
      13     H     0.44944  0.44944  0.00000  0.10111
      14     H     0.45633  0.45633  0.00000  0.08734
      15     H     0.45169  0.45169  0.00000  0.09663
      16     H     0.45446  0.45446  0.00000  0.09109
      17     H     0.45125  0.45125  0.00000  0.09750

   Total alpha = 28.00000, Total beta = 28.00000, Total charge = -0.00000

*** Psi4 exiting successfully. Buy a developer a beer!
