  ==> Input File <==

--------------------------------------------------------------------------
set {
	reference rhf
	basis cc-pvtz
}

set_num_threads( 4 )
memory 2 gb

molecule MOL {
0 1

H	 2.386617	 -0.137064	 -0.852832
O	 1.675515	 -0.612943	 -0.465627
C	 1.135873	 0.113391	 0.608264
C	 0.027642	 1.012027	 0.090274
H	 1.902972	 0.727968	 1.072615
H	 0.756163	 -0.561896	 1.370018
C	 -1.138737	 0.285728	 -0.581921
H	 0.464661	 1.708096	 -0.618252
H	 -0.340737	 1.603071	 0.925246
C	 -1.933983	 -0.631436	 0.343653
H	 -0.763151	 -0.285569	 -1.422081
H	 -1.808359	 1.035291	 -0.992333
H	 -2.789188	 -1.049673	 -0.174718
H	 -1.335629	 -1.461368	 0.700418
H	 -2.305435	 -0.092167	 1.209725

	symmetry c1
}
set optking {
	frozen_dihedral = ("
		1 2 3 4
	")
}

ee = optimize('scf')
oeprop('DIPOLE', 'QUADRUPOLE', 'MULLIKEN_CHARGES')
f=open( 'psi4out.xyz', 'w' )
f.write( "15  " )
f.write( str(ee) + "\n" )
f.write( MOL.save_string_xyz() )
f.close()
--------------------------------------------------------------------------

    Molecular point group: c1
  Charge       = 0
  Multiplicity = 1
  Basis Set: CC-PVTZ
  Basis Set:
  @DF-RHF Final Energy:  -232.23537735657175
    Total Energy =                       -232.2353773565718598
    Molecular point group: c1
  Basis Set: CC-PVTZ
  Basis Set:
  Basis Set: CC-PVTZ
  Basis Set:
  @DF-RHF Final Energy:  -232.23645571486975
    Total Energy =                       -232.2364557148698623
  Basis Set: CC-PVTZ
  Basis Set:
  Basis Set: CC-PVTZ
  Basis Set:
  @DF-RHF Final Energy:  -232.23664646097558
    Total Energy =                       -232.2366464609756918
  Basis Set: CC-PVTZ
  Basis Set:
  Basis Set: CC-PVTZ
  Basis Set:
  @DF-RHF Final Energy:  -232.23664252069281
    Total Energy =                       -232.2366425206928398
  Basis Set: CC-PVTZ
  Basis Set:
  Basis Set: CC-PVTZ
  Basis Set:
  @DF-RHF Final Energy:  -232.23664952272512
    Total Energy =                       -232.2366495227250880
  Basis Set: CC-PVTZ
  Basis Set:
  Charge       = 0
  Multiplicity = 1
  Basis Set: CC-PVTZ
  Basis Set:

    Orbital Energies (a.u.)
    -----------------------

    Doubly Occupied:

       1A    -20.546216     2A    -11.265584     3A    -11.212632
       4A    -11.209159     5A    -11.203221     6A     -1.363704
       7A     -1.066063     8A     -0.971015     9A     -0.873774
      10A     -0.784696    11A     -0.692538    12A     -0.641367
      13A     -0.624669    14A     -0.578564    15A     -0.563167
      16A     -0.536160    17A     -0.506897    18A     -0.487137
      19A     -0.469340    20A     -0.454000    21A     -0.428381

  @DF-RHF Final Energy:  -232.23664962374937

   => Energetics <=

    Nuclear Repulsion Energy =            191.5048719569002174
    One-Electron Energy =                -694.5264754825984710
    Two-Electron Energy =                 270.7849539019487679
    DFT Exchange-Correlation Energy =       0.0000000000000000
    Empirical Dispersion Energy =           0.0000000000000000
    PCM Polarization Energy =               0.0000000000000000
    EFP Energy =                            0.0000000000000000
    Total Energy =                       -232.2366496237494857
    Molecular point group: c1
  Basis Set: CC-PVTZ
  Basis Set:

  -Total Gradient:
     Atom            X                  Y                   Z
    ------   -----------------  -----------------  -----------------
       1        0.000948328466    -0.000614119021     0.000993937778
       2       -0.001442362349     0.000452383622    -0.001166688135
       3        0.001120240133     0.000846740745    -0.000021295720
       4       -0.000610986128    -0.000698281558     0.000181613565
       5       -0.000010660227     0.000012302381     0.000008331773
       6       -0.000007979526    -0.000000578353    -0.000003553685
       7       -0.000002295212     0.000010977504     0.000002172637
       8        0.000003735960    -0.000008255371     0.000004031218
       9       -0.000006221420     0.000004229325    -0.000000814540
      10        0.000002292119    -0.000003071589     0.000001186754
      11        0.000003078581     0.000002276696    -0.000000785896
      12        0.000001509808    -0.000000299529    -0.000000013869
      13        0.000000233988    -0.000003221110     0.000000287448
      14        0.000001658968    -0.000001774711     0.000004723103
      15       -0.000000573161     0.000000690968    -0.000003132431

  **** Optimization is complete! (in 6 steps) ****
    Final optimized geometry and variables:
    Molecular point group: c1

    Geometry (in Angstrom), charge = 0, multiplicity = 1:

    H            2.412026441604    -0.199434699480    -0.837704572032
    O            1.700339068704    -0.660412489590    -0.435124790444
    C            1.138001077797     0.115525634350     0.593325941655
    C            0.011020073077     1.012711284648     0.101051679798
    H            1.900596608004     0.720047650700     1.075561551203
    H            0.771565124382    -0.579420172081     1.337120172887
    C           -1.149196267937     0.279734333582    -0.573853670071
    H            0.425397644164     1.734163277354    -0.598839177255
    H           -0.359530866506     1.584841430372     0.949073286344
    C           -1.939914203214    -0.641580072765     0.351620881695
    H           -0.766838064832    -0.291675573840    -1.411340025062
    H           -1.823494360716     1.022820920519    -0.988273479284
    H           -2.787311207087    -1.071249529425    -0.170056699172
    H           -1.335228876594    -1.463014698549     0.716451011631
    H           -2.322486200797    -0.101141628995     1.212006476032

  Mulliken Charges: (a.u.)
   Center  Symbol    Alpha    Beta     Spin     Total
       1     H     0.39394  0.39394  0.00000  0.21213
       2     O     4.20471  4.20471  0.00000 -0.40942
       3     C     2.98325  2.98325  0.00000  0.03351
       4     C     3.09539  3.09539  0.00000 -0.19078
       5     H     0.45887  0.45887  0.00000  0.08226
       6     H     0.45830  0.45830  0.00000  0.08341
       7     C     3.08417  3.08417  0.00000 -0.16834
       8     H     0.45498  0.45498  0.00000  0.09005
       9     H     0.45648  0.45648  0.00000  0.08704
      10     C     3.15461  3.15461  0.00000 -0.30922
      11     H     0.44912  0.44912  0.00000  0.10176
      12     H     0.45081  0.45081  0.00000  0.09837
      13     H     0.44692  0.44692  0.00000  0.10616
      14     H     0.45143  0.45143  0.00000  0.09714
      15     H     0.45703  0.45703  0.00000  0.08593

   Total alpha = 21.00000, Total beta = 21.00000, Total charge =  0.00000
