  ==> Input File <==

--------------------------------------------------------------------------
set {
	reference rhf
	basis 6-31G*
}

set_num_threads( 4 )
memory 2 gb

molecule MOL {
0 1

H	 3.729471	 -0.928294	 -0.070608
O	 2.826016	 -1.159218	 0.122261
C	 2.077727	 -0.067559	 -0.035091
C	 0.624473	 -0.343591	 0.253101
O	 2.542965	 0.974826	 -0.363729
C	 -0.265902	 0.883932	 0.072916
H	 0.324016	 -1.163849	 -0.390541
H	 0.565024	 -0.726111	 1.268924
C	 -1.728698	 0.646073	 0.462102
H	 -0.209144	 1.219470	 -0.958188
H	 0.135059	 1.692851	 0.673903
C	 -2.482460	 -0.343073	 -0.431425
H	 -2.245265	 1.602650	 0.432430
H	 -1.779332	 0.308348	 1.496285
C	 -1.543021	 -1.229214	 -1.249156
H	 -3.121717	 -0.969386	 0.187547
H	 -3.142020	 0.191347	 -1.110215
H	 -2.099528	 -1.919831	 -1.874985
H	 -0.895957	 -1.815439	 -0.603031
H	 -0.908045	 -0.632858	 -1.898311

	symmetry c1
}
set optking {
	frozen_dihedral = ("
		16 12 9 6
	")
}

ee = optimize('scf')
oeprop('DIPOLE', 'QUADRUPOLE', 'MULLIKEN_CHARGES')
f=open( 'psi4out.xyz', 'w' )
f.write( "20  " )
f.write( str(ee) + "\n" )
f.write( MOL.save_string_xyz() )
f.close()
--------------------------------------------------------------------------

    Molecular point group: c1
  Charge       = 0
  Multiplicity = 1
  Basis Set: 6-31G*
  Basis Set:
  @DF-RHF Final Energy:  -383.91267334722016
    Total Energy =                       -383.9126733472203341
    Molecular point group: c1
  Basis Set: 6-31G*
  Basis Set:
  Basis Set: 6-31G*
  Basis Set:
  @DF-RHF Final Energy:  -383.93147808453125
    Total Energy =                       -383.9314780845311361
  Basis Set: 6-31G*
  Basis Set:
  Basis Set: 6-31G*
  Basis Set:
  @DF-RHF Final Energy:  -383.93585882799636
    Total Energy =                       -383.9358588279961850
  Basis Set: 6-31G*
  Basis Set:
  Basis Set: 6-31G*
  Basis Set:
  @DF-RHF Final Energy:  -383.93442050083348
    Total Energy =                       -383.9344205008334256
  Basis Set: 6-31G*
  Basis Set:
  @DF-RHF Final Energy:  -383.93739768826589
    Total Energy =                       -383.9373976882656052
  @DF-RHF Final Energy:  -383.93766846339491
    Total Energy =                       -383.9376684633948571
  Basis Set: 6-31G*
  Basis Set:
  @DF-RHF Final Energy:  -383.93769104531538
    Total Energy =                       -383.9376910453154323
  Basis Set: 6-31G*
  Basis Set:
  Basis Set: 6-31G*
  Basis Set:
  @DF-RHF Final Energy:  -383.93768955869336
    Total Energy =                       -383.9376895586934779
  Basis Set: 6-31G*
  Basis Set:
  Basis Set: 6-31G*
  Basis Set:
  @DF-RHF Final Energy:  -383.93769324724531
    Total Energy =                       -383.9376932472453063
  Basis Set: 6-31G*
  Basis Set:
  Charge       = 0
  Multiplicity = 1
  Basis Set: 6-31G*
  Basis Set:

    Orbital Energies (a.u.)
    -----------------------

    Doubly Occupied:

       1A    -20.612208     2A    -20.551276     3A    -11.380684
       4A    -11.239119     5A    -11.222839     6A    -11.221233
       7A    -11.220692     8A    -11.213457     9A     -1.474230
      10A     -1.365269    11A     -1.092281    12A     -1.036522
      13A     -0.962056    14A     -0.880935    15A     -0.808949
      16A     -0.770606    17A     -0.698948    18A     -0.687024
      19A     -0.666636    20A     -0.631196    21A     -0.617872
      22A     -0.587945    23A     -0.570187    24A     -0.557730
      25A     -0.534096    26A     -0.512344    27A     -0.509219
      28A     -0.478591    29A     -0.467998    30A     -0.456915
      31A     -0.455510    32A     -0.441190

  @DF-RHF Final Energy:  -383.93769343988265

   => Energetics <=

    Nuclear Repulsion Energy =            383.0003209541956721
    One-Electron Energy =               -1282.0245066178845263
    Two-Electron Energy =                 515.0864922238060899
    DFT Exchange-Correlation Energy =       0.0000000000000000
    Empirical Dispersion Energy =           0.0000000000000000
    PCM Polarization Energy =               0.0000000000000000
    EFP Energy =                            0.0000000000000000
    Total Energy =                       -383.9376934398827643
    Molecular point group: c1
  Basis Set: 6-31G*
  Basis Set:

  -Total Gradient:
     Atom            X                  Y                   Z
    ------   -----------------  -----------------  -----------------
       1       -0.000003642792     0.000004641711    -0.000000523057
       2       -0.000011844669    -0.000009464453    -0.000001388242
       3        0.000011880842    -0.000006967175    -0.000002986749
       4        0.000006376463    -0.000016518750    -0.000009853194
       5       -0.000016960598    -0.000000983996     0.000009134814
       6        0.000965669338    -0.002692169386     0.001671454856
       7        0.000007559564     0.000008538132     0.000007635416
       8       -0.000000713188    -0.000001956943     0.000010169261
       9       -0.000756062689     0.003305582513    -0.002507199707
      10       -0.000013802641     0.000003132618    -0.000001985176
      11       -0.000004728192     0.000010128723    -0.000001143028
      12       -0.003304270363     0.002414748373     0.000919226049
      13       -0.000002763618    -0.000003061102    -0.000005664576
      14        0.000006870336     0.000001320793     0.000000224402
      15        0.000005748042     0.000002726741    -0.000000209951
      16        0.003094734997    -0.003031331972    -0.000090564176
      17       -0.000000091021     0.000001927415     0.000000663018
      18       -0.000001345139     0.000002438945     0.000006921637
      19        0.000006327305     0.000007795531    -0.000002089698
      20        0.000011058013    -0.000000527717    -0.000001821899

  **** Optimization is complete! (in 10 steps) ****
    Final optimized geometry and variables:
    Molecular point group: c1

    Geometry (in Angstrom), charge = 0, multiplicity = 1:

    H            3.569641560906    -0.635503501517     0.279182080415
    O            2.686381224247    -0.890842298005     0.526980823844
    C            1.859282488457     0.096664634342     0.184404457999
    C            0.431425324075    -0.224621137358     0.544548764157
    O            2.245761298287     1.090868225027    -0.338473970823
    C           -0.544946443822     0.885782280544     0.160857024550
    H            0.191477763137    -1.171846949049     0.077377538745
    H            0.405594363904    -0.408315977981     1.615541982741
    C           -1.998550267264     0.627324755782     0.592134953574
    H           -0.482095385825     1.077366900234    -0.904438663257
    H           -0.207575881357     1.799058136227     0.639067225623
    C           -2.901474123328    -0.263446733002    -0.305903441262
    H           -2.488922167528     1.589819171702     0.696325514648
    H           -1.976778849828     0.207935380415     1.595608485037
    C           -2.221434745691    -1.189377297059    -1.320603083433
    H           -3.502932672308    -0.896575480944     0.339662139254
    H           -3.592356218622     0.374334294983    -0.848506611866
    H           -2.976833149564    -1.684891545165    -1.922638374871
    H           -1.640019312698    -1.967186900963    -0.837236480935
    H           -1.568368676649    -0.652973412773    -2.000418464928

  Mulliken Charges: (a.u.)
   Center  Symbol    Alpha    Beta     Spin     Total
       1     H     0.26793  0.26793  0.00000  0.46413
       2     O     4.35163  4.35163  0.00000 -0.70326
       3     C     2.62285  2.62285  0.00000  0.75429
       4     C     3.21234  3.21234  0.00000 -0.42468
       5     O     4.27952  4.27952  0.00000 -0.55903
       6     C     3.15805  3.15805  0.00000 -0.31609
       7     H     0.39513  0.39513  0.00000  0.20975
       8     H     0.39918  0.39918  0.00000  0.20163
       9     C     3.16130  3.16130  0.00000 -0.32260
      10     H     0.40942  0.40942  0.00000  0.18115
      11     H     0.40881  0.40881  0.00000  0.18238
      12     C     3.15429  3.15429  0.00000 -0.30858
      13     H     0.41497  0.41497  0.00000  0.17006
      14     H     0.42270  0.42270  0.00000  0.15460
      15     C     3.24495  3.24495  0.00000 -0.48991
      16     H     0.41946  0.41946  0.00000  0.16108
      17     H     0.41888  0.41888  0.00000  0.16225
      18     H     0.41721  0.41721  0.00000  0.16558
      19     H     0.42256  0.42256  0.00000  0.15489
      20     H     0.41883  0.41883  0.00000  0.16235

   Total alpha = 32.00000, Total beta = 32.00000, Total charge = -0.00000
