                              Psi4 1.0.54 Driver

  ==> Input File <==

--------------------------------------------------------------------------
set {
	reference rhf
	basis cc-pvtz
}

set_num_threads( 4 )
memory 2 gb

molecule MOL {
0 1

H	 2.646891	 0.758096	 0.000000
O	 2.258341	 -0.097746	 -0.000000
C	 0.911345	 -0.015918	 -0.000000
C	 0.197580	 -1.203075	 -0.000000
C	 0.243124	 1.194000	 -0.000000
H	 0.732611	 -2.132183	 -0.000000
C	 -1.180055	 -1.168490	 -0.000000
H	 0.796918	 2.115392	 -0.000000
C	 -1.140378	 1.213545	 -0.000000
H	 -1.727975	 -2.091628	 -0.000000
C	 -1.860946	 0.037657	 -0.000000
H	 -1.651431	 2.157553	 -0.000000
H	 -2.933111	 0.056570	 -0.000000

	symmetry c1
}
ee,wfn = energy('scf', return_wfn=True)
oeprop( wfn, 'DIPOLE', 'QUADRUPOLE', 'MULLIKEN_CHARGES')
oeprop( wfn, 'GRID_ESP')
f=open( 'psi4out.xyz', 'w' )
f.write( "13  " )
f.write( str(ee) + "\n" )
f.write( MOL.save_string_xyz() )
f.close()
--------------------------------------------------------------------------

    Molecular point group: c1

    Geometry (in Angstrom), charge = 0, multiplicity = 1:

       Center              X                  Y                   Z               Mass
    ------------   -----------------  -----------------  -----------------  -----------------
           H          2.646708108589     0.758098676060     0.000000000000     1.007825032070
           O          2.258158108589    -0.097743323940     0.000000000000    15.994914619560
           C          0.911162108589    -0.015915323940     0.000000000000    12.000000000000
           C          0.197397108589    -1.203072323940     0.000000000000    12.000000000000
           C          0.242941108589     1.194002676060     0.000000000000    12.000000000000
           H          0.732428108589    -2.132180323940     0.000000000000     1.007825032070
           C         -1.180237891411    -1.168487323940     0.000000000000    12.000000000000
           H          0.796735108589     2.115394676060     0.000000000000     1.007825032070
           C         -1.140560891411     1.213547676060     0.000000000000    12.000000000000
           H         -1.728157891411    -2.091625323940     0.000000000000     1.007825032070
           C         -1.861128891411     0.037659676060     0.000000000000    12.000000000000
           H         -1.651613891411     2.157555676060     0.000000000000     1.007825032070
           H         -2.933293891411     0.056572676060     0.000000000000     1.007825032070

  Charge       = 0
  Multiplicity = 1
  Basis Set: CC-PVTZ
  Basis Set:

    Orbital Energies (a.u.)
    -----------------------

    Doubly Occupied:

       1A    -20.585088     2A    -11.297750     3A    -11.235233
       4A    -11.233438     5A    -11.226162     6A    -11.220572
       7A    -11.219384     8A     -1.415748     9A     -1.152663
      10A     -1.022843    11A     -1.008406    12A     -0.851567
      13A     -0.826708    14A     -0.741615    15A     -0.688383
      16A     -0.654919    17A     -0.612268    18A     -0.595489
      19A     -0.592289    20A     -0.568783    21A     -0.517582
      22A     -0.492813    23A     -0.485761    24A     -0.343274
      25A     -0.314624

  @DF-RHF Final Energy:  -305.67055850044881

   => Energetics <=

    Nuclear Repulsion Energy =            273.8411305241081664
    One-Electron Energy =                -957.2162527176388949
    Two-Electron Energy =                 377.7045636930817523
    DFT Exchange-Correlation Energy =       0.0000000000000000
    Empirical Dispersion Energy =           0.0000000000000000
    PCM Polarization Energy =               0.0000000000000000
    EFP Energy =                            0.0000000000000000
    Total Energy =                       -305.6705585004489762

  Mulliken Charges: (a.u.)
   Center  Symbol    Alpha    Beta     Spin     Total
       1     H     0.38746  0.38746  0.00000  0.22507
       2     O     4.17478  4.17478  0.00000 -0.34955
       3     C     2.84886  2.84886  0.00000  0.30229
       4     C     3.11107  3.11107  0.00000 -0.22215
       5     C     3.13452  3.13452  0.00000 -0.26904
       6     H     0.41953  0.41953  0.00000  0.16094
       7     C     3.05643  3.05643  0.00000 -0.11287
       8     H     0.43513  0.43513  0.00000  0.12973
       9     C     3.06469  3.06469  0.00000 -0.12937
      10     H     0.42243  0.42243  0.00000  0.15515
      11     C     3.09879  3.09879  0.00000 -0.19758
      12     H     0.42238  0.42238  0.00000  0.15525
      13     H     0.42393  0.42393  0.00000  0.15214

   Total alpha = 25.00000, Total beta = 25.00000, Total charge = -0.00000

*** Psi4 exiting successfully. Buy a developer a beer!
