  ==> Input File <==

--------------------------------------------------------------------------
set {
	reference rhf
	basis cc-pvtz
}

set_num_threads( 4 )
memory 2 gb

molecule MOL {
0 1

O	 -1.510770	 1.240811	 -0.054933
C	 -1.081510	 0.147522	 0.122720
C	 0.327029	 -0.064006	 0.641890
C	 -1.903028	 -1.084121	 -0.174656
C	 1.349460	 -0.017068	 -0.500215
H	 0.399029	 -1.014606	 1.159950
H	 0.538021	 0.726928	 1.350471
C	 0.885656	 0.855234	 -1.661129
H	 2.299082	 0.355540	 -0.127097
H	 1.526978	 -1.028091	 -0.847558
H	 1.619921	 0.862000	 -2.457897
H	 0.730021	 1.881097	 -1.344692
H	 -0.048448	 0.490177	 -2.073505
H	 -1.341891	 -1.779207	 -0.789259
H	 -2.820449	 -0.808163	 -0.671328
H	 -2.133314	 -1.593056	 0.755831

	symmetry c1
}
set optking {
	frozen_dihedral = ("
		9 5 3 2
	")
}

ee = optimize('scf')
oeprop('DIPOLE', 'QUADRUPOLE', 'MULLIKEN_CHARGES')
f=open( 'psi4out.xyz', 'w' )
f.write( "16  " )
f.write( str(ee) + "\n" )
f.write( MOL.save_string_xyz() )
f.close()
--------------------------------------------------------------------------

    Molecular point group: c1
  Charge       = 0
  Multiplicity = 1
  Basis Set: CC-PVTZ
  Basis Set:
  @DF-RHF Final Energy:  -270.12076505870556
    Total Energy =                       -270.1207650587053877
    Molecular point group: c1
  Basis Set: CC-PVTZ
  Basis Set:
  Basis Set: CC-PVTZ
  Basis Set:
  @DF-RHF Final Energy:  -270.12294324058934
    Total Energy =                       -270.1229432405892794
  Basis Set: CC-PVTZ
  Basis Set:
  Basis Set: CC-PVTZ
  Basis Set:
  @DF-RHF Final Energy:  -270.12283954372504
    Total Energy =                       -270.1228395437250924
  Basis Set: CC-PVTZ
  Basis Set:
  Basis Set: CC-PVTZ
  Basis Set:
  @DF-RHF Final Energy:  -270.12409494496444
    Total Energy =                       -270.1240949449642130
  Basis Set: CC-PVTZ
  Basis Set:
  @DF-RHF Final Energy:  -270.12427047586482
    Total Energy =                       -270.1242704758648756
  @DF-RHF Final Energy:  -270.12441718084835
    Total Energy =                       -270.1244171808482974
  Basis Set: CC-PVTZ
  Basis Set:
  @DF-RHF Final Energy:  -270.12444470288858
    Total Energy =                       -270.1244447028884679
  Basis Set: CC-PVTZ
  Basis Set:
  Basis Set: CC-PVTZ
  Basis Set:
  @DF-RHF Final Energy:  -270.12445157064610
    Total Energy =                       -270.1244515706459310
  Basis Set: CC-PVTZ
  Basis Set:
  Basis Set: CC-PVTZ
  Basis Set:
  @DF-RHF Final Energy:  -270.12445354611452
    Total Energy =                       -270.1244535461145801
  Basis Set: CC-PVTZ
  Basis Set:
  Charge       = 0
  Multiplicity = 1
  Basis Set: CC-PVTZ
  Basis Set:

    Orbital Energies (a.u.)
    -----------------------

    Doubly Occupied:

       1A    -20.537800     2A    -11.319684     3A    -11.233301
       4A    -11.228468     5A    -11.226843     6A    -11.214445
       7A     -1.397855     8A     -1.081526     9A     -1.010292
      10A     -0.951643    11A     -0.835394    12A     -0.727893
      13A     -0.656015    14A     -0.648259    15A     -0.625357
      16A     -0.609534    17A     -0.577471    18A     -0.560699
      19A     -0.537769    20A     -0.508263    21A     -0.506341
      22A     -0.481240    23A     -0.476898    24A     -0.400158

  @DF-RHF Final Energy:  -270.12445315010314

   => Energetics <=

    Nuclear Repulsion Energy =            243.6344674050016295
    One-Electron Energy =                -848.8115418523364042
    Two-Electron Energy =                 335.0526212972314397
    DFT Exchange-Correlation Energy =       0.0000000000000000
    Empirical Dispersion Energy =           0.0000000000000000
    PCM Polarization Energy =               0.0000000000000000
    EFP Energy =                            0.0000000000000000
    Total Energy =                       -270.1244531501033634
    Molecular point group: c1
  Basis Set: CC-PVTZ
  Basis Set:

  -Total Gradient:
     Atom            X                  Y                   Z
    ------   -----------------  -----------------  -----------------
       1       -0.000157167141     0.000179034230     0.000080767172
       2        0.000360508995     0.004200060233    -0.000056494214
       3       -0.000972236697    -0.005122100692    -0.000412692073
       4        0.000017319295     0.000017244531     0.000139081454
       5        0.002289982126    -0.004521054357     0.002054848436
       6       -0.000040117859    -0.000001450464     0.000022480478
       7        0.000086972629    -0.000001437266    -0.000039671642
       8        0.000238247764    -0.000086735707    -0.000140885190
       9       -0.001650693330     0.005311353359    -0.001605836553
      10       -0.000052296936     0.000030839427    -0.000067589141
      11       -0.000074236554     0.000013629373    -0.000010166152
      12       -0.000065913281    -0.000014404076     0.000029593791
      13       -0.000005089025    -0.000007625575     0.000047473394
      14        0.000003304609     0.000008959763    -0.000022863118
      15        0.000006642686     0.000003492483    -0.000005451966
      16        0.000014772717    -0.000009805259    -0.000012594675

  **** Optimization is complete! (in 10 steps) ****
    Final optimized geometry and variables:
    Molecular point group: c1

    Geometry (in Angstrom), charge = 0, multiplicity = 1:

    O           -1.310371272580     1.039948352160     0.563345913265
    C           -0.768721152913    -0.013472289196     0.477536963104
    C            0.680438946754    -0.191129860384     0.887627759730
    C           -1.499192573415    -1.237395747587    -0.024711556041
    C            1.675286939304    -0.235238205897    -0.296360866965
    H            0.782008129377    -1.092762821133     1.481756237436
    H            0.915621216706     0.653602692202     1.520578549643
    C            1.268331454499     0.603277463381    -1.508974477391
    H            2.616152295384     0.165662960447     0.060513426344
    H            1.849850854932    -1.259058256496    -0.605198854320
    H            2.058915030281     0.595137475205    -2.249719261506
    H            1.079989262255     1.632344435631    -1.227992907657
    H            0.370878243696     0.227400038727    -1.986532829475
    H           -0.901899939061    -1.779653382031    -0.748433593861
    H           -2.444466879374    -0.953071287647    -0.461224201111
    H           -1.677874890459    -1.906895339515     0.810817427272

  Mulliken Charges: (a.u.)
   Center  Symbol    Alpha    Beta     Spin     Total
       1     O     4.17752  4.17752  0.00000 -0.35504
       2     C     2.85400  2.85400  0.00000  0.29199
       3     C     3.10617  3.10617  0.00000 -0.21235
       4     C     3.15578  3.15578  0.00000 -0.31157
       5     C     3.10437  3.10437  0.00000 -0.20875
       6     H     0.44412  0.44412  0.00000  0.11176
       7     H     0.43843  0.43843  0.00000  0.12314
       8     C     3.14790  3.14790  0.00000 -0.29580
       9     H     0.44362  0.44362  0.00000  0.11275
      10     H     0.44801  0.44801  0.00000  0.10397
      11     H     0.44761  0.44761  0.00000  0.10478
      12     H     0.44354  0.44354  0.00000  0.11293
      13     H     0.45540  0.45540  0.00000  0.08919
      14     H     0.45110  0.45110  0.00000  0.09780
      15     H     0.43588  0.43588  0.00000  0.12823
      16     H     0.44653  0.44653  0.00000  0.10695

   Total alpha = 24.00000, Total beta = 24.00000, Total charge = -0.00000
