                              Psi4 1.0.54 Driver

  ==> Input File <==

--------------------------------------------------------------------------
set {
	reference rhf
	basis cc-pvtz
}

set_num_threads( 4 )
memory 2 gb

molecule MOL {
0 1

H	 1.791880	 -1.293253	 0.477608
C	 1.948180	 -0.217873	 0.320185
C	 0.692262	 0.592428	 0.156232
O	 3.045211	 0.221438	 0.286081
C	 -0.554654	 -0.292621	 0.086567
H	 0.791858	 1.203694	 -0.731051
H	 0.617379	 1.254358	 1.016534
C	 -1.846385	 0.513195	 -0.016346
H	 -0.473986	 -0.956115	 -0.769708
H	 -0.597929	 -0.929215	 0.966651
C	 -3.089953	 -0.365049	 -0.098564
H	 -1.798267	 1.154820	 -0.891143
H	 -1.925398	 1.173265	 0.842889
H	 -3.055079	 -1.012299	 -0.968245
H	 -3.988403	 0.236438	 -0.170014
H	 -3.183055	 -0.995885	 0.779079

	symmetry c1
}
set optking {
	frozen_dihedral = ("
		4 2 3 6
	")
}

ee,wfn = optimize('scf', return_wfn=True)
oeprop( wfn, 'DIPOLE', 'QUADRUPOLE', 'MULLIKEN_CHARGES')
f=open( 'psi4out.xyz', 'w' )
f.write( "16  " )
f.write( str(ee) + "\n" )
f.write( MOL.save_string_xyz() )
f.close()
--------------------------------------------------------------------------

    Molecular point group: c1
  Charge       = 0
  Multiplicity = 1
  Basis Set: CC-PVTZ
  Basis Set:
  @DF-RHF Final Energy:  -270.11747687718167
    Total Energy =                       -270.1174768771817298
    Molecular point group: c1
  Basis Set: CC-PVTZ
  Basis Set:
  Basis Set: CC-PVTZ
  Basis Set:
  @DF-RHF Final Energy:  -270.11742348473530
    Total Energy =                       -270.1174234847354683
  Basis Set: CC-PVTZ
  Basis Set:
  Basis Set: CC-PVTZ
  Basis Set:
  @DF-RHF Final Energy:  -270.11741261510440
    Total Energy =                       -270.1174126151045130
  Basis Set: CC-PVTZ
  Basis Set:
  Basis Set: CC-PVTZ
  Basis Set:
  @DF-RHF Final Energy:  -270.11785292055384
    Total Energy =                       -270.1178529205536734
  Basis Set: CC-PVTZ
  Basis Set:
  Basis Set: CC-PVTZ
  Basis Set:
  @DF-RHF Final Energy:  -270.11784969637949
    Total Energy =                       -270.1178496963795510
  Basis Set: CC-PVTZ
  Basis Set:
  Basis Set: CC-PVTZ
  Basis Set:
  @DF-RHF Final Energy:  -270.11785989725320
    Total Energy =                       -270.1178598972534246
  Basis Set: CC-PVTZ
  Basis Set:
  Charge       = 0
  Multiplicity = 1
  Basis Set: CC-PVTZ
  Basis Set:

    Orbital Energies (a.u.)
    -----------------------

    Doubly Occupied:

       1A    -20.551372     2A    -11.322606     3A    -11.234336
       4A    -11.232181     5A    -11.227365     6A    -11.216877
       7A     -1.407236     8A     -1.097896     9A     -1.019509
      10A     -0.905332    11A     -0.812499    12A     -0.797604
      13A     -0.666369    14A     -0.661567    15A     -0.634871
      16A     -0.603346    17A     -0.591543    18A     -0.542884
      19A     -0.539718    20A     -0.497185    21A     -0.492090
      22A     -0.486403    23A     -0.478443    24A     -0.411977

  @DF-RHF Final Energy:  -270.11786033495025

   => Energetics <=

    Nuclear Repulsion Energy =            228.5120515991228842
    One-Electron Energy =                -818.3974054159041316
    Two-Electron Energy =                 319.7674934818310248
    DFT Exchange-Correlation Energy =       0.0000000000000000
    Empirical Dispersion Energy =           0.0000000000000000
    PCM Polarization Energy =               0.0000000000000000
    EFP Energy =                            0.0000000000000000
    Total Energy =                       -270.1178603349502509
    Molecular point group: c1
  Basis Set: CC-PVTZ
  Basis Set:

  -Total Gradient:
     Atom            X                  Y                   Z
    ------   -----------------  -----------------  -----------------
       1       -0.000014841498     0.000023182929    -0.000004252872
       2        0.000001931725    -0.000143528031    -0.000669236302
       3        0.000179779596     0.000412755163     0.000483771858
       4       -0.000025667572     0.000053760119     0.000434271776
       5        0.000008777940     0.000003853542    -0.000012500892
       6       -0.000149579852    -0.000332345706    -0.000221545514
       7        0.000010395582    -0.000006571651     0.000000639987
       8       -0.000001884856    -0.000005861697    -0.000015542494
       9       -0.000008343137     0.000003702535    -0.000000315853
      10       -0.000003005108     0.000003235361    -0.000010252971
      11       -0.000009682183    -0.000001462105     0.000014575215
      12        0.000004465361    -0.000008717856     0.000002982309
      13        0.000008270387    -0.000004014329    -0.000007435462
      14        0.000000766250     0.000009088928     0.000004963685
      15        0.000001436441    -0.000005255756     0.000005368561
      16       -0.000002819066    -0.000001821444    -0.000005491031

  **** Optimization is complete! (in 7 steps) ****
    Final optimized geometry and variables:
    Molecular point group: c1

    Geometry (in Angstrom), charge = 0, multiplicity = 1:

    H            1.846771394838    -1.347843467919     0.358796681848
    C            1.942022845445    -0.265271464283     0.204740180808
    C            0.649001374854     0.502918963985     0.057760802565
    O            3.012197905796     0.234906716279     0.171990692473
    C           -0.587673376358    -0.384706554754    -0.022998812950
    H            0.741700596343     1.126607326750    -0.824640719672
    H            0.584082606592     1.178220457533     0.905754037590
    C           -1.883344992454     0.407955450754    -0.164404367317
    H           -0.489846176818    -1.065291973009    -0.865395655574
    H           -0.643939171740    -1.008012314141     0.866129860572
    C           -3.120375786652    -0.479752238855    -0.243326753682
    H           -1.827122721285     1.029572047219    -1.053426684894
    H           -1.979663683953     1.088373789762     0.676965558719
    H           -3.068990592594    -1.147994287781    -1.096302809858
    H           -4.021494853766     0.113707587422    -0.342439649203
    H           -3.222373255049    -1.089600189949     0.648015574488

  Mulliken Charges: (a.u.)
   Center  Symbol    Alpha    Beta     Spin     Total
       1     H     0.46156  0.46156  0.00000  0.07689
       2     C     2.91550  2.91550  0.00000  0.16900
       3     C     3.08139  3.08139  0.00000 -0.16277
       4     O     4.16482  4.16482  0.00000 -0.32964
       5     C     3.10337  3.10337  0.00000 -0.20674
       6     H     0.43886  0.43886  0.00000  0.12227
       7     H     0.44005  0.44005  0.00000  0.11990
       8     C     3.08451  3.08451  0.00000 -0.16902
       9     H     0.45026  0.45026  0.00000  0.09948
      10     H     0.45148  0.45148  0.00000  0.09705
      11     C     3.14911  3.14911  0.00000 -0.29821
      12     H     0.45189  0.45189  0.00000  0.09622
      13     H     0.45237  0.45237  0.00000  0.09527
      14     H     0.45411  0.45411  0.00000  0.09178
      15     H     0.44645  0.44645  0.00000  0.10710
      16     H     0.45429  0.45429  0.00000  0.09142

   Total alpha = 24.00000, Total beta = 24.00000, Total charge = -0.00000

*** Psi4 exiting successfully. Buy a developer a beer!
