  ==> Input File <==

--------------------------------------------------------------------------
set {
	reference rhf
	basis 6-31G*
}

set_num_threads( 4 )
memory 2 gb

molecule MOL {
0 1

H	 -0.132005	 2.027920	 1.620486
C	 0.742632	 1.393057	 1.434043
C	 0.692068	 0.589600	 0.160137
O	 1.642117	 1.373388	 2.210361
C	 -0.558097	 -0.297372	 0.091132
H	 1.599100	 0.000207	 0.093876
H	 0.683684	 1.290155	 -0.674118
C	 -1.850991	 0.512573	 -0.019058
H	 -0.476753	 -0.965681	 -0.762987
H	 -0.604799	 -0.930658	 0.975228
C	 -3.096943	 -0.368295	 -0.099594
H	 -1.800724	 1.150330	 -0.898172
H	 -1.931651	 1.177355	 0.838044
H	 -3.060452	 -1.020287	 -0.967456
H	 -3.996858	 0.233488	 -0.175704
H	 -3.191959	 -0.995686	 0.782074

	symmetry c1
}
set optking {
	frozen_dihedral = ("
		6 3 5 9
	")
}

ee = optimize('scf')
oeprop('DIPOLE', 'QUADRUPOLE', 'MULLIKEN_CHARGES')
f=open( 'psi4out.xyz', 'w' )
f.write( "16  " )
f.write( str(ee) + "\n" )
f.write( MOL.save_string_xyz() )
f.close()
--------------------------------------------------------------------------

    Molecular point group: c1
  Charge       = 0
  Multiplicity = 1
  Basis Set: 6-31G*
  Basis Set:
  @DF-RHF Final Energy:  -270.01684525804671
    Total Energy =                       -270.0168452580467147
    Molecular point group: c1
  Basis Set: 6-31G*
  Basis Set:
  Basis Set: 6-31G*
  Basis Set:
  @DF-RHF Final Energy:  -270.01728321974224
    Total Energy =                       -270.0172832197421258
  Basis Set: 6-31G*
  Basis Set:
  Basis Set: 6-31G*
  Basis Set:
  @DF-RHF Final Energy:  -270.01348015852108
    Total Energy =                       -270.0134801585213609
  Basis Set: 6-31G*
  Basis Set:
  Basis Set: 6-31G*
  Basis Set:
  @DF-RHF Final Energy:  -270.01763251699538
    Total Energy =                       -270.0176325169953202
  Basis Set: 6-31G*
  Basis Set:
  @DF-RHF Final Energy:  -270.01774205181221
    Total Energy =                       -270.0177420518121494
  @DF-RHF Final Energy:  -270.01775709834749
    Total Energy =                       -270.0177570983473743
  @DF-RHF Final Energy:  -270.01776384269874
    Total Energy =                       -270.0177638426986277
  @DF-RHF Final Energy:  -270.01776846962980
    Total Energy =                       -270.0177684696298002
  Basis Set: 6-31G*
  Basis Set:
  @DF-RHF Final Energy:  -270.01777812442481
    Total Energy =                       -270.0177781244248081
  Basis Set: 6-31G*
  Basis Set:
  Basis Set: 6-31G*
  Basis Set:
  @DF-RHF Final Energy:  -270.01778375968559
    Total Energy =                       -270.0177837596856989
  Basis Set: 6-31G*
  Basis Set:
  Basis Set: 6-31G*
  Basis Set:
  @DF-RHF Final Energy:  -270.01778531126848
    Total Energy =                       -270.0177853112683124
  Basis Set: 6-31G*
  Basis Set:
  Charge       = 0
  Multiplicity = 1
  Basis Set: 6-31G*
  Basis Set:

    Orbital Energies (a.u.)
    -----------------------

    Doubly Occupied:

       1A    -20.562119     2A    -11.325562     3A    -11.236425
       4A    -11.234807     5A    -11.230998     6A    -11.219423
       7A     -1.401574     8A     -1.095611     9A     -1.017182
      10A     -0.905286    11A     -0.828976    12A     -0.778733
      13A     -0.678927    14A     -0.651789    15A     -0.617806
      16A     -0.602247    17A     -0.583273    18A     -0.555078
      19A     -0.533548    20A     -0.514380    21A     -0.488365
      22A     -0.480516    23A     -0.471233    24A     -0.408216

  @DF-RHF Final Energy:  -270.01778534336194

   => Energetics <=

    Nuclear Repulsion Energy =            232.1054756148469664
    One-Electron Energy =                -825.4023762892261402
    Two-Electron Energy =                 323.2791153310170102
    DFT Exchange-Correlation Energy =       0.0000000000000000
    Empirical Dispersion Energy =           0.0000000000000000
    PCM Polarization Energy =               0.0000000000000000
    EFP Energy =                            0.0000000000000000
    Total Energy =                       -270.0177853433622204
    Molecular point group: c1
  Basis Set: 6-31G*
  Basis Set:

  -Total Gradient:
     Atom            X                  Y                   Z
    ------   -----------------  -----------------  -----------------
       1       -0.000003500414     0.000001809902    -0.000000509800
       2        0.000005540775    -0.000005202039     0.000001653097
       3        0.000043053169    -0.000040875898     0.000278669190
       4       -0.000005201831     0.000001804152    -0.000004547315
       5       -0.000117782449     0.000163671230    -0.000188469617
       6       -0.000007551951     0.000011606483    -0.000203993547
       7       -0.000002707364    -0.000002492041     0.000002559243
       8        0.000000948271     0.000001723012     0.000003791766
       9        0.000092207687    -0.000134106675     0.000113349971
      10        0.000002683706     0.000001292095    -0.000001078890
      11       -0.000001664545     0.000000777368    -0.000000751286
      12       -0.000002718121     0.000000274237     0.000000122242
      13       -0.000003687929    -0.000001128098    -0.000002128881
      14        0.000001805503     0.000000434305     0.000001605676
      15       -0.000000973440    -0.000000470367    -0.000001196590
      16       -0.000000451072     0.000000882332     0.000000924743

  **** Optimization is complete! (in 12 steps) ****
    Final optimized geometry and variables:
    Molecular point group: c1

    Geometry (in Angstrom), charge = 0, multiplicity = 1:

    H            0.503288262375     1.722463748555     0.895069620239
    C            1.224429416099     0.907595562234     0.775194057095
    C            1.110092337938     0.098378341455    -0.492372743837
    O            2.031991417030     0.701908074380     1.623524797984
    C           -0.157991025725    -0.774243919508    -0.536417517589
    H            1.993772476955    -0.524644812641    -0.561354791651
    H            1.108540107804     0.781457016289    -1.339878821729
    C           -1.472168993336     0.004220039228    -0.651188973086
    H           -0.069604779278    -1.443100508620    -1.387994366239
    H           -0.183052523777    -1.408824019548     0.346249416955
    C           -2.685053385006    -0.917426319846    -0.774567075369
    H           -1.426654421422     0.659813331187    -1.518199473220
    H           -1.605491636387     0.648857603963     0.213808417401
    H           -2.607915367409    -1.550113504061    -1.654015699287
    H           -3.603965413551    -0.346044172504    -0.856815355421
    H           -2.774338921280    -1.565433671488     0.092373919542

  Mulliken Charges: (a.u.)
   Center  Symbol    Alpha    Beta     Spin     Total
       1     H     0.42991  0.42991  0.00000  0.14018
       2     C     2.83332  2.83332  0.00000  0.33336
       3     C     3.20750  3.20750  0.00000 -0.41501
       4     O     4.23735  4.23735  0.00000 -0.47470
       5     C     3.16324  3.16324  0.00000 -0.32648
       6     H     0.39817  0.39817  0.00000  0.20366
       7     H     0.41256  0.41256  0.00000  0.17488
       8     C     3.15698  3.15698  0.00000 -0.31396
       9     H     0.41314  0.41314  0.00000  0.17373
      10     H     0.41184  0.41184  0.00000  0.17632
      11     C     3.24009  3.24009  0.00000 -0.48017
      12     H     0.42066  0.42066  0.00000  0.15869
      13     H     0.42044  0.42044  0.00000  0.15912
      14     H     0.41975  0.41975  0.00000  0.16049
      15     H     0.41637  0.41637  0.00000  0.16725
      16     H     0.41867  0.41867  0.00000  0.16265

   Total alpha = 24.00000, Total beta = 24.00000, Total charge = -0.00000
