  ==> Input File <==

--------------------------------------------------------------------------
set {
	reference rhf
	basis cc-pvtz
}

set_num_threads( 4 )
memory 2 gb

molecule MOL {
0 1

O	 -2.440701	 -0.934798	 -0.415053
C	 -1.922978	 0.063265	 -0.045005
C	 -2.632749	 1.372204	 0.158357
O	 -0.637375	 0.157174	 0.243149
H	 -2.187724	 2.129143	 -0.474664
H	 -3.677681	 1.257276	 -0.079438
H	 -2.516788	 1.693160	 1.185542
C	 0.162530	 -1.009518	 0.097799
C	 1.587210	 -0.664190	 0.477086
H	 0.096803	 -1.356267	 -0.924704
H	 -0.233803	 -1.785900	 0.736810
C	 2.256770	 0.342732	 -0.454344
H	 2.154716	 -1.590834	 0.479041
H	 1.598751	 -0.289614	 1.496104
C	 1.643528	 1.735346	 -0.353453
H	 3.316204	 0.396750	 -0.218169
H	 2.186553	 -0.011000	 -1.476492
H	 2.139436	 2.430190	 -1.021024
H	 1.725518	 2.129415	 0.654208
H	 0.591036	 1.719029	 -0.616153

	symmetry c1
}
set optking {
	frozen_dihedral = ("
		16 12 9 8
	")
}

ee = optimize('scf')
oeprop('DIPOLE', 'QUADRUPOLE', 'MULLIKEN_CHARGES')
f=open( 'psi4out.xyz', 'w' )
f.write( "20  " )
f.write( str(ee) + "\n" )
f.write( MOL.save_string_xyz() )
f.close()
--------------------------------------------------------------------------

    Molecular point group: c1
  Charge       = 0
  Multiplicity = 1
  Basis Set: CC-PVTZ
  Basis Set:
  @DF-RHF Final Energy:  -384.08041430131158
    Total Energy =                       -384.0804143013115208
    Molecular point group: c1
  Basis Set: CC-PVTZ
  Basis Set:
  Basis Set: CC-PVTZ
  Basis Set:
  @DF-RHF Final Energy:  -384.08392175191000
    Total Energy =                       -384.0839217519104523
  Basis Set: CC-PVTZ
  Basis Set:
  Basis Set: CC-PVTZ
  Basis Set:
  @DF-RHF Final Energy:  -384.08411400584839
    Total Energy =                       -384.0841140058482779
  Basis Set: CC-PVTZ
  Basis Set:
  Basis Set: CC-PVTZ
  Basis Set:
  @DF-RHF Final Energy:  -384.08301260797543
    Total Energy =                       -384.0830126079750926
  Basis Set: CC-PVTZ
  Basis Set:
  Basis Set: CC-PVTZ
  Basis Set:
  @DF-RHF Final Energy:  -384.08433196787013
    Total Energy =                       -384.0843319678697299
  Basis Set: CC-PVTZ
  Basis Set:
  Basis Set: CC-PVTZ
  Basis Set:
  @DF-RHF Final Energy:  -384.08435050416819
    Total Energy =                       -384.0843505041685830
  Basis Set: CC-PVTZ
  Basis Set:
  Basis Set: CC-PVTZ
  Basis Set:
  @DF-RHF Final Energy:  -384.08435263306745
    Total Energy =                       -384.0843526330673967
  Basis Set: CC-PVTZ
  Basis Set:
  Charge       = 0
  Multiplicity = 1
  Basis Set: CC-PVTZ
  Basis Set:

    Orbital Energies (a.u.)
    -----------------------

    Doubly Occupied:

       1A    -20.594268     2A    -20.532949     3A    -11.366852
       4A    -11.280628     5A    -11.231851     6A    -11.224548
       7A    -11.220870     8A    -11.207338     9A     -1.471260
      10A     -1.365357    11A     -1.085377    12A     -1.027978
      13A     -0.980779    14A     -0.890103    15A     -0.800741
      16A     -0.780071    17A     -0.693654    18A     -0.689587
      19A     -0.669586    20A     -0.621829    21A     -0.605250
      22A     -0.592257    23A     -0.575222    24A     -0.556598
      25A     -0.545666    26A     -0.533816    27A     -0.512719
      28A     -0.482769    29A     -0.476258    30A     -0.470496
      31A     -0.449178    32A     -0.441484

  @DF-RHF Final Energy:  -384.08435285528259

   => Energetics <=

    Nuclear Repulsion Energy =            393.4250696462711971
    One-Electron Energy =               -1303.0641676174286658
    Two-Electron Energy =                 525.5547451158747663
    DFT Exchange-Correlation Energy =       0.0000000000000000
    Empirical Dispersion Energy =           0.0000000000000000
    PCM Polarization Energy =               0.0000000000000000
    EFP Energy =                            0.0000000000000000
    Total Energy =                       -384.0843528552827593
    Molecular point group: c1
  Basis Set: CC-PVTZ
  Basis Set:

  -Total Gradient:
     Atom            X                  Y                   Z
    ------   -----------------  -----------------  -----------------
       1        0.000004128183    -0.000005808963     0.000028589207
       2        0.000006949044     0.000009118934    -0.000034104882
       3       -0.000002497124     0.000001071286    -0.000004232822
       4        0.000006423180    -0.000009516066     0.000025656462
       5       -0.000000439534     0.000000934115     0.000005140352
       6       -0.000000369396     0.000002658919     0.000001076706
       7       -0.000001532928    -0.000001170373     0.000004150188
       8       -0.000045884570     0.000145980165    -0.000011526411
       9        0.000062003988    -0.000130864773    -0.000075557272
      10        0.000003221533    -0.000007778054     0.000013488913
      11        0.000005008511    -0.000008821245     0.000019403722
      12        0.000018078798    -0.000150590886    -0.000136278208
      13       -0.000011445174     0.000000498815    -0.000006757191
      14        0.000012800715     0.000009622855     0.000007845310
      15       -0.000009839246    -0.000015613261     0.000003381477
      16       -0.000040624294     0.000163740382     0.000139294947
      17       -0.000010616923    -0.000003758359     0.000015431650
      18        0.000004823570     0.000000659930     0.000005615853
      19        0.000003408707     0.000000175129     0.000006522870
      20       -0.000003597044    -0.000000538551    -0.000007140872

  **** Optimization is complete! (in 8 steps) ****
    Final optimized geometry and variables:
    Molecular point group: c1

    Geometry (in Angstrom), charge = 0, multiplicity = 1:

    O           -2.189061301393    -1.095250031774    -0.440136347074
    C           -1.723536684700    -0.107448167854     0.016664511596
    C           -2.500031204831     1.140734316345     0.327969039092
    O           -0.444120790631     0.027440043336     0.316254996405
    H           -2.099827724834     1.969415342678    -0.241998764784
    H           -3.538868657483     0.990337381927     0.083293988749
    H           -2.394488314973     1.382694496779     1.377564219706
    C            0.409892987879    -1.086280698473     0.085522091167
    C            1.817708302083    -0.747653218198     0.538488121538
    H            0.380727217395    -1.342683167518    -0.965268008159
    H            0.026763264277    -1.930879789762     0.640175468980
    C            2.624263603479     0.180916375512    -0.372680630336
    H            2.350053619755    -1.691081157576     0.613666491261
    H            1.771708680359    -0.338824829820     1.543201813097
    C            2.137402024565     1.625809941196    -0.451989762100
    H            3.648826892022     0.182503825871    -0.013929962331
    H            2.656230057391    -0.245096480609    -1.371990860708
    H            2.826638828960     2.222584555119    -1.038689834282
    H            2.071459702803     2.069755361103     0.535538130322
    H            1.160582565195     1.698988949277    -0.909742011260

  Mulliken Charges: (a.u.)
   Center  Symbol    Alpha    Beta     Spin     Total
       1     O     4.19715  4.19715  0.00000 -0.39429
       2     C     2.81020  2.81020  0.00000  0.37960
       3     C     3.13802  3.13802  0.00000 -0.27604
       4     O     4.15260  4.15260  0.00000 -0.30520
       5     H     0.44626  0.44626  0.00000  0.10748
       6     H     0.43740  0.43740  0.00000  0.12520
       7     H     0.44574  0.44574  0.00000  0.10852
       8     C     2.99305  2.99305  0.00000  0.01391
       9     C     3.09322  3.09322  0.00000 -0.18644
      10     H     0.45125  0.45125  0.00000  0.09751
      11     H     0.44274  0.44274  0.00000  0.11452
      12     C     3.09206  3.09206  0.00000 -0.18412
      13     H     0.44562  0.44562  0.00000  0.10877
      14     H     0.45100  0.45100  0.00000  0.09800
      15     C     3.14436  3.14436  0.00000 -0.28872
      16     H     0.44841  0.44841  0.00000  0.10319
      17     H     0.45366  0.45366  0.00000  0.09269
      18     H     0.44860  0.44860  0.00000  0.10280
      19     H     0.45511  0.45511  0.00000  0.08978
      20     H     0.45358  0.45358  0.00000  0.09284

   Total alpha = 32.00000, Total beta = 32.00000, Total charge =  0.00000
