  ==> Input File <==

--------------------------------------------------------------------------
set {
	reference rhf
	basis 6-31G*
}

set_num_threads( 1 )
memory 2 gb

molecule MOL {
0 1

H	 -1.732195	 1.155201	 -0.175331
N	 -1.852125	 0.165761	 -0.074816
C	 -0.563778	 -0.502042	 0.037919
H	 -2.341850	 -0.150944	 -0.890061
C	 0.575259	 0.508231	 -0.048326
H	 -0.482092	 -1.204004	 -0.786564
H	 -0.460411	 -1.085169	 0.956626
C	 1.954651	 -0.143624	 0.035137
H	 0.475158	 1.060484	 -0.977307
H	 0.469181	 1.234488	 0.755973
H	 2.103292	 -0.853109	 -0.774172
H	 2.742821	 0.599562	 -0.030094
H	 2.083613	 -0.679371	 0.971560

	symmetry c1
}
set optking {
	frozen_dihedral = ("
		6 3 5 9
	")
}

ee = energy('scf')
oeprop('DIPOLE', 'QUADRUPOLE', 'MULLIKEN_CHARGES')
f=open( 'psi4out.xyz', 'w' )
f.write( "13  " )
f.write( str(ee) + "\n" )
f.write( MOL.save_string_xyz() )
f.close()
--------------------------------------------------------------------------

    Molecular point group: c1

    Geometry (in Angstrom), charge = 0, multiplicity = 1:

       Center              X                  Y                   Z               Mass
    ------------   -----------------  -----------------  -----------------  -----------------
           H         -1.741302598627     1.142510281380    -0.146423065717     1.007825032070
           N         -1.861232598627     0.153070281380    -0.045908065717    14.003074004780
           C         -0.572885598627    -0.514732718620     0.066826934283    12.000000000000
           H         -2.350957598627    -0.163634718620    -0.861153065717     1.007825032070
           C          0.566151401373     0.495540281380    -0.019418065717    12.000000000000
           H         -0.491199598627    -1.216694718620    -0.757656065717     1.007825032070
           H         -0.469518598627    -1.097859718620     0.985533934283     1.007825032070
           C          1.945543401373    -0.156314718620     0.064044934283    12.000000000000
           H          0.466050401373     1.047793281380    -0.948399065717     1.007825032070
           H          0.460073401373     1.221797281380     0.784880934283     1.007825032070
           H          2.094184401373    -0.865799718620    -0.745264065717     1.007825032070
           H          2.733713401373     0.586871281380    -0.001186065717     1.007825032070
           H          2.074505401373    -0.692061718620     1.000467934283     1.007825032070

  Charge       = 0
  Multiplicity = 1
  Basis Set: 6-31G*
  Basis Set:

    Orbital Energies (a.u.)
    -----------------------

    Doubly Occupied:

       1A    -15.529574     2A    -11.240188     3A    -11.218641
       4A    -11.212697     5A     -1.177756     6A     -1.037484
       7A     -0.899090     8A     -0.809224     9A     -0.662246
      10A     -0.626120    11A     -0.605285    12A     -0.555655
      13A     -0.545016    14A     -0.500078    15A     -0.484685
      16A     -0.471633    17A     -0.375036

  @DF-RHF Final Energy:  -173.27666355209632

   => Energetics <=

    Nuclear Repulsion Energy =            132.1531180069162303
    One-Electron Energy =                -494.9587194782209849
    Two-Electron Energy =                 189.5289379192083175
    DFT Exchange-Correlation Energy =       0.0000000000000000
    Empirical Dispersion Energy =           0.0000000000000000
    PCM Polarization Energy =               0.0000000000000000
    EFP Energy =                            0.0000000000000000
    Total Energy =                       -173.2766635520964087

  Mulliken Charges: (a.u.)
   Center  Symbol    Alpha    Beta     Spin     Total
       1     H     0.33147  0.33147  0.00000  0.33707
       2     N     3.92844  3.92844  0.00000 -0.85687
       3     C     3.04507  3.04507  0.00000 -0.09013
       4     H     0.33229  0.33229  0.00000  0.33543
       5     C     3.16843  3.16843  0.00000 -0.33686
       6     H     0.42901  0.42901  0.00000  0.14197
       7     H     0.42152  0.42152  0.00000  0.15697
       8     C     3.24287  3.24287  0.00000 -0.48575
       9     H     0.42424  0.42424  0.00000  0.15152
      10     H     0.41883  0.41883  0.00000  0.16234
      11     H     0.42102  0.42102  0.00000  0.15795
      12     H     0.41781  0.41781  0.00000  0.16438
      13     H     0.41901  0.41901  0.00000  0.16199

   Total alpha = 17.00000, Total beta = 17.00000, Total charge = -0.00000
