  ==> Input File <==

--------------------------------------------------------------------------
set {
	reference rhf
	basis 6-31G*
}

set_num_threads( 1 )
memory 2 gb

molecule MOL {
0 1

H	 1.933862	 -3.795430	 -0.084252
C	 2.176560	 -2.741711	 0.008071
C	 0.919783	 -1.877503	 -0.084780
H	 2.679650	 -2.601740	 0.960717
H	 2.884562	 -2.496158	 -0.778493
C	 1.217350	 -0.386724	 0.039429
H	 0.215440	 -2.155428	 0.693068
H	 0.422657	 -2.066163	 -1.034866
N	 0.000003	 0.397874	 -0.023260
H	 1.690004	 -0.194283	 0.998871
H	 1.942447	 -0.092866	 -0.726900
C	 -1.217365	 -0.386708	 0.039277
H	 -0.000031	 1.072115	 0.718656
C	 -2.452633	 0.504241	 -0.042481
H	 -1.215291	 -1.074557	 -0.802042
H	 -1.269739	 -1.003477	 0.942735
C	 -3.758029	 -0.289423	 -0.010781
H	 -2.394220	 1.093569	 -0.952170
H	 -2.440793	 1.210787	 0.785871
H	 -3.816659	 -0.981993	 -0.845726
H	 -4.617837	 0.370165	 -0.069296
H	 -3.847478	 -0.867502	 0.904682

	symmetry c1
}
set optking {
	frozen_dihedral = ("
		15 12 14 18
	")
}

ee = energy('scf')
oeprop('DIPOLE', 'QUADRUPOLE', 'MULLIKEN_CHARGES')
f=open( 'psi4out.xyz', 'w' )
f.write( "22  " )
f.write( str(ee) + "\n" )
f.write( MOL.save_string_xyz() )
f.close()
--------------------------------------------------------------------------

    Molecular point group: c1

    Geometry (in Angstrom), charge = 0, multiplicity = 1:

       Center              X                  Y                   Z               Mass
    ------------   -----------------  -----------------  -----------------  -----------------
           H          2.381513182630    -3.100696883246    -0.082032132116     1.007825032070
           C          2.624211182630    -2.046977883246     0.010290867884    12.000000000000
           C          1.367434182630    -1.182769883246    -0.082560132116    12.000000000000
           H          3.127301182630    -1.907006883246     0.962936867884     1.007825032070
           H          3.332213182630    -1.801424883246    -0.776273132116     1.007825032070
           C          1.665001182630     0.308009116754     0.041648867884    12.000000000000
           H          0.663091182630    -1.460694883246     0.695287867884     1.007825032070
           H          0.870308182630    -1.371429883246    -1.032646132116     1.007825032070
           N          0.447654182630     1.092607116754    -0.021040132116    14.003074004780
           H          2.137655182630     0.500450116754     1.001090867884     1.007825032070
           H          2.390098182630     0.601867116754    -0.724680132116     1.007825032070
           C         -0.769713817370     0.308025116754     0.041496867884    12.000000000000
           H          0.447620182630     1.766848116754     0.720875867884     1.007825032070
           C         -2.004981817370     1.198974116754    -0.040261132116    12.000000000000
           H         -0.767639817370    -0.379823883246    -0.799822132116     1.007825032070
           H         -0.822087817370    -0.308743883246     0.944954867884     1.007825032070
           C         -3.310377817370     0.405310116754    -0.008561132116    12.000000000000
           H         -1.946568817370     1.788302116754    -0.949950132116     1.007825032070
           H         -1.993141817370     1.905520116754     0.788090867884     1.007825032070
           H         -3.369007817370    -0.287259883246    -0.843506132116     1.007825032070
           H         -4.170185817370     1.064898116754    -0.067076132116     1.007825032070
           H         -3.399826817370    -0.172768883246     0.906901867884     1.007825032070

  Charge       = 0
  Multiplicity = 1
  Basis Set: 6-31G*
  Basis Set:

    Orbital Energies (a.u.)
    -----------------------

    Doubly Occupied:

       1A    -15.530081     2A    -11.237939     3A    -11.235443
       4A    -11.213824     5A    -11.211389     6A    -11.209744
       7A    -11.208855     8A     -1.207332     9A     -1.054398
      10A     -1.027624    11A     -0.928401    12A     -0.881392
      13A     -0.820037    14A     -0.769951    15A     -0.673768
      16A     -0.630122    17A     -0.619141    18A     -0.613767
      19A     -0.568866    20A     -0.560359    21A     -0.542300
      22A     -0.533702    23A     -0.504245    24A     -0.488289
      25A     -0.479653    26A     -0.471777    27A     -0.465701
      28A     -0.454535    29A     -0.348516

  @DF-RHF Final Energy:  -290.36183130885860

   => Energetics <=

    Nuclear Repulsion Energy =            322.8986969719337026
    One-Electron Energy =               -1031.5388063805207821
    Two-Electron Energy =                 418.2782780997273449
    DFT Exchange-Correlation Energy =       0.0000000000000000
    Empirical Dispersion Energy =           0.0000000000000000
    PCM Polarization Energy =               0.0000000000000000
    EFP Energy =                            0.0000000000000000
    Total Energy =                       -290.3618313088596778

  Mulliken Charges: (a.u.)
   Center  Symbol    Alpha    Beta     Spin     Total
       1     H     0.41852  0.41852  0.00000  0.16296
       2     C     3.23835  3.23835  0.00000 -0.47671
       3     C     3.17464  3.17464  0.00000 -0.34928
       4     H     0.42223  0.42223  0.00000  0.15554
       5     H     0.42061  0.42061  0.00000  0.15877
       6     C     3.03690  3.03690  0.00000 -0.07379
       7     H     0.41663  0.41663  0.00000  0.16674
       8     H     0.41622  0.41622  0.00000  0.16756
       9     N     3.86139  3.86139  0.00000 -0.72279
      10     H     0.43200  0.43200  0.00000  0.13601
      11     H     0.42245  0.42245  0.00000  0.15510
      12     C     3.05762  3.05762  0.00000 -0.11524
      13     H     0.33273  0.33273  0.00000  0.33454
      14     C     3.15084  3.15084  0.00000 -0.30168
      15     H     0.41788  0.41788  0.00000  0.16424
      16     H     0.43490  0.43490  0.00000  0.13020
      17     C     3.24304  3.24304  0.00000 -0.48607
      18     H     0.41368  0.41368  0.00000  0.17264
      19     H     0.42788  0.42788  0.00000  0.14424
      20     H     0.42127  0.42127  0.00000  0.15746
      21     H     0.41784  0.41784  0.00000  0.16432
      22     H     0.42238  0.42238  0.00000  0.15524

   Total alpha = 29.00000, Total beta = 29.00000, Total charge =  0.00000
