  ==> Input File <==

--------------------------------------------------------------------------
set {
	reference rhf
	basis 6-31G*
}

set_num_threads( 4 )
memory 2 gb

molecule MOL {
0 1

H	 -3.261111	 -0.295142	 1.469456
C	 -3.306842	 -0.277400	 0.373456
C	 -2.660244	 0.921717	 -0.272021
O	 -3.838538	 -1.161155	 -0.216482
C	 -3.009935	 2.234698	 0.442159
H	 -1.589326	 0.757727	 -0.302857
H	 -3.021018	 0.965564	 -1.298946
C	 -2.428243	 2.334938	 1.854564
H	 -2.642733	 3.061375	 -0.158717
H	 -4.092310	 2.347076	 0.482048
C	 -2.775008	 3.652998	 2.549752
H	 -1.346994	 2.225102	 1.802767
H	 -2.786085	 1.504932	 2.460847
C	 -2.178276	 3.756649	 3.955852
H	 -2.424565	 4.478154	 1.934903
H	 -3.857769	 3.754434	 2.610765
C	 -2.567244	 5.025159	 4.723743
H	 -1.093031	 3.694503	 3.892015
H	 -2.497598	 2.891988	 4.533872
C	 -2.020773	 6.322741	 4.126023
H	 -2.204892	 4.932759	 5.744582
H	 -3.651444	 5.086838	 4.791768
H	 -0.938800	 6.283218	 4.030941
H	 -2.432339	 6.522100	 3.142232
H	 -2.265397	 7.170833	 4.758395

	symmetry c1
}
set optking {
	frozen_dihedral = ("
		6 3 2 4
	")
}

ee = optimize('scf')
oeprop('DIPOLE', 'QUADRUPOLE', 'MULLIKEN_CHARGES')
f=open( 'psi4out.xyz', 'w' )
f.write( "25  " )
f.write( str(ee) + "\n" )
f.write( MOL.save_string_xyz() )
f.close()
--------------------------------------------------------------------------

    Molecular point group: c1
  Charge       = 0
  Multiplicity = 1
  Basis Set: 6-31G*
  Basis Set:
  @DF-RHF Final Energy:  -387.11905075317532
    Total Energy =                       -387.1190507531750882
    Molecular point group: c1
  Basis Set: 6-31G*
  Basis Set:
  Basis Set: 6-31G*
  Basis Set:
  @DF-RHF Final Energy:  -387.11970453466881
    Total Energy =                       -387.1197045346689265
  Basis Set: 6-31G*
  Basis Set:
  Basis Set: 6-31G*
  Basis Set:
  @DF-RHF Final Energy:  -387.11934063623579
    Total Energy =                       -387.1193406362358473
  Basis Set: 6-31G*
  Basis Set:
  Basis Set: 6-31G*
  Basis Set:
  @DF-RHF Final Energy:  -387.12011360412453
    Total Energy =                       -387.1201136041245263
  Basis Set: 6-31G*
  Basis Set:
  @DF-RHF Final Energy:  -387.11989528233215
    Total Energy =                       -387.1198952823317541
  @DF-RHF Final Energy:  -387.12017800250874
    Total Energy =                       -387.1201780025085100
  Basis Set: 6-31G*
  Basis Set:
  @DF-RHF Final Energy:  -387.12018095138001
    Total Energy =                       -387.1201809513802345
  Basis Set: 6-31G*
  Basis Set:
  Basis Set: 6-31G*
  Basis Set:
  @DF-RHF Final Energy:  -387.12017860375846
    Total Energy =                       -387.1201786037585180
  Basis Set: 6-31G*
  Basis Set:
  Basis Set: 6-31G*
  Basis Set:
  @DF-RHF Final Energy:  -387.12018129942123
    Total Energy =                       -387.1201812994207785
  Basis Set: 6-31G*
  Basis Set:
  Charge       = 0
  Multiplicity = 1
  Basis Set: 6-31G*
  Basis Set:

    Orbital Energies (a.u.)
    -----------------------

    Doubly Occupied:

       1A    -20.560953     2A    -11.325490     3A    -11.235229
       4A    -11.234517     5A    -11.228284     6A    -11.222472
       7A    -11.220462     8A    -11.219877     9A    -11.212476
      10A     -1.400909    11A     -1.105434    12A     -1.070532
      13A     -1.014545    14A     -0.943775    15A     -0.876833
      16A     -0.826156    17A     -0.785502    18A     -0.784001
      19A     -0.671257    20A     -0.661638    21A     -0.633438
      22A     -0.619353    23A     -0.605396    24A     -0.597630
      25A     -0.564893    26A     -0.561911    27A     -0.542967
      28A     -0.520382    29A     -0.509619    30A     -0.503177
      31A     -0.487066    32A     -0.480462    33A     -0.467446
      34A     -0.461742    35A     -0.445296    36A     -0.407457

  @DF-RHF Final Energy:  -387.12018140152998

   => Energetics <=

    Nuclear Repulsion Energy =            435.4049086577566641
    One-Electron Energy =               -1387.0330206387020553
    Two-Electron Energy =                 564.5079305794154152
    DFT Exchange-Correlation Energy =       0.0000000000000000
    Empirical Dispersion Energy =           0.0000000000000000
    PCM Polarization Energy =               0.0000000000000000
    EFP Energy =                            0.0000000000000000
    Total Energy =                       -387.1201814015299760
    Molecular point group: c1
  Basis Set: 6-31G*
  Basis Set:

  -Total Gradient:
     Atom            X                  Y                   Z
    ------   -----------------  -----------------  -----------------
       1       -0.000001224618    -0.000007500187    -0.000003857778
       2       -0.000266131619     0.000121222299    -0.000042989139
       3        0.000095125725     0.000038981974     0.000229411709
       4        0.000181598113    -0.000095373464     0.000010132880
       5       -0.000022932656     0.000005514791     0.000012028170
       6        0.000009802241    -0.000077136102    -0.000189382016
       7        0.000000791920     0.000007648792     0.000004407026
       8       -0.000003892502    -0.000013464891     0.000023374300
       9        0.000007541976    -0.000000392314     0.000006647094
      10       -0.000003690998     0.000017565608     0.000001142123
      11       -0.000005671605     0.000006112810    -0.000012838340
      12        0.000002001990     0.000004942998    -0.000009165723
      13        0.000004580868    -0.000003214229    -0.000002110330
      14        0.000014308151    -0.000012670959    -0.000013943868
      15        0.000001916893    -0.000000880366     0.000001886173
      16       -0.000003461893     0.000006426303     0.000000857538
      17       -0.000022599066     0.000001024479    -0.000017429765
      18        0.000004102601     0.000002467658    -0.000003774307
      19        0.000004023737    -0.000002724966    -0.000001004074
      20        0.000004344862     0.000003014456     0.000003692609
      21       -0.000000899786    -0.000008102981    -0.000005782136
      22       -0.000003431710     0.000004453311     0.000000132228
      23        0.000002000182     0.000001122379    -0.000001297665
      24        0.000000578763     0.000001880291     0.000008598848
      25        0.000001218425    -0.000000917687     0.000001264442

  **** Optimization is complete! (in 10 steps) ****
    Final optimized geometry and variables:
    Molecular point group: c1

    Geometry (in Angstrom), charge = 0, multiplicity = 1:

    H           -0.713092655645    -2.939553130149    -0.574097687983
    C           -0.627904883128    -2.847426254493    -1.661611123088
    C            0.100800637127    -1.629881564413    -2.176086904794
    O           -1.089458657711    -3.688502270288    -2.363894058568
    C           -0.254245035264    -0.329719927531    -1.437826227978
    H            1.169025890755    -1.823724270862    -2.083303990057
    H           -0.118428736468    -1.551640787265    -3.234506903298
    C            0.352491116894    -0.207143237177    -0.036579679238
    H            0.091924841451     0.504087730091    -2.041799189868
    H           -1.336417608401    -0.229161040214    -1.380486460732
    C           -0.004825798236     1.112923785109     0.650075043025
    H            1.435148910633    -0.293305770404    -0.110777679372
    H            0.024851375370    -1.032348585129     0.591808083275
    C            0.616889589420     1.245468375475     2.042845889218
    H            0.316980855630     1.936607169507     0.018128242316
    H           -1.087650144380     1.193755783850     0.731303415375
    C            0.212732292422     2.512328559239     2.805594257136
    H            1.701877551441     1.209520909506     1.957815043974
    H            0.330481365941     0.379575744725     2.636328005429
    C            0.714010392735     3.816536474477     2.182726292685
    H            0.597890028102     2.439821891150     3.819603921721
    H           -0.871085679631     2.547451696225     2.895230077888
    H            1.794733091353     3.804587123285     2.068969540493
    H            0.279981388386     3.993410663283     1.204231487933
    H            0.458314625621     4.665314330936     2.809353338205

  Mulliken Charges: (a.u.)
   Center  Symbol    Alpha    Beta     Spin     Total
       1     H     0.43005  0.43005  0.00000  0.13991
       2     C     2.83052  2.83052  0.00000  0.33896
       3     C     3.21093  3.21093  0.00000 -0.42187
       4     O     4.23955  4.23955  0.00000 -0.47911
       5     C     3.16661  3.16661  0.00000 -0.33321
       6     H     0.40606  0.40606  0.00000  0.18787
       7     H     0.39706  0.39706  0.00000  0.20587
       8     C     3.15640  3.15640  0.00000 -0.31281
       9     H     0.41235  0.41235  0.00000  0.17531
      10     H     0.41552  0.41552  0.00000  0.16896
      11     C     3.15404  3.15404  0.00000 -0.30808
      12     H     0.42083  0.42083  0.00000  0.15835
      13     H     0.42201  0.42201  0.00000  0.15599
      14     C     3.15305  3.15305  0.00000 -0.30611
      15     H     0.41997  0.41997  0.00000  0.16007
      16     H     0.42232  0.42232  0.00000  0.15536
      17     C     3.15279  3.15279  0.00000 -0.30558
      18     H     0.42354  0.42354  0.00000  0.15292
      19     H     0.42184  0.42184  0.00000  0.15632
      20     C     3.24152  3.24152  0.00000 -0.48305
      21     H     0.41996  0.41996  0.00000  0.16008
      22     H     0.42268  0.42268  0.00000  0.15465
      23     H     0.42200  0.42200  0.00000  0.15600
      24     H     0.42019  0.42019  0.00000  0.15962
      25     H     0.41821  0.41821  0.00000  0.16358

   Total alpha = 36.00000, Total beta = 36.00000, Total charge =  0.00000
