  ==> Input File <==

--------------------------------------------------------------------------
set {
	reference rhf
	basis 6-31G*
}

set_num_threads( 1 )
memory 2 gb

molecule MOL {
0 1

H	 -3.420663	 1.227371	 -1.044276
O	 -3.452007	 0.283848	 -0.965577
C	 -3.181085	 -0.079926	 0.364119
C	 -1.765924	 0.277073	 0.805136
H	 -3.327791	 -1.152017	 0.410903
H	 -3.905698	 0.375695	 1.036898
C	 -0.677594	 -0.417312	 -0.014550
H	 -1.637766	 1.358238	 0.744969
H	 -1.659588	 0.017670	 1.857098
C	 0.738335	 -0.034840	 0.421385
H	 -0.814977	 -0.178223	 -1.064632
H	 -0.802730	 -1.495410	 0.071702
C	 1.822265	 -0.738362	 -0.399735
H	 0.853533	 1.043532	 0.342250
H	 0.871597	 -0.279636	 1.474438
C	 1.896146	 -2.256253	 -0.197988
H	 2.791079	 -0.298505	 -0.168176
H	 1.643996	 -0.538994	 -1.454386
C	 2.323456	 -2.691211	 1.205088
H	 2.600107	 -2.665383	 -0.918641
H	 0.930084	 -2.697880	 -0.434404
H	 3.281467	 -2.254140	 1.474019
H	 2.427100	 -3.770640	 1.259212
H	 1.601742	 -2.396226	 1.959592

	symmetry c1
}
set optking {
	frozen_dihedral = ("
		20 16 13 17,
		13 10 7 11,
		11 7 4 3,
		1 2 3 5,
		7 4 3 2
	")
}

ee = energy('scf')
oeprop('DIPOLE', 'QUADRUPOLE', 'MULLIKEN_CHARGES')
f=open( 'psi4out.xyz', 'w' )
f.write( "24  " )
f.write( str(ee) + "\n" )
f.write( MOL.save_string_xyz() )
f.close()
--------------------------------------------------------------------------

    Molecular point group: c1

    Geometry (in Angstrom), charge = 0, multiplicity = 1:

       Center              X                  Y                   Z               Mass
    ------------   -----------------  -----------------  -----------------  -----------------
           H         -3.077013015545     1.921149454410    -1.185053559207     1.007825032070
           O         -3.108357015545     0.977626454410    -1.106354559207    15.994914619560
           C         -2.837435015545     0.613852454410     0.223341440793    12.000000000000
           C         -1.422274015545     0.970851454410     0.664358440793    12.000000000000
           H         -2.984141015545    -0.458238545590     0.270125440793     1.007825032070
           H         -3.562048015545     1.069473454410     0.896120440793     1.007825032070
           C         -0.333944015545     0.276466454410    -0.155327559207    12.000000000000
           H         -1.294116015545     2.052016454410     0.604191440793     1.007825032070
           H         -1.315938015545     0.711448454410     1.716320440793     1.007825032070
           C          1.081984984455     0.658938454410     0.280607440793    12.000000000000
           H         -0.471327015545     0.515555454410    -1.205409559207     1.007825032070
           H         -0.459080015545    -0.801631545590    -0.069075559207     1.007825032070
           C          2.165914984455    -0.044583545590    -0.540512559207    12.000000000000
           H          1.197182984455     1.737310454410     0.201472440793     1.007825032070
           H          1.215246984455     0.414142454410     1.333660440793     1.007825032070
           C          2.239795984455    -1.562474545590    -0.338765559207    12.000000000000
           H          3.134728984455     0.395273454410    -0.308953559207     1.007825032070
           H          1.987645984455     0.154784454410    -1.595163559207     1.007825032070
           C          2.667105984455    -1.997432545590     1.064310440793    12.000000000000
           H          2.943756984455    -1.971604545590    -1.059418559207     1.007825032070
           H          1.273733984455    -2.004101545590    -0.575181559207     1.007825032070
           H          3.625116984455    -1.560361545590     1.333241440793     1.007825032070
           H          2.770749984455    -3.076861545590     1.118434440793     1.007825032070
           H          1.945391984455    -1.702447545590     1.818814440793     1.007825032070

  Charge       = 0
  Multiplicity = 1
  Basis Set: 6-31G*
  Basis Set:

    Orbital Energies (a.u.)
    -----------------------

    Doubly Occupied:

       1A    -20.553606     2A    -11.267718     3A    -11.217443
       4A    -11.213103     5A    -11.212138     6A    -11.211362
       7A    -11.210429     8A    -11.207404     9A     -1.360196
      10A     -1.090144    11A     -1.046246    12A     -0.984577
      13A     -0.915433    14A     -0.852973    15A     -0.809133
      16A     -0.763422    17A     -0.680283    18A     -0.653039
      19A     -0.624692    20A     -0.617357    21A     -0.609117
      22A     -0.573554    23A     -0.558068    24A     -0.544729
      25A     -0.521678    26A     -0.509245    27A     -0.494606
      28A     -0.475519    29A     -0.468247    30A     -0.461342
      31A     -0.450772    32A     -0.445603    33A     -0.419855

  @DF-RHF Final Energy:  -349.24544082274701

   => Energetics <=

    Nuclear Repulsion Energy =            391.5126035339477539
    One-Electron Energy =               -1249.4699888215823194
    Two-Electron Energy =                 508.7119444648865283
    DFT Exchange-Correlation Energy =       0.0000000000000000
    Empirical Dispersion Energy =           0.0000000000000000
    PCM Polarization Energy =               0.0000000000000000
    EFP Energy =                            0.0000000000000000
    Total Energy =                       -349.2454408227480371

  Mulliken Charges: (a.u.)
   Center  Symbol    Alpha    Beta     Spin     Total
       1     H     0.28336  0.28336  0.00000  0.43327
       2     O     4.36831  4.36831  0.00000 -0.73662
       3     C     2.99604  2.99604  0.00000  0.00792
       4     C     3.16820  3.16820  0.00000 -0.33641
       5     H     0.41648  0.41648  0.00000  0.16703
       6     H     0.42824  0.42824  0.00000  0.14352
       7     C     3.15456  3.15456  0.00000 -0.30912
       8     H     0.42839  0.42839  0.00000  0.14322
       9     H     0.42260  0.42260  0.00000  0.15480
      10     C     3.15535  3.15535  0.00000 -0.31070
      11     H     0.41222  0.41222  0.00000  0.17556
      12     H     0.42197  0.42197  0.00000  0.15605
      13     C     3.15402  3.15402  0.00000 -0.30805
      14     H     0.42240  0.42240  0.00000  0.15521
      15     H     0.42338  0.42338  0.00000  0.15325
      16     C     3.15547  3.15547  0.00000 -0.31094
      17     H     0.42272  0.42272  0.00000  0.15457
      18     H     0.42179  0.42179  0.00000  0.15642
      19     C     3.24075  3.24075  0.00000 -0.48149
      20     H     0.42045  0.42045  0.00000  0.15910
      21     H     0.42047  0.42047  0.00000  0.15906
      22     H     0.42215  0.42215  0.00000  0.15571
      23     H     0.41921  0.41921  0.00000  0.16158
      24     H     0.42147  0.42147  0.00000  0.15707

   Total alpha = 33.00000, Total beta = 33.00000, Total charge =  0.00000
