                              Psi4 1.0.54 Driver

  ==> Input File <==

--------------------------------------------------------------------------
set {
	reference rhf
	basis cc-pvtz
}

set_num_threads( 4 )
memory 2 gb

molecule MOL {
0 1

H	 1.080577	 0.698051	 1.598322
C	 1.152317	 0.358788	 0.555925
C	 0.062554	 0.862911	 -0.350953
O	 2.043142	 -0.342696	 0.221999
C	 -1.339253	 0.577611	 0.196911
H	 0.201825	 0.427690	 -1.332115
H	 0.200689	 1.938298	 -0.437766
C	 -1.813142	 -0.849710	 -0.061612
H	 -2.032833	 1.276441	 -0.256032
H	 -1.357249	 0.782269	 1.263793
H	 -1.839268	 -1.063526	 -1.124230
H	 -2.810118	 -1.001930	 0.334000
H	 -1.159274	 -1.579980	 0.402282

	symmetry c1
}
set optking {
	frozen_dihedral = ("
		6 3 5 9
	")
}

ee,wfn = optimize('scf', return_wfn=True)
oeprop( wfn, 'DIPOLE', 'QUADRUPOLE', 'MULLIKEN_CHARGES')
f=open( 'psi4out.xyz', 'w' )
f.write( "13  " )
f.write( str(ee) + "\n" )
f.write( MOL.save_string_xyz() )
f.close()
--------------------------------------------------------------------------

    Molecular point group: c1
  Charge       = 0
  Multiplicity = 1
  Basis Set: CC-PVTZ
  Basis Set:
  @DF-RHF Final Energy:  -231.07006474282255
    Total Energy =                       -231.0700647428224954
    Molecular point group: c1
  Basis Set: CC-PVTZ
  Basis Set:
  Basis Set: CC-PVTZ
  Basis Set:
  @DF-RHF Final Energy:  -231.07016061725102
    Total Energy =                       -231.0701606172508775
  Basis Set: CC-PVTZ
  Basis Set:
  Basis Set: CC-PVTZ
  Basis Set:
  @DF-RHF Final Energy:  -231.06946463871665
    Total Energy =                       -231.0694646387166813
  Basis Set: CC-PVTZ
  Basis Set:
  Basis Set: CC-PVTZ
  Basis Set:
  @DF-RHF Final Energy:  -231.07019086307847
    Total Energy =                       -231.0701908630784089
  Basis Set: CC-PVTZ
  Basis Set:
  Basis Set: CC-PVTZ
  Basis Set:
  @DF-RHF Final Energy:  -231.07019790323034
    Total Energy =                       -231.0701979032302802
  Basis Set: CC-PVTZ
  Basis Set:
  Basis Set: CC-PVTZ
  Basis Set:
  @DF-RHF Final Energy:  -231.07019940343474
    Total Energy =                       -231.0701994034348559
  Basis Set: CC-PVTZ
  Basis Set:
  Basis Set: CC-PVTZ
  Basis Set:
  @DF-RHF Final Energy:  -231.07020044253687
    Total Energy =                       -231.0702004425368727
  Basis Set: CC-PVTZ
  Basis Set:
  Charge       = 0
  Multiplicity = 1
  Basis Set: CC-PVTZ
  Basis Set:

    Orbital Energies (a.u.)
    -----------------------

    Doubly Occupied:

       1A    -20.552895     2A    -11.321861     3A    -11.236973
       4A    -11.234772     5A    -11.219063     6A     -1.407818
       7A     -1.087475     8A     -0.974439     9A     -0.845999
      10A     -0.791445    11A     -0.669895    12A     -0.652215
      13A     -0.628187    14A     -0.592596    15A     -0.560808
      16A     -0.538955    17A     -0.505055    18A     -0.495380
      19A     -0.483541    20A     -0.413101

  @DF-RHF Final Energy:  -231.07020052851240

   => Energetics <=

    Nuclear Repulsion Energy =            173.8206162576929898
    One-Electron Energy =                -657.3566858784261058
    Two-Electron Energy =                 252.4658690922208848
    DFT Exchange-Correlation Energy =       0.0000000000000000
    Empirical Dispersion Energy =           0.0000000000000000
    PCM Polarization Energy =               0.0000000000000000
    EFP Energy =                            0.0000000000000000
    Total Energy =                       -231.0702005285122027
    Molecular point group: c1
  Basis Set: CC-PVTZ
  Basis Set:

  -Total Gradient:
     Atom            X                  Y                   Z
    ------   -----------------  -----------------  -----------------
       1       -0.000005859568     0.000003724863     0.000000335589
       2        0.000032439835    -0.000023743830     0.000009050806
       3       -0.000947763968     0.002884440433    -0.000872301933
       4       -0.000024610177     0.000018396606    -0.000000820262
       5       -0.000221559657    -0.002382568974    -0.001905970363
       6        0.000808773145    -0.002010839731     0.001002731972
       7        0.000002592115    -0.000003987194     0.000003159170
       8        0.000000723520     0.000009577390     0.000003917258
       9        0.000353750698     0.001507360385     0.001759841620
      10       -0.000000433897     0.000000414602     0.000000659692
      11       -0.000000003034     0.000000362003    -0.000003393970
      12       -0.000000519741     0.000000518658     0.000001748398
      13        0.000002470730    -0.000003655212     0.000001042024

  **** Optimization is complete! (in 8 steps) ****
    Final optimized geometry and variables:
    Molecular point group: c1

    Geometry (in Angstrom), charge = 0, multiplicity = 1:

    H            1.075344023699     0.606821206773     1.481273918214
    C            1.124063928446     0.251367344881     0.443103256219
    C            0.050502298084     0.791966640629    -0.463960020889
    O            1.976147363385    -0.498724717060     0.113825379623
    C           -1.356154508116     0.495832941173     0.071955497319
    H            0.200457234347     0.361014309034    -1.445327603006
    H            0.200451224642     1.866366992255    -0.527577138327
    C           -1.803923728922    -0.942007781599    -0.167275681981
    H           -2.057785167226     1.187564288761    -0.379015118985
    H           -1.382511768631     0.712221472495     1.137121134011
    H           -1.845736051425    -1.163775020726    -1.227643794436
    H           -2.789348189162    -1.113873095999     0.248812356973
    H           -1.122612659437    -1.651488614652     0.289163902597

  Mulliken Charges: (a.u.)
   Center  Symbol    Alpha    Beta     Spin     Total
       1     H     0.46582  0.46582  0.00000  0.06835
       2     C     2.90549  2.90549  0.00000  0.18901
       3     C     3.08565  3.08565  0.00000 -0.17129
       4     O     4.16420  4.16420  0.00000 -0.32840
       5     C     3.10171  3.10171  0.00000 -0.20342
       6     H     0.44465  0.44465  0.00000  0.11070
       7     H     0.44211  0.44211  0.00000  0.11578
       8     C     3.14363  3.14363  0.00000 -0.28727
       9     H     0.44386  0.44386  0.00000  0.11229
      10     H     0.45354  0.45354  0.00000  0.09293
      11     H     0.45197  0.45197  0.00000  0.09607
      12     H     0.44688  0.44688  0.00000  0.10624
      13     H     0.45049  0.45049  0.00000  0.09901

   Total alpha = 20.00000, Total beta = 20.00000, Total charge = -0.00000

*** Psi4 exiting successfully. Buy a developer a beer!
