  ==> Input File <==

--------------------------------------------------------------------------
set {
	reference rhf
	basis 6-31G*
}

set_num_threads( 4 )
memory 2 gb

molecule MOL {
0 1

H	 -3.420663	 1.227371	 -1.044276
O	 -3.452007	 0.283848	 -0.965577
C	 -3.181085	 -0.079926	 0.364119
C	 -1.765924	 0.277073	 0.805136
H	 -3.327791	 -1.152017	 0.410903
H	 -3.905698	 0.375695	 1.036898
C	 -0.677594	 -0.417312	 -0.014550
H	 -1.637766	 1.358238	 0.744969
H	 -1.659588	 0.017670	 1.857098
C	 0.738335	 -0.034840	 0.421385
H	 -0.814977	 -0.178223	 -1.064632
H	 -0.802730	 -1.495410	 0.071702
C	 1.116710	 1.393744	 0.021302
H	 0.820512	 -0.152917	 1.499218
H	 1.452650	 -0.730492	 -0.017277
C	 2.557788	 1.793927	 0.357907
H	 0.430389	 2.093671	 0.495393
H	 0.969424	 1.505217	 -1.050937
C	 2.865219	 1.863706	 1.854911
H	 2.756840	 2.767281	 -0.083963
H	 3.245043	 1.098482	 -0.119838
H	 2.184666	 2.542910	 2.361536
H	 3.875754	 2.222683	 2.024593
H	 2.780958	 0.893346	 2.332891

	symmetry c1
}
set optking {
	frozen_dihedral = ("
		13 10 7 11
	")
}

ee = optimize('scf')
oeprop('DIPOLE', 'QUADRUPOLE', 'MULLIKEN_CHARGES')
f=open( 'psi4out.xyz', 'w' )
f.write( "24  " )
f.write( str(ee) + "\n" )
f.write( MOL.save_string_xyz() )
f.close()
--------------------------------------------------------------------------

    Molecular point group: c1
  Charge       = 0
  Multiplicity = 1
  Basis Set: 6-31G*
  Basis Set:
  @DF-RHF Final Energy:  -349.24544603457730
    Total Energy =                       -349.2454460345770144
    Molecular point group: c1
  Basis Set: 6-31G*
  Basis Set:
  Basis Set: 6-31G*
  Basis Set:
  @DF-RHF Final Energy:  -349.24569207037655
    Total Energy =                       -349.2456920703766627
  Basis Set: 6-31G*
  Basis Set:
  Basis Set: 6-31G*
  Basis Set:
  @DF-RHF Final Energy:  -349.24578874008807
    Total Energy =                       -349.2457887400880168
  Basis Set: 6-31G*
  Basis Set:
  Basis Set: 6-31G*
  Basis Set:
  @DF-RHF Final Energy:  -349.24582494477522
    Total Energy =                       -349.2458249447747676
  Basis Set: 6-31G*
  Basis Set:
  Basis Set: 6-31G*
  Basis Set:
  @DF-RHF Final Energy:  -349.24582948068326
    Total Energy =                       -349.2458294806832555
  Basis Set: 6-31G*
  Basis Set:
  Charge       = 0
  Multiplicity = 1
  Basis Set: 6-31G*
  Basis Set:

    Orbital Energies (a.u.)
    -----------------------

    Doubly Occupied:

       1A    -20.553438     2A    -11.267560     3A    -11.216927
       4A    -11.215107     5A    -11.213240     6A    -11.212567
       7A    -11.211507     8A    -11.208208     9A     -1.360024
      10A     -1.088967    11A     -1.047457    12A     -0.984777
      13A     -0.916219    14A     -0.852926    15A     -0.806910
      16A     -0.769977    17A     -0.678860    18A     -0.646672
      19A     -0.630235    20A     -0.616389    21A     -0.600673
      22A     -0.580023    23A     -0.570259    24A     -0.532435
      25A     -0.525428    26A     -0.510115    27A     -0.492026
      28A     -0.483385    29A     -0.469282    30A     -0.457921
      31A     -0.451894    32A     -0.443122    33A     -0.421912

  @DF-RHF Final Energy:  -349.24583016268770

   => Energetics <=

    Nuclear Repulsion Energy =            389.2598764417270445
    One-Electron Energy =               -1244.9385274537773967
    Two-Electron Energy =                 506.4328208493630541
    DFT Exchange-Correlation Energy =       0.0000000000000000
    Empirical Dispersion Energy =           0.0000000000000000
    PCM Polarization Energy =               0.0000000000000000
    EFP Energy =                            0.0000000000000000
    Total Energy =                       -349.2458301626872412
    Molecular point group: c1
  Basis Set: 6-31G*
  Basis Set:

  -Total Gradient:
     Atom            X                  Y                   Z
    ------   -----------------  -----------------  -----------------
       1        0.000002546332    -0.000007365016     0.000007205630
       2        0.000023172822    -0.000021093634    -0.000019633237
       3       -0.000022362084     0.000068859008     0.000010504307
       4       -0.000021371505    -0.000035391906    -0.000001374665
       5        0.000013953149     0.000006892035     0.000000197813
       6       -0.000000374041    -0.000003681512     0.000012601151
       7        0.000518906573    -0.001289074506    -0.000572989370
       8       -0.000019818455    -0.000013450368     0.000000520369
       9       -0.000003087979    -0.000008002718     0.000001411604
      10       -0.000457497611     0.000608748759     0.000973931130
      11       -0.000353051521     0.000933117690     0.000240942194
      12       -0.000014834396     0.000002786666    -0.000004288583
      13        0.000328647374    -0.000288157192    -0.000672212955
      14        0.000016102293    -0.000009056694     0.000011787070
      15        0.000008600087     0.000004205284     0.000010396293
      16       -0.000029974561     0.000056606641     0.000009957874
      17        0.000027987522    -0.000014345293     0.000016600350
      18        0.000015002871     0.000035651174    -0.000008492679
      19       -0.000007472119    -0.000001467812    -0.000009858596
      20        0.000003554612     0.000003329998    -0.000021382493
      21       -0.000019385165    -0.000016121085     0.000015585389
      22        0.000000514087     0.000000325504     0.000002407769
      23        0.000002258051    -0.000000175238    -0.000008881512
      24       -0.000012016325    -0.000013139784     0.000005065150

  **** Optimization is complete! (in 6 steps) ****
    Final optimized geometry and variables:
    Molecular point group: c1

    Geometry (in Angstrom), charge = 0, multiplicity = 1:

    H           -3.203343317040     0.496222941432    -1.437102656772
    O           -3.197397778517    -0.445772962441    -1.337318420716
    C           -2.927298171994    -0.768514341874     0.003162609483
    C           -1.533963790168    -0.340939715467     0.451648197869
    H           -3.028347881363    -1.844628261031     0.071768966705
    H           -3.678849070855    -0.330199448267     0.657621077676
    C           -0.411367765654    -1.013626239941    -0.343090290433
    H           -1.459002023660     0.742459500138     0.372533753216
    H           -1.428088305343    -0.576667253222     1.509449785686
    C            1.001882281607    -0.618547714779     0.104199462531
    H           -0.539372406538    -0.785603733568    -1.396718084467
    H           -0.521844405027    -2.091549861412    -0.245890608637
    C            1.411917533678     0.804789671873    -0.290044442888
    H            1.086342264863    -0.750913233157     1.180140509971
    H            1.710532628010    -1.313141569254    -0.342967919102
    C            2.874163931983     1.149681052492     0.016171401874
    H            0.770040786446     1.530842989648     0.204420479007
    H            1.244993150415     0.928243586953    -1.358296799197
    C            3.216667710594     1.196870222781     1.506390079775
    H            3.099271369637     2.118148899993    -0.423991997812
    H            3.523968418186     0.432438336886    -0.481085562803
    H            2.574356489409     1.898310729327     2.032407643035
    H            4.243819222665     1.515296360312     1.655885320745
    H            3.104923741126     0.227098691075     1.979748462625

  Mulliken Charges: (a.u.)
   Center  Symbol    Alpha    Beta     Spin     Total
       1     H     0.28336  0.28336  0.00000  0.43327
       2     O     4.36834  4.36834  0.00000 -0.73667
       3     C     2.99631  2.99631  0.00000  0.00739
       4     C     3.17000  3.17000  0.00000 -0.33999
       5     H     0.41646  0.41646  0.00000  0.16708
       6     H     0.42819  0.42819  0.00000  0.14361
       7     C     3.15349  3.15349  0.00000 -0.30698
       8     H     0.42649  0.42649  0.00000  0.14702
       9     H     0.42279  0.42279  0.00000  0.15442
      10     C     3.15557  3.15557  0.00000 -0.31113
      11     H     0.41243  0.41243  0.00000  0.17514
      12     H     0.42169  0.42169  0.00000  0.15663
      13     C     3.15386  3.15386  0.00000 -0.30772
      14     H     0.42290  0.42290  0.00000  0.15421
      15     H     0.42155  0.42155  0.00000  0.15689
      16     C     3.15211  3.15211  0.00000 -0.30422
      17     H     0.42479  0.42479  0.00000  0.15042
      18     H     0.42212  0.42212  0.00000  0.15577
      19     C     3.24097  3.24097  0.00000 -0.48195
      20     H     0.42145  0.42145  0.00000  0.15711
      21     H     0.42303  0.42303  0.00000  0.15394
      22     H     0.42299  0.42299  0.00000  0.15401
      23     H     0.41932  0.41932  0.00000  0.16135
      24     H     0.41979  0.41979  0.00000  0.16042

   Total alpha = 33.00000, Total beta = 33.00000, Total charge = -0.00000
