  ==> Input File <==

--------------------------------------------------------------------------
set {
	reference rhf
	basis cc-pvtz
}

set_num_threads( 4 )
memory 2 gb

molecule MOL {
0 1

H	 -3.268214	 -0.875720	 0.463107
C	 -2.806015	 0.000007	 0.024886
N	 -1.391133	 0.000016	 0.301321
H	 -3.029448	 0.000055	 -1.045738
H	 -3.268126	 0.875758	 0.463150
C	 -0.763189	 1.257482	 -0.042253
C	 -0.706813	 -1.106870	 -0.331168
H	 -0.851168	 1.467968	 -1.112208
H	 -1.264449	 2.056832	 0.490534
C	 0.705160	 1.245868	 0.339622
H	 -1.166906	 -2.033588	 -0.009302
H	 -0.790944	 -1.057557	 -1.420818
C	 0.761537	 -1.118483	 0.050707
H	 1.165253	 2.172586	 0.017756
H	 0.789292	 1.196556	 1.429272
N	 1.389480	 0.138983	 -0.292867
H	 1.262796	 -1.917833	 -0.482080
H	 0.849515	 -1.328969	 1.120663
C	 2.804362	 0.138992	 -0.016432
H	 3.245051	 1.072100	 -0.344557
H	 3.286459	 -0.665954	 -0.556993
H	 3.029278	 0.014408	 1.046606

	symmetry c1
}
set optking {
	frozen_dihedral = ("
		6 3 2 4
	")
}

ee = optimize('scf')
oeprop('DIPOLE', 'QUADRUPOLE', 'MULLIKEN_CHARGES')
f=open( 'psi4out.xyz', 'w' )
f.write( "22  " )
f.write( str(ee) + "\n" )
f.write( MOL.save_string_xyz() )
f.close()
--------------------------------------------------------------------------

    Molecular point group: c1
  Charge       = 0
  Multiplicity = 1
  Basis Set: CC-PVTZ
  Basis Set:
  @DF-RHF Final Energy:  -344.35049935539826
    Total Energy =                       -344.3504993553982558
    Molecular point group: c1
  Basis Set: CC-PVTZ
  Basis Set:
  Basis Set: CC-PVTZ
  Basis Set:
  @DF-RHF Final Energy:  -344.35052902276772
    Total Energy =                       -344.3505290227680007
  Basis Set: CC-PVTZ
  Basis Set:
  Charge       = 0
  Multiplicity = 1
  Basis Set: CC-PVTZ
  Basis Set:

    Orbital Energies (a.u.)
    -----------------------

    Doubly Occupied:

       1A    -15.537689     2A    -15.537172     3A    -11.237619
       4A    -11.237589     5A    -11.236968     6A    -11.236937
       7A    -11.234315     8A    -11.234311     9A     -1.257492
      10A     -1.206487    11A     -1.026108    12A     -0.993065
      13A     -0.912286    14A     -0.868403    15A     -0.836302
      16A     -0.755190    17A     -0.667002    18A     -0.638507
      19A     -0.632533    20A     -0.627487    21A     -0.623205
      22A     -0.582450    23A     -0.550032    24A     -0.546854
      25A     -0.542809    26A     -0.517657    27A     -0.496835
      28A     -0.491197    29A     -0.466830    30A     -0.457506
      31A     -0.352524    32A     -0.347000

  @DF-RHF Final Energy:  -344.35053142617670

   => Energetics <=

    Nuclear Repulsion Energy =            421.9902420434162309
    One-Electron Energy =               -1302.9048307393079540
    Two-Electron Energy =                 536.5640572697150219
    DFT Exchange-Correlation Energy =       0.0000000000000000
    Empirical Dispersion Energy =           0.0000000000000000
    PCM Polarization Energy =               0.0000000000000000
    EFP Energy =                            0.0000000000000000
    Total Energy =                       -344.3505314261767580
    Molecular point group: c1
  Basis Set: CC-PVTZ
  Basis Set:

  -Total Gradient:
     Atom            X                  Y                   Z
    ------   -----------------  -----------------  -----------------
       1        0.000049607671    -0.000008271707    -0.000005854712
       2       -0.000175513217     0.002280487875     0.000346467686
       3        0.000323015968    -0.000999503030    -0.001368860454
       4        0.000017414108    -0.001627601568     0.000010376123
       5        0.000021235332    -0.000011657968     0.000031104150
       6       -0.000166798686     0.000526030722     0.000980657867
       7        0.000053660279    -0.000045056113    -0.000102930733
       8       -0.000021060739    -0.000013465574    -0.000003162741
       9       -0.000005778286    -0.000047301719     0.000020638331
      10       -0.000048051325    -0.000096453653     0.000050647000
      11       -0.000024045341     0.000020388258     0.000024860290
      12        0.000006142331    -0.000010287122     0.000019842967
      13       -0.000037805993     0.000021639765    -0.000008691481
      14       -0.000026037262     0.000000076496    -0.000009354068
      15        0.000023528540    -0.000000232654     0.000016497184
      16        0.000003838989    -0.000007205619    -0.000001686483
      17       -0.000000819811    -0.000008527018    -0.000002554361
      18       -0.000004765833     0.000005704332    -0.000004915487
      19        0.000006410238     0.000014901672     0.000010504730
      20        0.000009149595     0.000004421275     0.000000223133
      21       -0.000003516293     0.000001846488    -0.000002338161
      22        0.000000189731     0.000000066864    -0.000001470780

  **** Optimization is complete! (in 3 steps) ****
    Final optimized geometry and variables:
    Molecular point group: c1

    Geometry (in Angstrom), charge = 0, multiplicity = 1:

    H           -3.257477410114    -0.958150801553     0.451338134865
    C           -2.806285173340    -0.071207830825     0.022591239050
    N           -1.389821203676    -0.065398326770     0.289161120219
    H           -3.037976246709    -0.067357154160    -1.046274713095
    H           -3.273519417533     0.793088461824     0.476467882440
    C           -0.760721839645     1.192274597297    -0.049429731843
    C           -0.706465821572    -1.176265254470    -0.334877362823
    H           -0.845443344242     1.408546176298    -1.118730537997
    H           -1.261226404846     1.989776528934     0.486496364222
    C            0.706940703081     1.175988007966     0.335603309120
    H           -1.169745047368    -2.100349858620    -0.009135044852
    H           -0.788676101669    -1.132867359325    -1.425001957640
    C            0.761172029508    -1.188585346788     0.049614914861
    H            1.170222837449     2.101846362538     0.015613755759
    H            0.788243567998     1.125720961889     1.425551804389
    N            1.390292031345     0.067774766498    -0.295486308398
    H            1.262788792717    -1.989558684707    -0.480572019630
    H            0.847262155629    -1.396830229574     1.120225732718
    C            2.805014267216     0.066915565530    -0.018950917013
    H            3.246641627392     0.999214211362    -0.348309963761
    H            3.286536517971    -0.739253381165    -0.558309581197
    H            3.029944423906    -0.056363199337     1.044331172359

  Mulliken Charges: (a.u.)
   Center  Symbol    Alpha    Beta     Spin     Total
       1     H     0.45168  0.45168  0.00000  0.09664
       2     C     3.09830  3.09830  0.00000 -0.19661
       3     N     3.61298  3.61298  0.00000 -0.22597
       4     H     0.46985  0.46985  0.00000  0.06030
       5     H     0.45239  0.45239  0.00000  0.09522
       6     C     3.03465  3.03465  0.00000 -0.06930
       7     C     3.03559  3.03559  0.00000 -0.07117
       8     H     0.46873  0.46873  0.00000  0.06254
       9     H     0.45375  0.45375  0.00000  0.09250
      10     C     3.03565  3.03565  0.00000 -0.07131
      11     H     0.45398  0.45398  0.00000  0.09203
      12     H     0.46775  0.46775  0.00000  0.06449
      13     C     3.03540  3.03540  0.00000 -0.07079
      14     H     0.45384  0.45384  0.00000  0.09232
      15     H     0.46813  0.46813  0.00000  0.06373
      16     N     3.61311  3.61311  0.00000 -0.22622
      17     H     0.45380  0.45380  0.00000  0.09239
      18     H     0.46806  0.46806  0.00000  0.06387
      19     C     3.09840  3.09840  0.00000 -0.19680
      20     H     0.45193  0.45193  0.00000  0.09615
      21     H     0.45194  0.45194  0.00000  0.09612
      22     H     0.47008  0.47008  0.00000  0.05985

   Total alpha = 32.00000, Total beta = 32.00000, Total charge =  0.00000
