                              Psi4 1.0.54 Driver

  ==> Input File <==

--------------------------------------------------------------------------
set {
	reference rhf
	basis cc-pvtz
}

set_num_threads( 4 )
memory 2 gb

molecule MOL {
0 1

H	 2.359779	 -1.179865	 -0.161167
O	 1.675667	 -0.613007	 -0.465662
C	 1.136025	 0.113327	 0.608229
C	 0.027794	 1.011963	 0.090239
H	 1.903124	 0.727904	 1.072580
H	 0.756315	 -0.561960	 1.369983
C	 -1.138585	 0.285664	 -0.581956
H	 0.464813	 1.708032	 -0.618287
H	 -0.340585	 1.603007	 0.925211
C	 -1.933831	 -0.631500	 0.343618
H	 -0.762999	 -0.285633	 -1.422116
H	 -1.808207	 1.035227	 -0.992368
H	 -2.789036	 -1.049737	 -0.174753
H	 -1.335477	 -1.461432	 0.700383
H	 -2.305283	 -0.092231	 1.209690

	symmetry c1
}
ee,wfn = energy('scf', return_wfn=True)
oeprop( wfn, 'DIPOLE', 'QUADRUPOLE', 'MULLIKEN_CHARGES')
oeprop( wfn, 'GRID_ESP')
f=open( 'psi4out.xyz', 'w' )
f.write( "15  " )
f.write( str(ee) + "\n" )
f.write( MOL.save_string_xyz() )
f.close()
--------------------------------------------------------------------------

    Molecular point group: c1

    Geometry (in Angstrom), charge = 0, multiplicity = 1:

       Center              X                  Y                   Z               Mass
    ------------   -----------------  -----------------  -----------------  -----------------
           H          2.359627189335    -1.179800662320    -0.161132321792     1.007825032070
           O          1.675515189335    -0.612942662320    -0.465627321792    15.994914619560
           C          1.135873189335     0.113391337680     0.608263678208    12.000000000000
           C          0.027642189335     1.012027337680     0.090273678208    12.000000000000
           H          1.902972189335     0.727968337680     1.072614678208     1.007825032070
           H          0.756163189335    -0.561895662320     1.370017678208     1.007825032070
           C         -1.138736810665     0.285728337680    -0.581921321792    12.000000000000
           H          0.464661189335     1.708096337680    -0.618252321792     1.007825032070
           H         -0.340736810665     1.603071337680     0.925245678208     1.007825032070
           C         -1.933982810665    -0.631435662320     0.343652678208    12.000000000000
           H         -0.763150810665    -0.285568662320    -1.422081321792     1.007825032070
           H         -1.808358810665     1.035291337680    -0.992333321792     1.007825032070
           H         -2.789187810665    -1.049672662320    -0.174718321792     1.007825032070
           H         -1.335628810665    -1.461367662320     0.700417678208     1.007825032070
           H         -2.305434810665    -0.092166662320     1.209724678208     1.007825032070

  Charge       = 0
  Multiplicity = 1
  Basis Set: CC-PVTZ
  Basis Set:

    Orbital Energies (a.u.)
    -----------------------

    Doubly Occupied:

       1A    -20.546565     2A    -11.265383     3A    -11.210997
       4A    -11.207371     5A    -11.203144     6A     -1.364318
       7A     -1.065398     8A     -0.971617     9A     -0.869520
      10A     -0.775330    11A     -0.707092    12A     -0.650213
      13A     -0.609295    14A     -0.574754    15A     -0.566164
      16A     -0.533294    17A     -0.511120    18A     -0.475800
      19A     -0.467672    20A     -0.453128    21A     -0.433471

  @DF-RHF Final Energy:  -232.23763955258329

   => Energetics <=

    Nuclear Repulsion Energy =            191.9163401410638130
    One-Electron Energy =                -695.3847023461373738
    Two-Electron Energy =                 271.2307226524903285
    DFT Exchange-Correlation Energy =       0.0000000000000000
    Empirical Dispersion Energy =           0.0000000000000000
    PCM Polarization Energy =               0.0000000000000000
    EFP Energy =                            0.0000000000000000
    Total Energy =                       -232.2376395525832322

  Mulliken Charges: (a.u.)
   Center  Symbol    Alpha    Beta     Spin     Total
       1     H     0.39553  0.39553  0.00000  0.20893
       2     O     4.19924  4.19924  0.00000 -0.39849
       3     C     2.97594  2.97594  0.00000  0.04813
       4     C     3.09486  3.09486  0.00000 -0.18972
       5     H     0.46320  0.46320  0.00000  0.07360
       6     H     0.47232  0.47232  0.00000  0.05535
       7     C     3.08588  3.08588  0.00000 -0.17177
       8     H     0.44848  0.44848  0.00000  0.10304
       9     H     0.45462  0.45462  0.00000  0.09075
      10     C     3.15505  3.15505  0.00000 -0.31011
      11     H     0.44652  0.44652  0.00000  0.10697
      12     H     0.45100  0.45100  0.00000  0.09799
      13     H     0.44666  0.44666  0.00000  0.10667
      14     H     0.45366  0.45366  0.00000  0.09269
      15     H     0.45703  0.45703  0.00000  0.08595

   Total alpha = 21.00000, Total beta = 21.00000, Total charge =  0.00000

*** Psi4 exiting successfully. Buy a developer a beer!
