  ==> Input File <==

--------------------------------------------------------------------------
set {
	reference rhf
	basis 6-31G*
}

set_num_threads( 1 )
memory 2 gb

molecule MOL {
0 1

H	 3.123278	 -1.185675	 1.026524
O	 2.826016	 -1.159218	 0.122261
C	 2.077727	 -0.067559	 -0.035091
C	 0.624473	 -0.343591	 0.253101
O	 2.542965	 0.974826	 -0.363729
C	 -0.265902	 0.883932	 0.072916
H	 0.324016	 -1.163849	 -0.390541
H	 0.565024	 -0.726111	 1.268924
C	 -1.728698	 0.646073	 0.462102
H	 -0.209144	 1.219470	 -0.958188
H	 0.135059	 1.692851	 0.673903
C	 -2.482460	 -0.343073	 -0.431425
H	 -2.245265	 1.602650	 0.432430
H	 -1.779332	 0.308348	 1.496285
C	 -3.960546	 -0.461025	 -0.060175
H	 -2.395034	 -0.026811	 -1.468912
H	 -2.024850	 -1.327147	 -0.371646
H	 -4.472726	 -1.168004	 -0.705284
H	 -4.465146	 0.496508	 -0.151489
H	 -4.081218	 -0.800940	 0.964585

	symmetry c1
}
set optking {
	frozen_dihedral = ("
		16 12 9 6,
		7 4 6 10,
		12 9 6 10,
		5 3 4 7
	")
}

ee = energy('scf')
oeprop('DIPOLE', 'QUADRUPOLE', 'MULLIKEN_CHARGES')
f=open( 'psi4out.xyz', 'w' )
f.write( "20  " )
f.write( str(ee) + "\n" )
f.write( MOL.save_string_xyz() )
f.close()
--------------------------------------------------------------------------

    Molecular point group: c1

    Geometry (in Angstrom), charge = 0, multiplicity = 1:

       Center              X                  Y                   Z               Mass
    ------------   -----------------  -----------------  -----------------  -----------------
           H          3.128541042847    -1.183440395394     1.016999135120     1.007825032070
           O          2.831279042847    -1.156983395394     0.112736135120    15.994914619560
           C          2.082990042847    -0.065324395394    -0.044615864880    12.000000000000
           C          0.629736042847    -0.341356395394     0.243576135120    12.000000000000
           O          2.548228042847     0.977060604606    -0.373253864880    15.994914619560
           C         -0.260638957153     0.886166604606     0.063391135120    12.000000000000
           H          0.329279042847    -1.161614395394    -0.400065864880     1.007825032070
           H          0.570287042847    -0.723876395394     1.259399135120     1.007825032070
           C         -1.723434957153     0.648307604606     0.452577135120    12.000000000000
           H         -0.203880957153     1.221704604606    -0.967712864880     1.007825032070
           H          0.140322042847     1.695085604606     0.664378135120     1.007825032070
           C         -2.477196957153    -0.340838395394    -0.440949864880    12.000000000000
           H         -2.240001957153     1.604884604606     0.422905135120     1.007825032070
           H         -1.774068957153     0.310582604606     1.486760135120     1.007825032070
           C         -3.955282957153    -0.458790395394    -0.069699864880    12.000000000000
           H         -2.389770957153    -0.024576395394    -1.478436864880     1.007825032070
           H         -2.019586957153    -1.324912395394    -0.381170864880     1.007825032070
           H         -4.467462957153    -1.165769395394    -0.714808864880     1.007825032070
           H         -4.459882957153     0.498742604606    -0.161013864880     1.007825032070
           H         -4.075954957153    -0.798705395394     0.955060135120     1.007825032070

  Charge       = 0
  Multiplicity = 1
  Basis Set: 6-31G*
  Basis Set:

    Orbital Energies (a.u.)
    -----------------------

    Doubly Occupied:

       1A    -20.597784     2A    -20.560060     3A    -11.379799
       4A    -11.241565     5A    -11.223513     6A    -11.221780
       7A    -11.221189     8A    -11.213441     9A     -1.468654
      10A     -1.368781    11A     -1.096963    12A     -1.040710
      13A     -0.959005    14A     -0.865510    15A     -0.818676
      16A     -0.784334    17A     -0.713283    18A     -0.679804
      19A     -0.661207    20A     -0.639858    21A     -0.617330
      22A     -0.588097    23A     -0.561788    24A     -0.554134
      25A     -0.529285    26A     -0.507950    27A     -0.500794
      28A     -0.492166    29A     -0.470695    30A     -0.464734
      31A     -0.458808    32A     -0.442846

  @DF-RHF Final Energy:  -383.92556198724827

   => Energetics <=

    Nuclear Repulsion Energy =            376.0907770494287092
    One-Electron Energy =               -1268.1437892988897147
    Two-Electron Energy =                 508.1274502622119940
    DFT Exchange-Correlation Energy =       0.0000000000000000
    Empirical Dispersion Energy =           0.0000000000000000
    PCM Polarization Energy =               0.0000000000000000
    EFP Energy =                            0.0000000000000000
    Total Energy =                       -383.9255619872490684

  Mulliken Charges: (a.u.)
   Center  Symbol    Alpha    Beta     Spin     Total
       1     H     0.26541  0.26541  0.00000  0.46918
       2     O     4.35756  4.35756  0.00000 -0.71512
       3     C     2.63501  2.63501  0.00000  0.72998
       4     C     3.21216  3.21216  0.00000 -0.42432
       5     O     4.25174  4.25174  0.00000 -0.50348
       6     C     3.15505  3.15505  0.00000 -0.31010
       7     H     0.39514  0.39514  0.00000  0.20972
       8     H     0.41089  0.41089  0.00000  0.17822
       9     C     3.15524  3.15524  0.00000 -0.31047
      10     H     0.41093  0.41093  0.00000  0.17813
      11     H     0.40972  0.40972  0.00000  0.18057
      12     C     3.15477  3.15477  0.00000 -0.30953
      13     H     0.41783  0.41783  0.00000  0.16434
      14     H     0.42509  0.42509  0.00000  0.14982
      15     C     3.23920  3.23920  0.00000 -0.47840
      16     H     0.42081  0.42081  0.00000  0.15838
      17     H     0.42320  0.42320  0.00000  0.15361
      18     H     0.41809  0.41809  0.00000  0.16383
      19     H     0.42043  0.42043  0.00000  0.15914
      20     H     0.42175  0.42175  0.00000  0.15649

   Total alpha = 32.00000, Total beta = 32.00000, Total charge =  0.00000
