                              Psi4 1.0.54 Driver

  ==> Input File <==

--------------------------------------------------------------------------
set {
	reference rhf
	basis cc-pvtz
}

set_num_threads( 4 )
memory 2 gb

molecule MOL {
0 1

O	 -1.278239	 1.034789	 -0.784693
C	 -1.204115	 0.062668	 -0.112312
C	 -2.386398	 -0.667698	 0.460323
O	 -0.068058	 -0.518372	 0.226882
H	 -2.382952	 -1.693172	 0.114333
H	 -3.296656	 -0.175702	 0.158400
H	 -2.312537	 -0.685191	 1.540100
C	 1.169086	 0.037484	 -0.230612
C	 2.117620	 -1.130672	 -0.411743
C	 1.674155	 1.063118	 0.768181
H	 0.985954	 0.517046	 -1.180123
H	 1.719080	 -1.839959	 -1.125765
H	 3.074780	 -0.778210	 -0.776883
H	 2.277560	 -1.644932	 0.528411
H	 2.617052	 1.476171	 0.429312
H	 0.968596	 1.875204	 0.874724
H	 1.831166	 0.603996	 1.737634

	symmetry c1
}
set optking {
	frozen_dihedral = ("
		11 8 4 2
	")
}

ee,wfn = optimize('scf', return_wfn=True)
oeprop( wfn, 'DIPOLE', 'QUADRUPOLE', 'MULLIKEN_CHARGES')
f=open( 'psi4out.xyz', 'w' )
f.write( "17  " )
f.write( str(ee) + "\n" )
f.write( MOL.save_string_xyz() )
f.close()
--------------------------------------------------------------------------

    Molecular point group: c1
  Charge       = 0
  Multiplicity = 1
  Basis Set: CC-PVTZ
  Basis Set:
  @DF-RHF Final Energy:  -345.04329724609619
    Total Energy =                       -345.0432972460963015
    Molecular point group: c1
  Basis Set: CC-PVTZ
  Basis Set:
  Basis Set: CC-PVTZ
  Basis Set:
  @DF-RHF Final Energy:  -345.04330919020094
    Total Energy =                       -345.0433091902003753
  Basis Set: CC-PVTZ
  Basis Set:
  Basis Set: CC-PVTZ
  Basis Set:
  @DF-RHF Final Energy:  -345.04322567925402
    Total Energy =                       -345.0432256792540784
  Basis Set: CC-PVTZ
  Basis Set:
  Basis Set: CC-PVTZ
  Basis Set:
  @DF-RHF Final Energy:  -345.04332399688735
    Total Energy =                       -345.0433239968876933
  Basis Set: CC-PVTZ
  Basis Set:
  Charge       = 0
  Multiplicity = 1
  Basis Set: CC-PVTZ
  Basis Set:

    Orbital Energies (a.u.)
    -----------------------

    Doubly Occupied:

       1A    -20.591119     2A    -20.531422     3A    -11.366853
       4A    -11.287712     5A    -11.230510     6A    -11.217829
       7A    -11.214719     8A     -1.468313     9A     -1.364516
      10A     -1.079706    11A     -1.005632    12A     -0.949001
      13A     -0.849804    14A     -0.768163    15A     -0.694798
      16A     -0.671861    17A     -0.662332    18A     -0.613903
      19A     -0.587215    20A     -0.579075    21A     -0.565204
      22A     -0.551174    23A     -0.537763    24A     -0.522222
      25A     -0.504161    26A     -0.483053    27A     -0.449805
      28A     -0.439374

  @DF-RHF Final Energy:  -345.04332519152638

   => Energetics <=

    Nuclear Repulsion Energy =            323.3433910160334790
    One-Electron Energy =               -1111.1989513577300386
    Two-Electron Energy =                 442.8122351501703520
    DFT Exchange-Correlation Energy =       0.0000000000000000
    Empirical Dispersion Energy =           0.0000000000000000
    PCM Polarization Energy =               0.0000000000000000
    EFP Energy =                            0.0000000000000000
    Total Energy =                       -345.0433251915262076
    Molecular point group: c1
  Basis Set: CC-PVTZ
  Basis Set:

  -Total Gradient:
     Atom            X                  Y                   Z
    ------   -----------------  -----------------  -----------------
       1       -0.000016897062    -0.000028970478     0.000014941829
       2       -0.000011633921    -0.000320327267    -0.000550592376
       3       -0.000000091208    -0.000025182235    -0.000000705320
       4        0.000018194619     0.000666452329     0.000835574186
       5        0.000004030564     0.000003437694     0.000004406198
       6        0.000001734388     0.000005350812    -0.000002802270
       7        0.000002456730     0.000009866377     0.000000613505
       8        0.000126785229    -0.000904256082    -0.000650526687
       9        0.000014729059    -0.000016254257    -0.000003576064
      10        0.000034788665    -0.000023761750     0.000007330374
      11       -0.000146377672     0.000604606715     0.000343844755
      12       -0.000000965366    -0.000000201816    -0.000001872812
      13       -0.000006051217     0.000004066741     0.000001075758
      14       -0.000005315837     0.000004795626     0.000001448301
      15        0.000001502542     0.000006491169    -0.000001101496
      16       -0.000008449056     0.000010292523     0.000006935270
      17       -0.000008440457     0.000003593897    -0.000004993152

  **** Optimization is complete! (in 5 steps) ****
    Final optimized geometry and variables:
    Molecular point group: c1

    Geometry (in Angstrom), charge = 0, multiplicity = 1:

    O           -1.290733147519     1.066524028634    -0.741966393215
    C           -1.208800234279     0.080874147437    -0.090627051676
    C           -2.384941734602    -0.664235900630     0.475684771588
    O           -0.069055828712    -0.503257673510     0.231012908752
    H           -2.381776076827    -1.682278213987     0.108433496003
    H           -3.298619642945    -0.168276649916     0.191142045804
    H           -2.302585842153    -0.703969231551     1.554243622281
    C            1.164503300061     0.052807813068    -0.235595332333
    C            2.116284627123    -1.110971700527    -0.426314692143
    C            1.667547003034     1.076944468429     0.765863259332
    H            0.973613836572     0.539440307686    -1.179273831213
    H            1.718347801103    -1.817404310669    -1.143564796091
    H            3.071251804937    -0.753209203279    -0.792081319269
    H            2.280603505828    -1.630236549835     0.510342578726
    H            2.606199134768     1.498975314348     0.426337241817
    H            0.955581413825     1.883588600412     0.877385194011
    H            1.829315565440     0.616295424363     1.733668693282

  Mulliken Charges: (a.u.)
   Center  Symbol    Alpha    Beta     Spin     Total
       1     O     4.19966  4.19966  0.00000 -0.39932
       2     C     2.80514  2.80514  0.00000  0.38972
       3     C     3.13948  3.13948  0.00000 -0.27896
       4     O     4.16473  4.16473  0.00000 -0.32946
       5     H     0.44606  0.44606  0.00000  0.10789
       6     H     0.43844  0.43844  0.00000  0.12313
       7     H     0.44610  0.44610  0.00000  0.10780
       8     C     2.93200  2.93200  0.00000  0.13600
       9     C     3.13767  3.13767  0.00000 -0.27535
      10     C     3.15194  3.15194  0.00000 -0.30388
      11     H     0.44073  0.44073  0.00000  0.11854
      12     H     0.44718  0.44718  0.00000  0.10564
      13     H     0.45407  0.45407  0.00000  0.09186
      14     H     0.45252  0.45252  0.00000  0.09495
      15     H     0.45042  0.45042  0.00000  0.09916
      16     H     0.44039  0.44039  0.00000  0.11922
      17     H     0.45348  0.45348  0.00000  0.09304

   Total alpha = 28.00000, Total beta = 28.00000, Total charge = -0.00000

*** Psi4 exiting successfully. Buy a developer a beer!
