  ==> Input File <==

--------------------------------------------------------------------------
set {
	reference rhf
	basis 6-31G*
}

set_num_threads( 4 )
memory 2 gb

molecule MOL {
0 1

H	 -3.258127	 0.514346	 -0.443026
C	 -2.847390	 1.519963	 -0.378430
O	 -1.483223	 1.530997	 -0.650942
H	 -3.332369	 2.144202	 -1.116172
H	 -3.061181	 1.916906	 0.613113
C	 -0.719715	 0.768384	 0.229244
C	 0.719720	 0.768376	 -0.229267
H	 -0.775221	 1.184369	 1.236007
H	 -1.083317	 -0.256410	 0.269165
O	 1.392611	 -0.295398	 0.366430
H	 0.750534	 0.687200	 -1.313918
H	 1.185043	 1.714359	 0.050526
C	 2.706965	 -0.449871	 -0.062409
H	 2.756559	 -0.644779	 -1.131878
H	 3.305899	 0.433456	 0.155466
H	 3.125548	 -1.294566	 0.467107

	symmetry c1
}
set optking {
	frozen_dihedral = ("
		3 6 7 11
	")
}

ee = optimize('scf')
oeprop('DIPOLE', 'QUADRUPOLE', 'MULLIKEN_CHARGES')
f=open( 'psi4out.xyz', 'w' )
f.write( "16  " )
f.write( str(ee) + "\n" )
f.write( MOL.save_string_xyz() )
f.close()
--------------------------------------------------------------------------

    Molecular point group: c1
  Charge       = 0
  Multiplicity = 1
  Basis Set: 6-31G*
  Basis Set:
  @DF-RHF Final Energy:  -306.97805803918072
    Total Energy =                       -306.9780580391808940
    Molecular point group: c1
  Basis Set: 6-31G*
  Basis Set:
  Basis Set: 6-31G*
  Basis Set:
  @DF-RHF Final Energy:  -306.97867025817038
    Total Energy =                       -306.9786702581702684
  Basis Set: 6-31G*
  Basis Set:
  Basis Set: 6-31G*
  Basis Set:
  @DF-RHF Final Energy:  -306.97871352169352
    Total Energy =                       -306.9787135216936917
  Basis Set: 6-31G*
  Basis Set:
  Basis Set: 6-31G*
  Basis Set:
  @DF-RHF Final Energy:  -306.97871683291675
    Total Energy =                       -306.9787168329166320
  Basis Set: 6-31G*
  Basis Set:
  Charge       = 0
  Multiplicity = 1
  Basis Set: 6-31G*
  Basis Set:

    Orbital Energies (a.u.)
    -----------------------

    Doubly Occupied:

       1A    -20.559114     2A    -20.558546     3A    -11.267203
       4A    -11.267151     5A    -11.266919     6A    -11.266557
       7A     -1.389076     8A     -1.377715     9A     -1.029856
      10A     -0.941520    11A     -0.883775    12A     -0.831410
      13A     -0.690392    14A     -0.675051    15A     -0.659257
      16A     -0.647152    17A     -0.621100    18A     -0.600277
      19A     -0.573793    20A     -0.518282    21A     -0.508504
      22A     -0.483179    23A     -0.466541    24A     -0.418316
      25A     -0.417042

  @DF-RHF Final Energy:  -306.97871699563609

   => Energetics <=

    Nuclear Repulsion Energy =            254.7192422557662610
    One-Electron Energy =                -923.5604622495668536
    Two-Electron Energy =                 361.8625029981646435
    DFT Exchange-Correlation Energy =       0.0000000000000000
    Empirical Dispersion Energy =           0.0000000000000000
    PCM Polarization Energy =               0.0000000000000000
    EFP Energy =                            0.0000000000000000
    Total Energy =                       -306.9787169956359207
    Molecular point group: c1
  Basis Set: 6-31G*
  Basis Set:

  -Total Gradient:
     Atom            X                  Y                   Z
    ------   -----------------  -----------------  -----------------
       1        0.000009742696     0.000002200393     0.000000793862
       2       -0.000009994951     0.000016070094    -0.000018025494
       3       -0.000495344691    -0.002314776923    -0.001517440533
       4       -0.000012313713     0.000000337373     0.000000371032
       5        0.000005308607    -0.000004164033     0.000002098234
       6        0.000615001319     0.003804093364     0.001916794336
       7       -0.000001147250    -0.005111098365    -0.000144625015
       8       -0.000007061578     0.000004577582     0.000004294317
       9        0.000001142487     0.000001847006    -0.000006594811
      10        0.000025289122     0.000017562604    -0.000011133557
      11       -0.000130188534     0.003610078664    -0.000259217353
      12        0.000002252046    -0.000013412090     0.000015557016
      13       -0.000003055611    -0.000014976893     0.000020245083
      14       -0.000008692912     0.000003288833     0.000001575809
      15       -0.000003040518     0.000002316930    -0.000002321074
      16        0.000012103483    -0.000003944540    -0.000002371853

  **** Optimization is complete! (in 5 steps) ****
    Final optimized geometry and variables:
    Molecular point group: c1

    Geometry (in Angstrom), charge = 0, multiplicity = 1:

    H           -3.275035682640    -0.025299051052    -0.166669279806
    C           -2.797668179441     0.952164009866    -0.198806380868
    O           -1.453516113112     0.849522213035    -0.546485520696
    H           -3.284945146804     1.555835642954    -0.952056843751
    H           -2.923128903344     1.429407194256     0.771176167541
    C           -0.691148507732     0.082293529334     0.334500670220
    C            0.744817209960     0.101667511660    -0.153801527383
    H           -0.757349150525     0.470369530283     1.348921772676
    H           -1.043482322771    -0.946919123458     0.349165731520
    O            1.423751893955    -0.955623475478     0.448083996673
    H            0.752213850177     0.027281555406    -1.238942545871
    H            1.213513920660     1.051397084424     0.100682796400
    C            2.775288177391    -1.027498591337     0.121196837570
    H            2.918312311392    -1.158319319848    -0.949558793185
    H            3.308406929449    -0.131742294268     0.433824696733
    H            3.191324759046    -1.881503832017     0.637689691439

  Mulliken Charges: (a.u.)
   Center  Symbol    Alpha    Beta     Spin     Total
       1     H     0.42833  0.42833  0.00000  0.14334
       2     C     3.07968  3.07968  0.00000 -0.15937
       3     O     4.30970  4.30970  0.00000 -0.61941
       4     H     0.41156  0.41156  0.00000  0.17688
       5     H     0.42893  0.42893  0.00000  0.14214
       6     C     2.99473  2.99473  0.00000  0.01055
       7     C     2.99510  2.99510  0.00000  0.00980
       8     H     0.42627  0.42627  0.00000  0.14745
       9     H     0.42091  0.42091  0.00000  0.15819
      10     O     4.30897  4.30897  0.00000 -0.61793
      11     H     0.42027  0.42027  0.00000  0.15947
      12     H     0.42741  0.42741  0.00000  0.14517
      13     C     3.07985  3.07985  0.00000 -0.15969
      14     H     0.42804  0.42804  0.00000  0.14393
      15     H     0.42879  0.42879  0.00000  0.14242
      16     H     0.41147  0.41147  0.00000  0.17706

   Total alpha = 25.00000, Total beta = 25.00000, Total charge = -0.00000
