  ==> Input File <==

--------------------------------------------------------------------------
set {
	reference rhf
	basis 6-31G*
}

set_num_threads( 4 )
memory 2 gb

molecule MOL {
0 1

H	 -3.161837	 0.500524	 -0.000234
C	 -2.367097	 -0.232926	 -0.000000
O	 -1.158440	 0.455814	 -0.000122
H	 -2.468853	 -0.861886	 -0.882833
H	 -2.468942	 -0.861421	 0.883154
C	 -0.029776	 -0.365156	 0.000148
C	 1.155833	 0.431634	 0.516015
H	 0.169234	 -0.730063	 -1.008384
H	 -0.201455	 -1.239131	 0.629912
C	 2.442591	 -0.391719	 0.550970
H	 1.285994	 1.303951	 -0.117059
H	 0.917983	 0.798424	 1.509792
H	 2.712000	 -0.748453	 -0.439275
H	 3.271494	 0.200920	 0.923185
H	 2.341169	 -1.258096	 1.198665

	symmetry c1
}
set optking {
	frozen_dihedral = ("
		8 6 3 2
	")
}

ee = optimize('scf')
oeprop('DIPOLE', 'QUADRUPOLE', 'MULLIKEN_CHARGES')
f=open( 'psi4out.xyz', 'w' )
f.write( "15  " )
f.write( str(ee) + "\n" )
f.write( MOL.save_string_xyz() )
f.close()
--------------------------------------------------------------------------

    Molecular point group: c1
  Charge       = 0
  Multiplicity = 1
  Basis Set: 6-31G*
  Basis Set:
  @DF-RHF Final Energy:  -232.13834525091883
    Total Energy =                       -232.1383452509189169
    Molecular point group: c1
  Basis Set: 6-31G*
  Basis Set:
  Basis Set: 6-31G*
  Basis Set:
  @DF-RHF Final Energy:  -232.13840121150585
    Total Energy =                       -232.1384012115057658
  Basis Set: 6-31G*
  Basis Set:
  Basis Set: 6-31G*
  Basis Set:
  @DF-RHF Final Energy:  -232.13841808675548
    Total Energy =                       -232.1384180867555074
  Basis Set: 6-31G*
  Basis Set:
  Charge       = 0
  Multiplicity = 1
  Basis Set: 6-31G*
  Basis Set:

    Orbital Energies (a.u.)
    -----------------------

    Doubly Occupied:

       1A    -20.552611     2A    -11.266118     3A    -11.264231
       4A    -11.213896     5A    -11.212748     6A     -1.377016
       7A     -1.056978     8A     -0.955474     9A     -0.877361
      10A     -0.808498    11A     -0.674350    12A     -0.653593
      13A     -0.630599    14A     -0.606315    15A     -0.565919
      16A     -0.541665    17A     -0.502432    18A     -0.489208
      19A     -0.478740    20A     -0.461677    21A     -0.411631

  @DF-RHF Final Energy:  -232.13841839302415

   => Energetics <=

    Nuclear Repulsion Energy =            189.7072637605834871
    One-Electron Energy =                -690.4892454321093282
    Two-Electron Energy =                 268.6435632785014604
    DFT Exchange-Correlation Energy =       0.0000000000000000
    Empirical Dispersion Energy =           0.0000000000000000
    PCM Polarization Energy =               0.0000000000000000
    EFP Energy =                            0.0000000000000000
    Total Energy =                       -232.1384183930243807
    Molecular point group: c1
  Basis Set: 6-31G*
  Basis Set:

  -Total Gradient:
     Atom            X                  Y                   Z
    ------   -----------------  -----------------  -----------------
       1        0.000004796566     0.000005904805    -0.000003501437
       2       -0.000041758909    -0.000000691278     0.002133793728
       3        0.000484379379     0.000505598877    -0.003145378222
       4        0.000012181503     0.000009083202     0.000003832887
       5        0.000012596714    -0.000000010753    -0.000003817570
       6       -0.001986755024    -0.002631236419     0.001441523209
       7       -0.000008465936     0.000008072139     0.000010621813
       8        0.001522253070     0.002087495114    -0.000436792826
       9       -0.000012624330     0.000010592603    -0.000000037695
      10        0.000008965384     0.000000651126    -0.000021784952
      11        0.000011181039     0.000012276433     0.000009474202
      12       -0.000006727809    -0.000002005367     0.000004525444
      13       -0.000006078252    -0.000010914801     0.000004014551
      14       -0.000001597788     0.000002971361    -0.000005633249
      15        0.000007654392     0.000002212960     0.000009160118

  **** Optimization is complete! (in 4 steps) ****
    Final optimized geometry and variables:
    Molecular point group: c1

    Geometry (in Angstrom), charge = 0, multiplicity = 1:

    H           -3.137235296165     0.550763476555    -0.241808629444
    C           -2.352122252557    -0.192909087367    -0.224457925701
    O           -1.135028541753     0.481223494606    -0.209579898374
    H           -2.451500378110    -0.826641890063    -1.104271348517
    H           -2.473820774864    -0.813090210778     0.661573235178
    C           -0.007831321150    -0.344683572644    -0.188868770872
    C            1.178569317082     0.459807589610     0.317134939993
    H            0.201202146690    -0.712336440187    -1.193626563969
    H           -0.178731863354    -1.207611630858     0.453709863658
    C            2.473585349341    -0.351296846210     0.327487407891
    H            1.291571419265     1.337128723991    -0.312454189004
    H            0.951883656751     0.819038343745     1.316389452230
    H            2.730687097101    -0.699781988500    -0.668904986837
    H            3.302805403930     0.246839758802     0.690193748314
    H            2.390848180439    -1.222669345009     0.971386798533

  Mulliken Charges: (a.u.)
   Center  Symbol    Alpha    Beta     Spin     Total
       1     H     0.41255  0.41255  0.00000  0.17490
       2     C     3.07927  3.07927  0.00000 -0.15854
       3     O     4.30660  4.30660  0.00000 -0.61320
       4     H     0.43067  0.43067  0.00000  0.13865
       5     H     0.42998  0.42998  0.00000  0.14005
       6     C     2.98159  2.98159  0.00000  0.03681
       7     C     3.15928  3.15928  0.00000 -0.31856
       8     H     0.43116  0.43116  0.00000  0.13768
       9     H     0.43362  0.43362  0.00000  0.13277
      10     C     3.24813  3.24813  0.00000 -0.49625
      11     H     0.41365  0.41365  0.00000  0.17269
      12     H     0.41607  0.41607  0.00000  0.16786
      13     H     0.42057  0.42057  0.00000  0.15885
      14     H     0.41546  0.41546  0.00000  0.16908
      15     H     0.42139  0.42139  0.00000  0.15722

   Total alpha = 21.00000, Total beta = 21.00000, Total charge =  0.00000
