  ==> Input File <==

--------------------------------------------------------------------------
set {
	reference rhf
	basis 6-31G*
}

set_num_threads( 4 )
memory 2 gb

molecule MOL {
0 1

H	 -1.748661	 -2.220942	 -0.005015
C	 -1.343207	 -1.225221	 -0.013879
N	 -0.055091	 -1.100174	 -0.261126
C	 -2.150779	 -0.125890	 0.222726
C	 0.449969	 0.122615	 -0.277109
H	 -3.200618	 -0.238980	 0.422496
N	 -1.660212	 1.097703	 0.209594
C	 -0.371804	 1.219904	 -0.038265
C	 1.928147	 0.267347	 -0.541394
H	 0.029131	 2.217482	 -0.051283
C	 2.783535	 -0.434896	 0.518406
H	 2.142690	 -0.156173	 -1.516825
H	 2.186767	 1.320621	 -0.585035
H	 3.838511	 -0.334820	 0.283868
H	 2.543464	 -1.490776	 0.562713
H	 2.615969	 -0.007826	 1.502196

	symmetry c1
}
set optking {
	frozen_dihedral = ("
		12 9 5 3
	")
}

ee = optimize('scf')
oeprop('DIPOLE', 'QUADRUPOLE', 'MULLIKEN_CHARGES')
f=open( 'psi4out.xyz', 'w' )
f.write( "16  " )
f.write( str(ee) + "\n" )
f.write( MOL.save_string_xyz() )
f.close()
--------------------------------------------------------------------------

    Molecular point group: c1
  Charge       = 0
  Multiplicity = 1
  Basis Set: 6-31G*
  Basis Set:
  @DF-RHF Final Energy:  -340.75834483851025
    Total Energy =                       -340.7583448385100269
    Molecular point group: c1
  Basis Set: 6-31G*
  Basis Set:
  Basis Set: 6-31G*
  Basis Set:
  @DF-RHF Final Energy:  -340.75836068594305
    Total Energy =                       -340.7583606859429892
  Basis Set: 6-31G*
  Basis Set:
  Basis Set: 6-31G*
  Basis Set:
  @DF-RHF Final Energy:  -340.75836451230276
    Total Energy =                       -340.7583645123023075
  Basis Set: 6-31G*
  Basis Set:
  Charge       = 0
  Multiplicity = 1
  Basis Set: 6-31G*
  Basis Set:

    Orbital Energies (a.u.)
    -----------------------

    Doubly Occupied:

       1A    -15.586910     2A    -15.582451     3A    -11.281277
       4A    -11.276793     5A    -11.272386     6A    -11.271981
       7A    -11.233140     8A    -11.216482     9A     -1.313607
      10A     -1.222207    11A     -1.084237    12A     -1.013660
      13A     -0.906096    14A     -0.892190    15A     -0.827274
      16A     -0.716787    17A     -0.709232    18A     -0.659151
      19A     -0.615370    20A     -0.602405    21A     -0.577675
      22A     -0.560555    23A     -0.522007    24A     -0.505181
      25A     -0.499474    26A     -0.486936    27A     -0.428744
      28A     -0.394940    29A     -0.345409

  @DF-RHF Final Energy:  -340.75836518755392

   => Energetics <=

    Nuclear Repulsion Energy =            349.8083937269333887
    One-Electron Energy =               -1153.9244047155348198
    Two-Electron Energy =                 463.3576458010473971
    DFT Exchange-Correlation Energy =       0.0000000000000000
    Empirical Dispersion Energy =           0.0000000000000000
    PCM Polarization Energy =               0.0000000000000000
    EFP Energy =                            0.0000000000000000
    Total Energy =                       -340.7583651875539772
    Molecular point group: c1
  Basis Set: 6-31G*
  Basis Set:

  -Total Gradient:
     Atom            X                  Y                   Z
    ------   -----------------  -----------------  -----------------
       1        0.000004600683    -0.000006585589     0.000002491615
       2       -0.000006140907     0.000007572904     0.000024814848
       3        0.000068670897    -0.000011597614     0.000457745032
       4        0.000007664215    -0.000027942364    -0.000023168463
       5       -0.000167333757     0.000125253029    -0.000774129706
       6       -0.000000065138     0.000003495843    -0.000000969389
       7        0.000043144022     0.000019820276    -0.000010525038
       8       -0.000016030665     0.000009500428     0.000040949453
       9        0.000164219992    -0.000586022868     0.000582115203
      10        0.000001980081     0.000004940040     0.000009701093
      11        0.000023229549    -0.000052946527    -0.000007975028
      12       -0.000118258846     0.000442000447    -0.000229638587
      13        0.000012189497     0.000016211128    -0.000046838127
      14       -0.000016524593     0.000031319963     0.000009809735
      15        0.000031581372     0.000019767123    -0.000030798917
      16       -0.000032926405     0.000005213782    -0.000003583724

  **** Optimization is complete! (in 4 steps) ****
    Final optimized geometry and variables:
    Molecular point group: c1

    Geometry (in Angstrom), charge = 0, multiplicity = 1:

    H           -1.756782769204    -2.190042907331     0.007140059113
    C           -1.348851443409    -1.195231393628    -0.001259443302
    N           -0.059119674099    -1.073945948544    -0.240402094612
    C           -2.154921876682    -0.093582777994     0.230011179490
    C            0.449842545889     0.147295713304    -0.254681099255
    H           -3.206238104676    -0.203578250469     0.423904083554
    N           -1.660393544064     1.128187522903     0.220733721784
    C           -0.370026454369     1.246597895712    -0.019045508208
    C            1.928079684511     0.290834924057    -0.523353594584
    H            0.034036425025     2.242948998137    -0.026659007348
    C            2.794285407692    -0.403369234669     0.531378693404
    H            2.139905860590    -0.130173148088    -1.501616768905
    H            2.181973700566     1.345021705074    -0.574257757106
    H            3.846605114184    -0.292857303716     0.290515585329
    H            2.564102268696    -1.460537107989     0.579013168076
    H            2.627996455182     0.024330479371     1.515194509094

  Mulliken Charges: (a.u.)
   Center  Symbol    Alpha    Beta     Spin     Total
       1     H     0.39381  0.39381  0.00000  0.21239
       2     C     2.98998  2.98998  0.00000  0.02004
       3     N     3.75345  3.75345  0.00000 -0.50690
       4     C     2.99785  2.99785  0.00000  0.00430
       5     C     2.87434  2.87434  0.00000  0.25133
       6     H     0.39422  0.39422  0.00000  0.21155
       7     N     3.72868  3.72868  0.00000 -0.45736
       8     C     3.00110  3.00110  0.00000 -0.00219
       9     C     3.16791  3.16791  0.00000 -0.33583
      10     H     0.39503  0.39503  0.00000  0.20995
      11     C     3.24230  3.24230  0.00000 -0.48459
      12     H     0.40522  0.40522  0.00000  0.18956
      13     H     0.41481  0.41481  0.00000  0.17038
      14     H     0.41744  0.41744  0.00000  0.16511
      15     H     0.40527  0.40527  0.00000  0.18946
      16     H     0.41860  0.41860  0.00000  0.16281

   Total alpha = 29.00000, Total beta = 29.00000, Total charge =  0.00000
