  ==> Input File <==

--------------------------------------------------------------------------
set {
	reference rhf
	basis 6-31G*
}

set_num_threads( 4 )
memory 2 gb

molecule MOL {
0 1

O	 3.251039	 1.036032	 -0.439697
C	 2.701189	 0.057885	 -0.047330
C	 1.209899	 -0.106744	 0.119224
O	 3.347903	 -1.046386	 0.304773
C	 0.420228	 1.135974	 -0.285975
H	 0.919663	 -0.978995	 -0.457085
H	 1.027504	 -0.364154	 1.159498
C	 -1.085513	 1.022865	 -0.024352
H	 0.596250	 1.345911	 -1.336718
H	 0.812436	 1.987740	 0.259085
C	 -1.811265	 -0.024413	 -0.873825
H	 -1.534216	 1.995261	 -0.213653
H	 -1.255423	 0.812854	 1.030652
C	 -3.325595	 -0.022296	 -0.655196
H	 -1.599720	 0.159487	 -1.926084
H	 -1.426218	 -1.017549	 -0.653842
C	 -4.060719	 -1.068399	 -1.495073
H	 -3.721054	 0.965357	 -0.886255
H	 -3.537506	 -0.195470	 0.398751
C	 -5.572864	 -1.057133	 -1.273736
H	 -3.849244	 -0.897428	 -2.548491
H	 -3.669823	 -2.056739	 -1.262337
H	 -6.065532	 -1.809092	 -1.882376
H	 -5.999557	 -0.091816	 -1.531208
H	 -5.818617	 -1.259455	 -0.235013
C	 4.728119	 -1.109107	 -0.004993
H	 4.882018	 -1.033965	 -1.071845
H	 5.068212	 -2.067527	 0.355250
H	 5.265056	 -0.311663	 0.488280

	symmetry c1
}
set optking {
	frozen_dihedral = ("
		1 2 4 26
	")
}

ee = optimize('scf')
oeprop('DIPOLE', 'QUADRUPOLE', 'MULLIKEN_CHARGES')
f=open( 'psi4out.xyz', 'w' )
f.write( "29  " )
f.write( str(ee) + "\n" )
f.write( MOL.save_string_xyz() )
f.close()
--------------------------------------------------------------------------

    Molecular point group: c1
  Charge       = 0
  Multiplicity = 1
  Basis Set: 6-31G*
  Basis Set:
  @DF-RHF Final Energy:  -501.04344919313496
    Total Energy =                       -501.0434491931348475
    Molecular point group: c1
  Basis Set: 6-31G*
  Basis Set:
  Basis Set: 6-31G*
  Basis Set:
  @DF-RHF Final Energy:  -501.04197653538870
    Total Energy =                       -501.0419765353877892
  Basis Set: 6-31G*
  Basis Set:
  Basis Set: 6-31G*
  Basis Set:
  @DF-RHF Final Energy:  -501.04352597320735
    Total Energy =                       -501.0435259732073519
  Basis Set: 6-31G*
  Basis Set:
  Basis Set: 6-31G*
  Basis Set:
  @DF-RHF Final Energy:  -501.04353415585035
    Total Energy =                       -501.0435341558505797
  Basis Set: 6-31G*
  Basis Set:
  Charge       = 0
  Multiplicity = 1
  Basis Set: 6-31G*
  Basis Set:

    Orbital Energies (a.u.)
    -----------------------

    Doubly Occupied:

       1A    -20.602838     2A    -20.545430     3A    -11.372043
       4A    -11.280917     5A    -11.234738     6A    -11.219129
       7A    -11.217671     8A    -11.216102     9A    -11.215954
      10A    -11.214537    11A    -11.209141    12A     -1.468732
      13A     -1.362595    14A     -1.098155    15A     -1.066832
      16A     -1.019435    17A     -0.977188    18A     -0.928744
      19A     -0.861801    20A     -0.799334    21A     -0.790584
      22A     -0.763662    23A     -0.700692    24A     -0.682138
      25A     -0.671995    26A     -0.651110    27A     -0.628823
      28A     -0.604669    29A     -0.595266    30A     -0.581012
      31A     -0.567687    32A     -0.548229    33A     -0.532830
      34A     -0.530628    35A     -0.514865    36A     -0.512352
      37A     -0.496923    38A     -0.477920    39A     -0.470086
      40A     -0.462434    41A     -0.459437    42A     -0.455020
      43A     -0.441169    44A     -0.435335

  @DF-RHF Final Energy:  -501.04353324472754

   => Energetics <=

    Nuclear Repulsion Energy =            610.3535444153510525
    One-Electron Energy =               -1891.8217898798170609
    Two-Electron Energy =                 780.4247122197383533
    DFT Exchange-Correlation Energy =       0.0000000000000000
    Empirical Dispersion Energy =           0.0000000000000000
    PCM Polarization Energy =               0.0000000000000000
    EFP Energy =                            0.0000000000000000
    Total Energy =                       -501.0435332447276551
    Molecular point group: c1
  Basis Set: 6-31G*
  Basis Set:

  -Total Gradient:
     Atom            X                  Y                   Z
    ------   -----------------  -----------------  -----------------
       1        0.000154446510     0.001208955420     0.003301511904
       2       -0.000440903832    -0.002457137781    -0.006002940177
       3       -0.000000792595    -0.000085706035    -0.000174527185
       4        0.000798613026     0.002452477988     0.005171600580
       5        0.000037651469     0.000040681467     0.000117461712
       6       -0.000032164497    -0.000021480334     0.000048418236
       7       -0.000008639553     0.000035241083     0.000065091120
       8       -0.000019062034     0.000047673040    -0.000035582333
       9       -0.000000754529     0.000040809671    -0.000004275496
      10        0.000016096385    -0.000050288155     0.000011430569
      11        0.000035287784    -0.000007840206    -0.000003230746
      12       -0.000008540590    -0.000012683944    -0.000041366185
      13       -0.000028081578     0.000052622647     0.000003649566
      14        0.000000441545    -0.000026353828     0.000022289575
      15       -0.000022216340     0.000016485047     0.000017554029
      16        0.000084275191    -0.000042666847    -0.000013527991
      17        0.000001945451    -0.000006100976     0.000005376195
      18        0.000011223471    -0.000003072854    -0.000009374332
      19       -0.000010804341     0.000007251924     0.000005731032
      20        0.000000805258    -0.000004796254     0.000006256093
      21       -0.000000698056     0.000004245009     0.000001204148
      22        0.000000351235    -0.000000523351    -0.000004768634
      23        0.000000396663    -0.000001208649     0.000001338572
      24        0.000001347863    -0.000000609593    -0.000001606858
      25       -0.000001788260     0.000001274620     0.000000914541
      26       -0.000616023711    -0.001259500706    -0.002638364887
      27        0.000050106591     0.000010821692     0.000062955410
      28        0.000004779562     0.000010148967     0.000044107272
      29       -0.000007298097     0.000051280938     0.000042674268

  **** Optimization is complete! (in 5 steps) ****
    Final optimized geometry and variables:
    Molecular point group: c1

    Geometry (in Angstrom), charge = 0, multiplicity = 1:

    O            3.223536114031     1.138784251246    -0.063604130738
    C            2.674241483326     0.167739237429     0.346215770155
    C            1.183633452818     0.007995719176     0.521562296467
    O            3.323388523178    -0.921007524516     0.741636021028
    C            0.396602967564     1.259321379364     0.138420315808
    H            0.885910879946    -0.854838270494    -0.065314856627
    H            1.007003814393    -0.263803405340     1.559075339349
    C           -1.108601273961     1.146643169006     0.403264293650
    H            0.569932712295     1.485212105817    -0.909389382526
    H            0.793214249440     2.101261914260     0.695552745428
    C           -1.837312669602     0.104109391343    -0.449507288282
    H           -1.556846577771     2.120364059652     0.219781645760
    H           -1.276171999539     0.931593343421     1.457610744171
    C           -3.350229175470     0.100977240628    -0.221272859562
    H           -1.632862140342     0.296405173122    -1.501665381837
    H           -1.448590055560    -0.889761727914    -0.239411855878
    C           -4.088019789904    -0.941897885179    -1.062812240302
    H           -3.749636080499     1.088992884020    -0.443789983295
    H           -3.554975771598    -0.079143604262     0.832916073836
    C           -5.598554554497    -0.937086588890    -0.830489661748
    H           -3.884729014262    -0.763223027401    -2.116565495885
    H           -3.692268191240    -1.930483718179    -0.839503372408
    H           -6.093123223383    -1.686876787177    -1.440267672483
    H           -6.030278512821     0.028385706317    -1.078809200094
    H           -5.836104357521    -1.146716909413     0.208689031142
    C            4.709659319638    -0.980594730108     0.459129967597
    H            4.884215557857    -0.881938791870    -0.602879906415
    H            5.040051993318    -1.948135237527     0.803689744802
    H            5.239844260116    -0.196833816026     0.980496859593

  Mulliken Charges: (a.u.)
   Center  Symbol    Alpha    Beta     Spin     Total
       1     O     4.28523  4.28523  0.00000 -0.57046
       2     C     2.60485  2.60485  0.00000  0.79029
       3     C     3.20993  3.20993  0.00000 -0.41987
       4     O     4.30768  4.30768  0.00000 -0.61536
       5     C     3.15373  3.15373  0.00000 -0.30746
       6     H     0.39946  0.39946  0.00000  0.20108
       7     H     0.40066  0.40066  0.00000  0.19868
       8     C     3.15655  3.15655  0.00000 -0.31311
       9     H     0.41285  0.41285  0.00000  0.17429
      10     H     0.40905  0.40905  0.00000  0.18189
      11     C     3.15518  3.15518  0.00000 -0.31037
      12     H     0.41821  0.41821  0.00000  0.16357
      13     H     0.42377  0.42377  0.00000  0.15247
      14     C     3.15027  3.15027  0.00000 -0.30053
      15     H     0.42265  0.42265  0.00000  0.15470
      16     H     0.42366  0.42366  0.00000  0.15267
      17     C     3.15146  3.15146  0.00000 -0.30291
      18     H     0.42330  0.42330  0.00000  0.15340
      19     H     0.42393  0.42393  0.00000  0.15214
      20     C     3.23935  3.23935  0.00000 -0.47870
      21     H     0.42283  0.42283  0.00000  0.15435
      22     H     0.42347  0.42347  0.00000  0.15306
      23     H     0.41924  0.41924  0.00000  0.16153
      24     H     0.42153  0.42153  0.00000  0.15694
      25     H     0.42180  0.42180  0.00000  0.15639
      26     C     3.09248  3.09248  0.00000 -0.18496
      27     H     0.41080  0.41080  0.00000  0.17840
      28     H     0.40842  0.40842  0.00000  0.18317
      29     H     0.40765  0.40765  0.00000  0.18469

   Total alpha = 44.00000, Total beta = 44.00000, Total charge =  0.00000
