  ==> Input File <==

--------------------------------------------------------------------------
set {
	reference rhf
	basis 6-31G*
}

set_num_threads( 1 )
memory 2 gb

molecule MOL {
0 1

O	 3.225979	 0.970355	 -0.599647
C	 2.701189	 0.057885	 -0.047330
C	 1.245376	 -0.013843	 0.345420
O	 3.347903	 -1.046386	 0.304773
C	 0.455112	 1.231400	 -0.050772
H	 0.838542	 -0.913825	 -0.103701
H	 1.208210	 -0.175333	 1.419774
C	 -0.998893	 1.219485	 0.433193
H	 0.482531	 1.345121	 -1.130325
H	 0.957290	 2.103070	 0.354729
C	 -1.883438	 0.145884	 -0.207175
H	 -1.431207	 2.195402	 0.224832
H	 -1.019646	 1.105716	 1.516076
C	 -3.312373	 0.148327	 0.339762
H	 -1.910694	 0.300857	 -1.284700
H	 -1.449512	 -0.839164	 -0.051097
C	 -4.203958	 -0.923865	 -0.289216
H	 -3.758841	 1.127542	 0.175324
H	 -3.285210	 0.004123	 1.418727
C	 -5.630256	 -0.912190	 0.259636
H	 -4.231408	 -0.781847	 -1.367510
H	 -3.761565	 -1.903736	 -0.122119
H	 -6.237354	 -1.682903	 -0.205164
H	 -6.112784	 0.043832	 0.076925
H	 -5.639164	 -1.086092	 1.331995
C	 4.728119	 -1.109107	 -0.004993
H	 4.882018	 -1.033965	 -1.071845
H	 5.068212	 -2.067527	 0.355250
H	 5.265056	 -0.311663	 0.488280

	symmetry c1
}
set optking {
	frozen_dihedral = ("
		21 17 14 11,
		17 14 11 15,
		6 3 5 9,
		11 8 5 9,
		2 4 26 27,
		1 2 4 26,
		6 3 2 1
	")
}

ee = energy('scf')
oeprop('DIPOLE', 'QUADRUPOLE', 'MULLIKEN_CHARGES')
f=open( 'psi4out.xyz', 'w' )
f.write( "29  " )
f.write( str(ee) + "\n" )
f.write( MOL.save_string_xyz() )
f.close()
--------------------------------------------------------------------------

    Molecular point group: c1

    Geometry (in Angstrom), charge = 0, multiplicity = 1:

       Center              X                  Y                   Z               Mass
    ------------   -----------------  -----------------  -----------------  -----------------
           O          3.212913033454     1.006267719530    -0.641809063511    15.994914619560
           C          2.688123033454     0.093797719530    -0.089492063511    12.000000000000
           C          1.232310033454     0.022069719530     0.303257936489    12.000000000000
           O          3.334837033454    -1.010473280470     0.262610936489    15.994914619560
           C          0.442046033454     1.267312719530    -0.092934063511    12.000000000000
           H          0.825476033454    -0.877912280470    -0.145863063511     1.007825032070
           H          1.195144033454    -0.139420280470     1.377611936489     1.007825032070
           C         -1.011958966546     1.255397719530     0.391030936489    12.000000000000
           H          0.469465033454     1.381033719530    -1.172487063511     1.007825032070
           H          0.944224033454     2.138982719530     0.312566936489     1.007825032070
           C         -1.896503966546     0.181796719530    -0.249337063511    12.000000000000
           H         -1.444272966546     2.231314719530     0.182669936489     1.007825032070
           H         -1.032711966546     1.141628719530     1.473913936489     1.007825032070
           C         -3.325438966546     0.184239719530     0.297599936489    12.000000000000
           H         -1.923759966546     0.336769719530    -1.326862063511     1.007825032070
           H         -1.462577966546    -0.803251280470    -0.093259063511     1.007825032070
           C         -4.217023966546    -0.887952280470    -0.331378063511    12.000000000000
           H         -3.771906966546     1.163454719530     0.133161936489     1.007825032070
           H         -3.298275966546     0.040035719530     1.376564936489     1.007825032070
           C         -5.643321966546    -0.876277280470     0.217473936489    12.000000000000
           H         -4.244473966546    -0.745934280470    -1.409672063511     1.007825032070
           H         -3.774630966546    -1.867823280470    -0.164281063511     1.007825032070
           H         -6.250419966546    -1.646990280470    -0.247326063511     1.007825032070
           H         -6.125849966546     0.079744719530     0.034762936489     1.007825032070
           H         -5.652229966546    -1.050179280470     1.289832936489     1.007825032070
           C          4.715053033454    -1.073194280470    -0.047155063511    12.000000000000
           H          4.868952033454    -0.998052280470    -1.114007063511     1.007825032070
           H          5.055146033454    -2.031614280470     0.313087936489     1.007825032070
           H          5.251990033454    -0.275750280470     0.446117936489     1.007825032070

  Charge       = 0
  Multiplicity = 1
  Basis Set: 6-31G*
  Basis Set:

    Orbital Energies (a.u.)
    -----------------------

    Doubly Occupied:

       1A    -20.603422     2A    -20.545187     3A    -11.372038
       4A    -11.280685     5A    -11.234764     6A    -11.219143
       7A    -11.217661     8A    -11.215991     9A    -11.215868
      10A    -11.214485    11A    -11.209090    12A     -1.469090
      13A     -1.362521    14A     -1.098134    15A     -1.066822
      16A     -1.019511    17A     -0.977245    18A     -0.928659
      19A     -0.861605    20A     -0.799242    21A     -0.790525
      22A     -0.763821    23A     -0.701042    24A     -0.682295
      25A     -0.672183    26A     -0.650486    27A     -0.629062
      28A     -0.604593    29A     -0.595460    30A     -0.580623
      31A     -0.567084    32A     -0.549394    33A     -0.532170
      34A     -0.530294    35A     -0.515761    36A     -0.511492
      37A     -0.497156    38A     -0.477667    39A     -0.470195
      40A     -0.462682    41A     -0.458557    42A     -0.455704
      43A     -0.440924    44A     -0.435591

  @DF-RHF Final Energy:  -501.04396542487234

   => Energetics <=

    Nuclear Repulsion Energy =            610.5765414312350003
    One-Electron Energy =               -1892.2690928492461353
    Two-Electron Energy =                 780.6485859931374307
    DFT Exchange-Correlation Energy =       0.0000000000000000
    Empirical Dispersion Energy =           0.0000000000000000
    PCM Polarization Energy =               0.0000000000000000
    EFP Energy =                            0.0000000000000000
    Total Energy =                       -501.0439654248737043

  Mulliken Charges: (a.u.)
   Center  Symbol    Alpha    Beta     Spin     Total
       1     O     4.28595  4.28595  0.00000 -0.57191
       2     C     2.60472  2.60472  0.00000  0.79056
       3     C     3.20984  3.20984  0.00000 -0.41968
       4     O     4.30746  4.30746  0.00000 -0.61493
       5     C     3.15369  3.15369  0.00000 -0.30738
       6     H     0.39894  0.39894  0.00000  0.20212
       7     H     0.40122  0.40122  0.00000  0.19755
       8     C     3.15668  3.15668  0.00000 -0.31336
       9     H     0.41314  0.41314  0.00000  0.17373
      10     H     0.40866  0.40866  0.00000  0.18269
      11     C     3.15511  3.15511  0.00000 -0.31021
      12     H     0.41809  0.41809  0.00000  0.16383
      13     H     0.42405  0.42405  0.00000  0.15189
      14     C     3.15024  3.15024  0.00000 -0.30048
      15     H     0.42225  0.42225  0.00000  0.15551
      16     H     0.42380  0.42380  0.00000  0.15239
      17     C     3.15145  3.15145  0.00000 -0.30289
      18     H     0.42337  0.42337  0.00000  0.15325
      19     H     0.42403  0.42403  0.00000  0.15194
      20     C     3.23934  3.23934  0.00000 -0.47868
      21     H     0.42279  0.42279  0.00000  0.15441
      22     H     0.42343  0.42343  0.00000  0.15313
      23     H     0.41922  0.41922  0.00000  0.16155
      24     H     0.42155  0.42155  0.00000  0.15690
      25     H     0.42185  0.42185  0.00000  0.15630
      26     C     3.09241  3.09241  0.00000 -0.18482
      27     H     0.40907  0.40907  0.00000  0.18185
      28     H     0.40852  0.40852  0.00000  0.18297
      29     H     0.40912  0.40912  0.00000  0.18177

   Total alpha = 44.00000, Total beta = 44.00000, Total charge =  0.00000
