  ==> Input File <==

--------------------------------------------------------------------------
set {
	reference rhf
	basis cc-pvtz
}

set_num_threads( 4 )
memory 2 gb

molecule MOL {
0 1

H	 2.709126	 -0.762867	 0.596242
N	 2.326826	 -0.066186	 0.000000
C	 0.934676	 -0.005420	 0.000000
H	 2.777736	 0.808987	 0.133324
C	 0.226436	 -0.001077	 -1.195129
C	 0.226436	 -0.001077	 1.195129
H	 0.759091	 -0.011439	 -2.128123
C	 -1.153391	 0.009141	 -1.189028
H	 0.759091	 -0.011439	 2.128123
C	 -1.153391	 0.009141	 1.189028
H	 -1.680905	 0.012964	 -2.124348
C	 -1.857876	 0.014675	 0.000000
H	 -1.680905	 0.012964	 2.124348
H	 -2.930222	 0.022904	 0.000000

	symmetry c1
}
set optking {
	frozen_dihedral = ("
		1 2 3 5
	")
}

ee = optimize('scf')
oeprop('DIPOLE', 'QUADRUPOLE', 'MULLIKEN_CHARGES')
f=open( 'psi4out.xyz', 'w' )
f.write( "14  " )
f.write( str(ee) + "\n" )
f.write( MOL.save_string_xyz() )
f.close()
--------------------------------------------------------------------------

    Molecular point group: c1
  Charge       = 0
  Multiplicity = 1
  Basis Set: CC-PVTZ
  Basis Set:
  @DF-RHF Final Energy:  -285.82577114270737
    Total Energy =                       -285.8257711427073673
    Molecular point group: c1
  Basis Set: CC-PVTZ
  Basis Set:
  Basis Set: CC-PVTZ
  Basis Set:
  @DF-RHF Final Energy:  -285.82696285068573
    Total Energy =                       -285.8269628506855042
  Basis Set: CC-PVTZ
  Basis Set:
  Basis Set: CC-PVTZ
  Basis Set:
  @DF-RHF Final Energy:  -285.82724564096480
    Total Energy =                       -285.8272456409645770
  Basis Set: CC-PVTZ
  Basis Set:
  Basis Set: CC-PVTZ
  Basis Set:
  @DF-RHF Final Energy:  -285.82730628879409
    Total Energy =                       -285.8273062887940341
  Basis Set: CC-PVTZ
  Basis Set:
  Basis Set: CC-PVTZ
  Basis Set:
  @DF-RHF Final Energy:  -285.82731034948847
    Total Energy =                       -285.8273103494885277
  Basis Set: CC-PVTZ
  Basis Set:
  Charge       = 0
  Multiplicity = 1
  Basis Set: CC-PVTZ
  Basis Set:

    Orbital Energies (a.u.)
    -----------------------

    Doubly Occupied:

       1A    -15.541833     2A    -11.259533     3A    -11.228415
       4A    -11.226836     5A    -11.223931     6A    -11.223742
       7A    -11.219486     8A     -1.209386     9A     -1.131600
      10A     -1.015853    11A     -0.990190    12A     -0.830560
      13A     -0.810865    14A     -0.705928    15A     -0.665487
      16A     -0.648677    17A     -0.630543    18A     -0.594104
      19A     -0.585683    20A     -0.509014    21A     -0.500199
      22A     -0.496429    23A     -0.412048    24A     -0.336260
      25A     -0.328233

  @DF-RHF Final Energy:  -285.82731088933713

   => Energetics <=

    Nuclear Repulsion Energy =            272.9521799747751629
    One-Electron Energy =                -926.9093158157127164
    Two-Electron Energy =                 368.1298249516001420
    DFT Exchange-Correlation Energy =       0.0000000000000000
    Empirical Dispersion Energy =           0.0000000000000000
    PCM Polarization Energy =               0.0000000000000000
    EFP Energy =                            0.0000000000000000
    Total Energy =                       -285.8273108893374115
    Molecular point group: c1
  Basis Set: CC-PVTZ
  Basis Set:

  -Total Gradient:
     Atom            X                  Y                   Z
    ------   -----------------  -----------------  -----------------
       1       -0.000050795394    -0.000856416625    -0.000993152692
       2        0.000036905791     0.000600577149     0.001250427480
       3        0.000000817024     0.001288658509    -0.000278462269
       4       -0.000005113092    -0.000001784302     0.000009240312
       5       -0.000046770405    -0.001058826052    -0.000006505352
       6        0.000049642091     0.000022807717     0.000020501453
       7       -0.000001589823     0.000004805267     0.000000956174
       8        0.000061511257     0.000048952903    -0.000000150215
       9       -0.000009184668    -0.000009507882    -0.000009544418
      10       -0.000011787787    -0.000028612057    -0.000024313105
      11       -0.000003827265    -0.000007167483    -0.000005345926
      12       -0.000019708145    -0.000011531899     0.000029550357
      13       -0.000007475983     0.000009910288     0.000006438051
      14        0.000007376396    -0.000001865535     0.000000360152

  **** Optimization is complete! (in 6 steps) ****
    Final optimized geometry and variables:
    Molecular point group: c1

    Geometry (in Angstrom), charge = 0, multiplicity = 1:

    H            2.723823697117    -0.755775054718     0.542704307528
    N            2.353843786393    -0.044912813119    -0.050694866073
    C            0.925750138613    -0.011013464624    -0.002732583177
    H            2.754027733128     0.827971211459     0.220576346620
    C            0.222720154889    -0.011478800910    -1.194128261341
    C            0.221801842055     0.002033449482     1.191918300227
    H            0.771298373936    -0.034844627220    -2.115213654997
    C           -1.159913170611     0.015002277578    -1.193626245009
    H            0.759486654357    -0.000878939888     2.122076055260
    C           -1.159644865391     0.018818284464     1.193594523047
    H           -1.691816097496     0.017177089121    -2.126067219020
    C           -1.855997807341     0.028592002328    -0.000568591749
    H           -1.690918944316     0.027020561764     2.126412964253
    H           -2.928998944040     0.043828022613    -0.000118712984

  Mulliken Charges: (a.u.)
   Center  Symbol    Alpha    Beta     Spin     Total
       1     H     0.42157  0.42157  0.00000  0.15686
       2     N     3.70287  3.70287  0.00000 -0.40574
       3     C     2.90594  2.90594  0.00000  0.18812
       4     H     0.42241  0.42241  0.00000  0.15518
       5     C     3.09592  3.09592  0.00000 -0.19185
       6     C     3.11377  3.11377  0.00000 -0.22754
       7     H     0.41706  0.41706  0.00000  0.16588
       8     C     3.06630  3.06630  0.00000 -0.13259
       9     H     0.42603  0.42603  0.00000  0.14793
      10     C     3.07318  3.07318  0.00000 -0.14636
      11     H     0.42311  0.42311  0.00000  0.15379
      12     C     3.08455  3.08455  0.00000 -0.16911
      13     H     0.42360  0.42360  0.00000  0.15280
      14     H     0.42368  0.42368  0.00000  0.15264

   Total alpha = 25.00000, Total beta = 25.00000, Total charge = -0.00000
