                              Psi4 1.0.54 Driver

  ==> Input File <==

--------------------------------------------------------------------------
set {
	reference rhf
	basis cc-pvtz
}

set_num_threads( 4 )
memory 2 gb

molecule MOL {
0 1

H	 -1.241816	 4.292393	 -0.224656
O	 -0.559261	 3.697068	 -0.473455
C	 -0.778617	 2.440014	 0.109738
C	 0.340127	 1.509990	 -0.314043
H	 -0.801224	 2.522294	 1.194401
H	 -1.737217	 2.035037	 -0.207925
C	 0.196029	 0.106276	 0.266738
H	 1.284978	 1.945750	 -0.004866
H	 0.357808	 1.465240	 -1.398295
C	 1.330220	 -0.826136	 -0.155230
H	 0.154795	 0.171494	 1.349679
H	 -0.752414	 -0.321778	 -0.050764
C	 2.719700	 -0.407669	 0.328325
H	 1.339388	 -0.911200	 -1.239363
H	 1.119001	 -1.821953	 0.224128
C	 3.241564	 0.893452	 -0.276737
H	 3.418299	 -1.204729	 0.093035
H	 2.711776	 -0.323368	 1.411960
H	 3.254204	 0.841071	 -1.360784
H	 2.634460	 1.745075	 0.005842
H	 4.254264	 1.092401	 0.054971

	symmetry c1
}
set optking {
	frozen_dihedral = ("
		4 7 10 14
	")
}

ee,wfn = optimize('scf', return_wfn=True)
oeprop( wfn, 'DIPOLE', 'QUADRUPOLE', 'MULLIKEN_CHARGES')
f=open( 'psi4out.xyz', 'w' )
f.write( "21  " )
f.write( str(ee) + "\n" )
f.write( MOL.save_string_xyz() )
f.close()
--------------------------------------------------------------------------

    Molecular point group: c1
  Charge       = 0
  Multiplicity = 1
  Basis Set: CC-PVTZ
  Basis Set:
  @DF-RHF Final Energy:  -310.30999943221599
    Total Energy =                       -310.3099994322162729
    Molecular point group: c1
  Basis Set: CC-PVTZ
  Basis Set:
  Basis Set: CC-PVTZ
  Basis Set:
  @DF-RHF Final Energy:  -310.32397325089283
    Total Energy =                       -310.3239732508926636
  Basis Set: CC-PVTZ
  Basis Set:
  Basis Set: CC-PVTZ
  Basis Set:
  @DF-RHF Final Energy:  -310.32686608673919
    Total Energy =                       -310.3268660867390736
  Basis Set: CC-PVTZ
  Basis Set:
  Basis Set: CC-PVTZ
  Basis Set:
  @DF-RHF Final Energy:  -310.32761892365727
    Total Energy =                       -310.3276189236567006
  Basis Set: CC-PVTZ
  Basis Set:
  @DF-RHF Final Energy:  -310.32785966826725
    Total Energy =                       -310.3278596682675357
  Basis Set: CC-PVTZ
  Basis Set:
  @DF-RHF Final Energy:  -310.32833784209504
    Total Energy =                       -310.3283378420949816
  Basis Set: CC-PVTZ
  Basis Set:
  Basis Set: CC-PVTZ
  Basis Set:
  @DF-RHF Final Energy:  -310.32841716540202
    Total Energy =                       -310.3284171654021293
  Basis Set: CC-PVTZ
  Basis Set:
  Basis Set: CC-PVTZ
  Basis Set:
  @DF-RHF Final Energy:  -310.32845595547161
    Total Energy =                       -310.3284559554717816
  Basis Set: CC-PVTZ
  Basis Set:
  Charge       = 0
  Multiplicity = 1
  Basis Set: CC-PVTZ
  Basis Set:

    Orbital Energies (a.u.)
    -----------------------

    Doubly Occupied:

       1A    -20.545645     2A    -11.265117     3A    -11.214249
       4A    -11.212136     5A    -11.211493     6A    -11.208806
       7A    -11.203000     8A     -1.363527     9A     -1.085526
      10A     -1.030712    11A     -0.958967    12A     -0.872615
      13A     -0.812989    14A     -0.775647    15A     -0.695260
      16A     -0.659834    17A     -0.624907    18A     -0.603424
      19A     -0.586735    20A     -0.571981    21A     -0.541785
      22A     -0.523607    23A     -0.503352    24A     -0.491560
      25A     -0.482803    26A     -0.459938    27A     -0.448366
      28A     -0.441715    29A     -0.437819

  @DF-RHF Final Energy:  -310.32845652886556

   => Energetics <=

    Nuclear Repulsion Energy =            318.8774919382743747
    One-Electron Energy =               -1052.7448624924791147
    Two-Electron Energy =                 423.5389140253392952
    DFT Exchange-Correlation Energy =       0.0000000000000000
    Empirical Dispersion Energy =           0.0000000000000000
    PCM Polarization Energy =               0.0000000000000000
    EFP Energy =                            0.0000000000000000
    Total Energy =                       -310.3284565288654449
    Molecular point group: c1
  Basis Set: CC-PVTZ
  Basis Set:

  -Total Gradient:
     Atom            X                  Y                   Z
    ------   -----------------  -----------------  -----------------
       1       -0.000014940951     0.000013248432     0.000001229532
       2       -0.000012459974    -0.000068325647     0.000043603193
       3        0.000012964935     0.000049077270    -0.000023956871
       4       -0.000037989195    -0.000021417610    -0.000156328755
       5       -0.000009426259     0.000015803004    -0.000004355411
       6        0.000018083907     0.000021366024     0.000005413641
       7        0.000095777669     0.000051567740     0.000117418093
       8        0.000010133550     0.000004515758    -0.000013595423
       9       -0.000027360692     0.000021099304     0.000012953425
      10       -0.000146246558    -0.000181746760    -0.000020804224
      11        0.000009777810    -0.000027139112    -0.000014307711
      12        0.000004773905    -0.000011175995    -0.000000314978
      13        0.000032381045    -0.000037814357     0.000031828487
      14        0.000062295280     0.000121978729     0.000010926784
      15        0.000004065099     0.000014033679     0.000005909689
      16       -0.000031528844     0.000034920896     0.000006610109
      17       -0.000004029874     0.000049453277     0.000001478138
      18        0.000024090802    -0.000017085194    -0.000047970170
      19       -0.000019590987    -0.000004188616     0.000035079380
      20        0.000021820193    -0.000029172547     0.000012005845
      21        0.000007409141     0.000001001720    -0.000002822772

  **** Optimization is complete! (in 9 steps) ****
    Final optimized geometry and variables:
    Molecular point group: c1

    Geometry (in Angstrom), charge = 0, multiplicity = 1:

    H           -2.432554518667     3.134873409903     0.016384851873
    O           -1.668228895850     2.629439467434    -0.189752190722
    C           -1.847187044370     1.297184065905     0.211754455041
    C           -0.596997172376     0.515343011875    -0.139819778192
    H           -2.028108690648     1.243664900687     1.283397317615
    H           -2.709631811806     0.861529692310    -0.288039746259
    C           -0.688457460619    -0.945284247619     0.294246388819
    H            0.246637373483     1.004610877456     0.331703449728
    H           -0.440865530406     0.580186466702    -1.212053015829
    C            0.465811674755    -1.850608307769    -0.146300008244
    H           -0.774192739644    -0.991833601308     1.377402158724
    H           -1.609932900714    -1.368229247462    -0.098311284869
    C            1.850696137257    -1.516284713267     0.433517183483
    H            0.522419476659    -1.860586989856    -1.231840429046
    H            0.205433046081    -2.862075751152     0.147940914672
    C            2.710257546502    -0.595235909629    -0.430963183252
    H            2.397453908718    -2.442589553303     0.576247158623
    H            1.734547110305    -1.084886565609     1.424012825577
    H            2.893256151461    -1.043478039593    -1.401911081497
    H            2.245329858462     0.367339826843    -0.597590268441
    H            3.673206270556    -0.419359316765     0.035665990918

  Mulliken Charges: (a.u.)
   Center  Symbol    Alpha    Beta     Spin     Total
       1     H     0.39736  0.39736  0.00000  0.20529
       2     O     4.19495  4.19495  0.00000 -0.38990
       3     C     2.96396  2.96396  0.00000  0.07209
       4     C     3.09288  3.09288  0.00000 -0.18576
       5     H     0.47493  0.47493  0.00000  0.05014
       6     H     0.47303  0.47303  0.00000  0.05395
       7     C     3.10452  3.10452  0.00000 -0.20904
       8     H     0.44847  0.44847  0.00000  0.10306
       9     H     0.44832  0.44832  0.00000  0.10337
      10     C     3.09916  3.09916  0.00000 -0.19833
      11     H     0.45409  0.45409  0.00000  0.09183
      12     H     0.45026  0.45026  0.00000  0.09947
      13     C     3.09700  3.09700  0.00000 -0.19399
      14     H     0.45437  0.45437  0.00000  0.09126
      15     H     0.44443  0.44443  0.00000  0.11113
      16     C     3.14875  3.14875  0.00000 -0.29751
      17     H     0.44641  0.44641  0.00000  0.10719
      18     H     0.45285  0.45285  0.00000  0.09430
      19     H     0.45517  0.45517  0.00000  0.08967
      20     H     0.45039  0.45039  0.00000  0.09922
      21     H     0.44871  0.44871  0.00000  0.10258

   Total alpha = 29.00000, Total beta = 29.00000, Total charge = -0.00000

*** Psi4 exiting successfully. Buy a developer a beer!
