  ==> Input File <==

--------------------------------------------------------------------------
set {
	reference rhf
	basis 6-31G*
}

set_num_threads( 4 )
memory 2 gb

molecule MOL {
0 1

H	 3.276176	 0.174363	 -0.109463
N	 2.434251	 -0.367735	 -0.081097
C	 1.267428	 0.496480	 0.024474
H	 2.501951	 -0.965776	 0.720575
C	 -0.016086	 -0.325158	 -0.029487
H	 1.288818	 1.183521	 -0.816092
H	 1.267576	 1.109062	 0.929528
C	 -1.282277	 0.529072	 0.046735
H	 -0.012495	 -0.908639	 -0.945788
H	 -0.015903	 -1.041248	 0.791956
C	 -2.339745	 -0.057586	 0.981238
H	 -1.704394	 0.637432	 -0.950292
H	 -1.025093	 1.532537	 0.379708
H	 -2.644169	 -1.047829	 0.654950
H	 -3.226637	 0.567612	 1.013990
H	 -1.960258	 -0.146943	 1.995252

	symmetry c1
}
set optking {
	frozen_dihedral = ("
		12 8 5 9
	")
}

ee = optimize('scf')
oeprop('DIPOLE', 'QUADRUPOLE', 'MULLIKEN_CHARGES')
f=open( 'psi4out.xyz', 'w' )
f.write( "16  " )
f.write( str(ee) + "\n" )
f.write( MOL.save_string_xyz() )
f.close()
--------------------------------------------------------------------------

    Molecular point group: c1
  Charge       = 0
  Multiplicity = 1
  Basis Set: 6-31G*
  Basis Set:
  @DF-RHF Final Energy:  -212.31252617981838
    Total Energy =                       -212.3125261798183487
    Molecular point group: c1
  Basis Set: 6-31G*
  Basis Set:
  Basis Set: 6-31G*
  Basis Set:
  @DF-RHF Final Energy:  -212.31277434520726
    Total Energy =                       -212.3127743452074014
  Basis Set: 6-31G*
  Basis Set:
  Basis Set: 6-31G*
  Basis Set:
  @DF-RHF Final Energy:  -212.31284983041755
    Total Energy =                       -212.3128498304176333
  Basis Set: 6-31G*
  Basis Set:
  Charge       = 0
  Multiplicity = 1
  Basis Set: 6-31G*
  Basis Set:

    Orbital Energies (a.u.)
    -----------------------

    Doubly Occupied:

       1A    -15.532527     2A    -11.240053     3A    -11.214931
       4A    -11.209368     5A    -11.208307     6A     -1.176763
       7A     -1.057268     8A     -0.958479     9A     -0.843819
      10A     -0.792018    11A     -0.661592    12A     -0.638718
      13A     -0.597678    14A     -0.586895    15A     -0.563813
      16A     -0.516793    17A     -0.508524    18A     -0.469457
      19A     -0.461610    20A     -0.458757    21A     -0.381245

  @DF-RHF Final Energy:  -212.31284973553326

   => Energetics <=

    Nuclear Repulsion Energy =            186.3640076099085547
    One-Electron Energy =                -655.1964905102631747
    Two-Electron Energy =                 256.5196331648213572
    DFT Exchange-Correlation Energy =       0.0000000000000000
    Empirical Dispersion Energy =           0.0000000000000000
    PCM Polarization Energy =               0.0000000000000000
    EFP Energy =                            0.0000000000000000
    Total Energy =                       -212.3128497355332911
    Molecular point group: c1
  Basis Set: 6-31G*
  Basis Set:

  -Total Gradient:
     Atom            X                  Y                   Z
    ------   -----------------  -----------------  -----------------
       1        0.000022194106    -0.000011829775    -0.000004622214
       2        0.000031213138    -0.000009114035    -0.000028461313
       3       -0.000053832156     0.000021986838     0.000077885261
       4        0.000003304662     0.000006521161     0.000000616705
       5       -0.002528796396    -0.003790406107     0.001966492887
       6        0.000001455121    -0.000005319532     0.000013081295
       7        0.000022586870     0.000038362877     0.000005710039
       8        0.002686186410     0.004021949398    -0.000919654659
       9        0.001606778762     0.002491922010    -0.001599632805
      10       -0.000026371155     0.000050506408    -0.000002769609
      11        0.000025282604    -0.000016711436    -0.000003098379
      12       -0.001841271433    -0.002762653635     0.000460161971
      13        0.000068987965    -0.000035139749     0.000031490786
      14        0.000024674381    -0.000025822258     0.000038339385
      15       -0.000011832716    -0.000012458174    -0.000048132127
      16       -0.000030560163     0.000038206009     0.000012592776

  **** Optimization is complete! (in 4 steps) ****
    Final optimized geometry and variables:
    Molecular point group: c1

    Geometry (in Angstrom), charge = 0, multiplicity = 1:

    H            3.235536435343     0.128992304170    -0.366243911073
    N            2.396130726269    -0.415942461659    -0.321890610356
    C            1.230044681993     0.441213556149    -0.171447377565
    H            2.488187240038    -1.026318191223     0.468004017953
    C           -0.054088118591    -0.384511467960    -0.196177896467
    H            1.222304578423     1.138525458082    -1.004082970711
    H            1.253157083188     1.043723379729     0.740315935851
    C           -1.325093964757     0.485059244582    -0.138007888066
    H           -0.037620457493    -0.974115926444    -1.106639571559
    H           -0.038682816987    -1.083393166253     0.637878537342
    C           -2.414329825363    -0.101953771188     0.762015924372
    H           -1.735163709665     0.592295443426    -1.138165862315
    H           -1.080066170307     1.485330141357     0.210409380265
    H           -2.690932008460    -1.101585768507     0.438606347991
    H           -3.310816615700     0.510492375563     0.747578535299
    H           -2.075818053090    -0.171409085704     1.792094821489

  Mulliken Charges: (a.u.)
   Center  Symbol    Alpha    Beta     Spin     Total
       1     H     0.33240  0.33240  0.00000  0.33520
       2     N     3.92203  3.92203  0.00000 -0.84406
       3     C     3.06289  3.06289  0.00000 -0.12578
       4     H     0.33529  0.33529  0.00000  0.32942
       5     C     3.15351  3.15351  0.00000 -0.30702
       6     H     0.42062  0.42062  0.00000  0.15876
       7     H     0.43482  0.43482  0.00000  0.13035
       8     C     3.15778  3.15778  0.00000 -0.31557
       9     H     0.41053  0.41053  0.00000  0.17893
      10     H     0.42552  0.42552  0.00000  0.14896
      11     C     3.23961  3.23961  0.00000 -0.47921
      12     H     0.41901  0.41901  0.00000  0.16198
      13     H     0.42177  0.42177  0.00000  0.15647
      14     H     0.42079  0.42079  0.00000  0.15842
      15     H     0.42065  0.42065  0.00000  0.15871
      16     H     0.42277  0.42277  0.00000  0.15445

   Total alpha = 21.00000, Total beta = 21.00000, Total charge = -0.00000
