                              Psi4 1.0.54 Driver

  ==> Input File <==

--------------------------------------------------------------------------
set {
	reference rhf
	basis cc-pvtz
}

set_num_threads( 4 )
memory 2 gb

molecule MOL {
0 1

O	 -2.440619	 -0.934692	 -0.415454
C	 -1.922978	 0.063265	 -0.045005
C	 -2.632866	 1.372053	 0.158924
O	 -0.637375	 0.157174	 0.243149
H	 -2.187931	 2.129298	 -0.473795
H	 -3.677794	 1.257127	 -0.078887
H	 -2.516903	 1.692592	 1.186239
C	 0.162530	 -1.009518	 0.097799
C	 1.587210	 -0.664190	 0.477086
H	 0.096803	 -1.356267	 -0.924704
H	 -0.233803	 -1.785900	 0.736810
C	 2.256770	 0.342732	 -0.454344
H	 2.154716	 -1.590834	 0.479041
H	 1.598751	 -0.289614	 1.496104
C	 3.698146	 0.643205	 -0.057145
H	 2.235038	 -0.042575	 -1.470299
H	 1.683491	 1.262594	 -0.461300
H	 4.150202	 1.356548	 -0.736242
H	 4.305463	 -0.255904	 -0.069842
H	 3.749130	 1.061068	 0.942759

	symmetry c1
}
set optking {
	frozen_dihedral = ("
		1 2 4 8
	")
}

ee,wfn = optimize('scf', return_wfn=True)
oeprop( wfn, 'DIPOLE', 'QUADRUPOLE', 'MULLIKEN_CHARGES')
f=open( 'psi4out.xyz', 'w' )
f.write( "20  " )
f.write( str(ee) + "\n" )
f.write( MOL.save_string_xyz() )
f.close()
--------------------------------------------------------------------------

    Molecular point group: c1
  Charge       = 0
  Multiplicity = 1
  Basis Set: CC-PVTZ
  Basis Set:
  @DF-RHF Final Energy:  -384.08757485285673
    Total Energy =                       -384.0875748528565055
    Molecular point group: c1
  Basis Set: CC-PVTZ
  Basis Set:
  Basis Set: CC-PVTZ
  Basis Set:
  @DF-RHF Final Energy:  -384.08757259568313
    Total Energy =                       -384.0875725956836959
  Basis Set: CC-PVTZ
  Basis Set:
  Basis Set: CC-PVTZ
  Basis Set:
  @DF-RHF Final Energy:  -384.08757397081297
    Total Energy =                       -384.0875739708130823
  Basis Set: CC-PVTZ
  Basis Set:
  Charge       = 0
  Multiplicity = 1
  Basis Set: CC-PVTZ
  Basis Set:

    Orbital Energies (a.u.)
    -----------------------

    Doubly Occupied:

       1A    -20.594375     2A    -20.532649     3A    -11.366673
       4A    -11.280199     5A    -11.231699     6A    -11.223574
       7A    -11.218859     8A    -11.211626     9A     -1.471070
      10A     -1.365194    11A     -1.087253    12A     -1.029309
      13A     -0.982315    14A     -0.881285    15A     -0.812282
      16A     -0.776930    17A     -0.692560    18A     -0.686666
      19A     -0.670272    20A     -0.632668    21A     -0.601977
      22A     -0.594135    23A     -0.573067    24A     -0.551737
      25A     -0.545910    26A     -0.533010    27A     -0.513111
      28A     -0.484157    29A     -0.475515    30A     -0.474301
      31A     -0.451741    32A     -0.442097

  @DF-RHF Final Energy:  -384.08757586658322

   => Energetics <=

    Nuclear Repulsion Energy =            385.6764237198546539
    One-Electron Energy =               -1287.5515697870773693
    Two-Electron Energy =                 517.7875702006393794
    DFT Exchange-Correlation Energy =       0.0000000000000000
    Empirical Dispersion Energy =           0.0000000000000000
    PCM Polarization Energy =               0.0000000000000000
    EFP Energy =                            0.0000000000000000
    Total Energy =                       -384.0875758665832791
    Molecular point group: c1
  Basis Set: CC-PVTZ
  Basis Set:

  -Total Gradient:
     Atom            X                  Y                   Z
    ------   -----------------  -----------------  -----------------
       1       -0.000000358628    -0.000005042198     0.000009411835
       2        0.000002171415    -0.000008608485     0.000008770456
       3        0.000007841585     0.000014938290    -0.000028341041
       4       -0.000011076855    -0.000001244208     0.000026138496
       5        0.000000717543     0.000006538953     0.000004556579
       6       -0.000005760370    -0.000002492348    -0.000002557561
       7        0.000001231900    -0.000007535330     0.000005264635
       8        0.000003823073     0.000008241423    -0.000016879099
       9       -0.000002187161     0.000004806453    -0.000003498192
      10        0.000000427950    -0.000004639951    -0.000004993834
      11       -0.000000297145     0.000001851180    -0.000000077711
      12        0.000003623850    -0.000005884640     0.000000383935
      13        0.000001480385    -0.000001084043    -0.000001106051
      14        0.000001877695    -0.000001057319     0.000004493438
      15       -0.000003952481    -0.000000581540     0.000001110517
      16        0.000000753630     0.000001193570    -0.000003153666
      17       -0.000001049789     0.000000141595    -0.000000824551
      18       -0.000001082226     0.000001220558    -0.000000377246
      19        0.000000981869    -0.000001357341    -0.000000032043
      20        0.000000833759     0.000000595382     0.000001711108

  **** Optimization is complete! (in 4 steps) ****
    Final optimized geometry and variables:
    Molecular point group: c1

    Geometry (in Angstrom), charge = 0, multiplicity = 1:

    O           -2.436793010571    -0.937147417080    -0.420837605899
    C           -1.922134923957     0.060119369392    -0.044538695080
    C           -2.634455858853     1.367114489706     0.160507322676
    O           -0.637617266930     0.154603768195     0.248017032766
    H           -2.188379583742     2.126390364685    -0.468911719817
    H           -3.678485525833     1.251430610620    -0.080932277539
    H           -2.522032745087     1.684905811131     1.189015122825
    C            0.164079080541    -1.010555086733     0.100048938796
    C            1.589114058048    -0.663145125795     0.476050398358
    H            0.096655450614    -1.356636029266    -0.922560059853
    H           -0.229272035325    -1.788166166168     0.739336747283
    C            2.254891543291     0.344956049231    -0.456675713395
    H            2.158119204795    -1.588825771965     0.476260480753
    H            1.602461223526    -0.288814092212     1.495109054814
    C            3.693800200596     0.653999475168    -0.057586665610
    H            2.237047088828    -0.042818470469    -1.471744941273
    H            1.676850827167     1.261709084207    -0.466634759166
    H            4.142975887712     1.368821138310    -0.737023276878
    H            4.305941828537    -0.241810606020    -0.068001016244
    H            3.740762522766     1.073590067823     0.941773905070

  Mulliken Charges: (a.u.)
   Center  Symbol    Alpha    Beta     Spin     Total
       1     O     4.19730  4.19730  0.00000 -0.39459
       2     C     2.80878  2.80878  0.00000  0.38244
       3     C     3.13845  3.13845  0.00000 -0.27689
       4     O     4.15350  4.15350  0.00000 -0.30700
       5     H     0.44610  0.44610  0.00000  0.10781
       6     H     0.43778  0.43778  0.00000  0.12444
       7     H     0.44571  0.44571  0.00000  0.10858
       8     C     2.99348  2.99348  0.00000  0.01303
       9     C     3.08422  3.08422  0.00000 -0.16844
      10     H     0.45094  0.45094  0.00000  0.09812
      11     H     0.44458  0.44458  0.00000  0.11084
      12     C     3.08623  3.08623  0.00000 -0.17246
      13     H     0.45162  0.45162  0.00000  0.09676
      14     H     0.45192  0.45192  0.00000  0.09615
      15     C     3.15017  3.15017  0.00000 -0.30033
      16     H     0.45493  0.45493  0.00000  0.09013
      17     H     0.44722  0.44722  0.00000  0.10555
      18     H     0.44735  0.44735  0.00000  0.10529
      19     H     0.45541  0.45541  0.00000  0.08918
      20     H     0.45431  0.45431  0.00000  0.09138

   Total alpha = 32.00000, Total beta = 32.00000, Total charge = -0.00000

*** Psi4 exiting successfully. Buy a developer a beer!
