  ==> Input File <==

--------------------------------------------------------------------------
set {
	reference rhf
	basis cc-pvtz
}

set_num_threads( 4 )
memory 2 gb

molecule MOL {
0 1

H	 -1.621138	 2.268525	 0.562876
C	 -1.693605	 1.455064	 1.272277
C	 -0.398100	 0.660300	 1.325482
H	 -2.520930	 0.828818	 0.966393
H	 -1.920231	 1.869947	 2.247170
C	 0.000000	 0.039916	 0.000014
H	 -0.466046	 -0.140689	 2.056714
H	 0.425949	 1.286482	 1.656739
C	 1.286532	 -0.763243	 0.000268
O	 -0.656865	 0.175010	 -0.980117
C	 2.547023	 0.087626	 -0.000114
H	 1.264245	 -1.421103	 -0.864380
H	 1.264290	 -1.420353	 0.865489
H	 2.584452	 0.725630	 -0.872909
H	 3.427035	 -0.544422	 0.000125
H	 2.584484	 0.726356	 0.872143

	symmetry c1
}
set optking {
	frozen_dihedral = ("
		3 6 9 12
	")
}

ee = optimize('scf')
oeprop('DIPOLE', 'QUADRUPOLE', 'MULLIKEN_CHARGES')
f=open( 'psi4out.xyz', 'w' )
f.write( "16  " )
f.write( str(ee) + "\n" )
f.write( MOL.save_string_xyz() )
f.close()
--------------------------------------------------------------------------

    Molecular point group: c1
  Charge       = 0
  Multiplicity = 1
  Basis Set: CC-PVTZ
  Basis Set:
  @DF-RHF Final Energy:  -270.12887280534710
    Total Energy =                       -270.1288728053471004
    Molecular point group: c1
  Basis Set: CC-PVTZ
  Basis Set:
  Basis Set: CC-PVTZ
  Basis Set:
  @DF-RHF Final Energy:  -270.12949370864334
    Total Energy =                       -270.1294937086435084
  Basis Set: CC-PVTZ
  Basis Set:
  Basis Set: CC-PVTZ
  Basis Set:
  @DF-RHF Final Energy:  -270.12903592906537
    Total Energy =                       -270.1290359290652532
  Basis Set: CC-PVTZ
  Basis Set:
  Basis Set: CC-PVTZ
  Basis Set:
  @DF-RHF Final Energy:  -270.12956936715739
    Total Energy =                       -270.1295693671573872
  Basis Set: CC-PVTZ
  Basis Set:
  Basis Set: CC-PVTZ
  Basis Set:
  @DF-RHF Final Energy:  -270.12960106971889
    Total Energy =                       -270.1296010697187171
  Basis Set: CC-PVTZ
  Basis Set:
  Basis Set: CC-PVTZ
  Basis Set:
  @DF-RHF Final Energy:  -270.12960310149583
    Total Energy =                       -270.1296031014961159
  Basis Set: CC-PVTZ
  Basis Set:
  Charge       = 0
  Multiplicity = 1
  Basis Set: CC-PVTZ
  Basis Set:

    Orbital Energies (a.u.)
    -----------------------

    Doubly Occupied:

       1A    -20.537926     2A    -11.317057     3A    -11.232191
       4A    -11.230678     5A    -11.226891     6A    -11.211605
       7A     -1.397768     8A     -1.073083     9A     -1.037023
      10A     -0.911748    11A     -0.858866    12A     -0.727429
      13A     -0.665441    14A     -0.643540    15A     -0.627505
      16A     -0.606439    17A     -0.564050    18A     -0.541364
      19A     -0.534425    20A     -0.511043    21A     -0.504282
      22A     -0.499101    23A     -0.482116    24A     -0.398600

  @DF-RHF Final Energy:  -270.12960373412426

   => Energetics <=

    Nuclear Repulsion Energy =            241.0243070543037334
    One-Electron Energy =                -843.6274855004351139
    Two-Electron Energy =                 332.4735747120067799
    DFT Exchange-Correlation Energy =       0.0000000000000000
    Empirical Dispersion Energy =           0.0000000000000000
    PCM Polarization Energy =               0.0000000000000000
    EFP Energy =                            0.0000000000000000
    Total Energy =                       -270.1296037341245437
    Molecular point group: c1
  Basis Set: CC-PVTZ
  Basis Set:

  -Total Gradient:
     Atom            X                  Y                   Z
    ------   -----------------  -----------------  -----------------
       1       -0.000003723915    -0.000001419354    -0.000000113788
       2        0.000005214663     0.000011571443     0.000008688771
       3        0.000447545227     0.000751087882    -0.000218371292
       4        0.000000865256    -0.000000273503    -0.000000554953
       5       -0.000003357827     0.000002549766     0.000000976729
       6       -0.000543245666    -0.000919696749     0.000155537501
       7        0.000002895806    -0.000001505359     0.000007216225
       8       -0.000003334810    -0.000001712446    -0.000005834658
       9       -0.000436088859    -0.000684044974     0.000700122908
      10        0.000006778289    -0.000003028655     0.000013454130
      11        0.000033103697     0.000013959813     0.000004997352
      12        0.000525169939     0.000845073675    -0.000656965001
      13       -0.000001182404     0.000000687355    -0.000008057174
      14       -0.000013863159    -0.000007500397    -0.000000088690
      15       -0.000010218193    -0.000001657990     0.000000505502
      16       -0.000006558043    -0.000004090509    -0.000001513560

  **** Optimization is complete! (in 7 steps) ****
    Final optimized geometry and variables:
    Molecular point group: c1

    Geometry (in Angstrom), charge = 0, multiplicity = 1:

    H           -1.652340302118     2.059212010368     0.302159256726
    C           -1.839698254900     1.227648074998     0.968928222201
    C           -0.616624271030     0.330722585911     1.079218197663
    H           -2.686822672754     0.681169165433     0.577793854606
    H           -2.105223108069     1.623337309942     1.942004212461
    C           -0.181528052160    -0.284474795730    -0.236205631666
    H           -0.803543485815    -0.491748255768     1.765898232210
    H            0.225218787548     0.871961111410     1.499296096823
    C            1.120473275023    -1.062785903135    -0.239760390054
    O           -0.820071841306    -0.157729109583    -1.230241260576
    C            2.339866456472    -0.137585345708    -0.319008929216
    H            1.104731479105    -1.709643169379    -1.105877446349
    H            1.184355381303    -1.677524465059     0.651802858600
    H            2.292851428935     0.481773799471    -1.206284822571
    H            3.249091012322    -0.723253801065    -0.367506228578
    H            2.413579268750     0.512546714181     0.544237563680

  Mulliken Charges: (a.u.)
   Center  Symbol    Alpha    Beta     Spin     Total
       1     H     0.44935  0.44935  0.00000  0.10130
       2     C     3.14121  3.14121  0.00000 -0.28242
       3     C     3.10624  3.10624  0.00000 -0.21249
       4     H     0.44592  0.44592  0.00000  0.10816
       5     H     0.45081  0.45081  0.00000  0.09837
       6     C     2.86245  2.86245  0.00000  0.27510
       7     H     0.44550  0.44550  0.00000  0.10900
       8     H     0.44532  0.44532  0.00000  0.10936
       9     C     3.09490  3.09490  0.00000 -0.18980
      10     O     4.17544  4.17544  0.00000 -0.35088
      11     C     3.15191  3.15191  0.00000 -0.30382
      12     H     0.43750  0.43750  0.00000  0.12501
      13     H     0.45023  0.45023  0.00000  0.09954
      14     H     0.44490  0.44490  0.00000  0.11020
      15     H     0.44476  0.44476  0.00000  0.11048
      16     H     0.45357  0.45357  0.00000  0.09287

   Total alpha = 24.00000, Total beta = 24.00000, Total charge =  0.00000
