  ==> Input File <==

--------------------------------------------------------------------------
set {
	reference rhf
	basis 6-31G*
}

set_num_threads( 4 )
memory 2 gb

molecule MOL {
0 1

H	 2.383489	 -0.938493	 -1.630867
O	 1.733645	 -1.180223	 -0.978136
C	 0.759986	 -0.270951	 -1.007157
C	 -0.318135	 -0.576402	 0.000164
O	 0.779848	 0.653181	 -1.753201
C	 -1.454360	 0.441875	 -0.000474
H	 -0.685339	 -1.577108	 -0.211386
H	 0.157204	 -0.636119	 0.975607
C	 -2.826123	 -0.230780	 0.000056
H	 -1.357605	 1.085198	 -0.868380
H	 -1.357504	 1.086451	 0.866496
H	 -2.959731	 -0.858053	 -0.876869
H	 -3.619374	 0.509403	 -0.000080
H	 -2.959371	 -0.857318	 0.877556

	symmetry c1
}
set optking {
	frozen_dihedral = ("
		7 4 6 10
	")
}

ee = optimize('scf')
oeprop('DIPOLE', 'QUADRUPOLE', 'MULLIKEN_CHARGES')
f=open( 'psi4out.xyz', 'w' )
f.write( "14  " )
f.write( str(ee) + "\n" )
f.write( MOL.save_string_xyz() )
f.close()
--------------------------------------------------------------------------

    Molecular point group: c1
  Charge       = 0
  Multiplicity = 1
  Basis Set: 6-31G*
  Basis Set:
  @DF-RHF Final Energy:  -305.87626073264857
    Total Energy =                       -305.8762607326485750
    Molecular point group: c1
  Basis Set: 6-31G*
  Basis Set:
  Basis Set: 6-31G*
  Basis Set:
  @DF-RHF Final Energy:  -305.87654694093646
    Total Energy =                       -305.8765469409363504
  Basis Set: 6-31G*
  Basis Set:
  Basis Set: 6-31G*
  Basis Set:
  @DF-RHF Final Energy:  -305.87649389089484
    Total Energy =                       -305.8764938908949489
  Basis Set: 6-31G*
  Basis Set:
  Basis Set: 6-31G*
  Basis Set:
  @DF-RHF Final Energy:  -305.87664551248986
    Total Energy =                       -305.8766455124898584
  Basis Set: 6-31G*
  Basis Set:
  Basis Set: 6-31G*
  Basis Set:
  @DF-RHF Final Energy:  -305.87664718965300
    Total Energy =                       -305.8766471896531129
  Basis Set: 6-31G*
  Basis Set:
  Basis Set: 6-31G*
  Basis Set:
  @DF-RHF Final Energy:  -305.87664825774868
    Total Energy =                       -305.8766482577487977
  Basis Set: 6-31G*
  Basis Set:
  Charge       = 0
  Multiplicity = 1
  Basis Set: 6-31G*
  Basis Set:

    Orbital Energies (a.u.)
    -----------------------

    Doubly Occupied:

       1A    -20.613346     2A    -20.552890     3A    -11.382718
       4A    -11.241091     5A    -11.223945     6A    -11.216449
       7A     -1.475764     8A     -1.366699     9A     -1.079944
      10A     -0.979852    11A     -0.857957    12A     -0.790642
      13A     -0.701094    14A     -0.692303    15A     -0.660698
      16A     -0.613461    17A     -0.595772    18A     -0.569596
      19A     -0.552179    20A     -0.498823    21A     -0.491223
      22A     -0.481202    23A     -0.476535    24A     -0.446661

  @DF-RHF Final Energy:  -305.87664829247996

   => Energetics <=

    Nuclear Repulsion Energy =            240.1055341687288660
    One-Electron Energy =                -892.8426787516431204
    Two-Electron Energy =                 346.8604962904342415
    DFT Exchange-Correlation Energy =       0.0000000000000000
    Empirical Dispersion Energy =           0.0000000000000000
    PCM Polarization Energy =               0.0000000000000000
    EFP Energy =                            0.0000000000000000
    Total Energy =                       -305.8766482924799561
    Molecular point group: c1
  Basis Set: 6-31G*
  Basis Set:

  -Total Gradient:
     Atom            X                  Y                   Z
    ------   -----------------  -----------------  -----------------
       1        0.000003131846    -0.000001674312     0.000001389188
       2        0.000004140600     0.000006801924    -0.000013153698
       3       -0.000004478334    -0.000005586870     0.000002842854
       4        0.000738026438     0.000878450970    -0.002828956435
       5        0.000012990422    -0.000003381875     0.000005637796
       6       -0.001823955489    -0.002057781790    -0.000984785862
       7       -0.000331485209    -0.000407655321     0.002478779001
       8        0.000002511109     0.000003274247     0.000004130648
       9       -0.000001036501     0.000003797434     0.000000191006
      10        0.001404090142     0.001583971251     0.001332884692
      11       -0.000001909635     0.000002333993    -0.000000741467
      12        0.000002548535    -0.000003345649     0.000002809321
      13       -0.000002198164    -0.000002042150    -0.000003627265
      14       -0.000002375765     0.000002838147     0.000002600221

  **** Optimization is complete! (in 7 steps) ****
    Final optimized geometry and variables:
    Molecular point group: c1

    Geometry (in Angstrom), charge = 0, multiplicity = 1:

    H            2.598126095272    -0.731976323623    -0.944378047901
    O            1.932271351281    -0.968580659792    -0.306154267173
    C            0.958274132401    -0.061239193410    -0.368978318370
    C           -0.140874068516    -0.369490385941     0.616252862820
    O            0.999220939387     0.855399266707    -1.123261697005
    C           -1.295109469370     0.644811706506     0.628276118340
    H           -0.493102863176    -1.374627635146     0.401965723339
    H            0.330034259370    -0.446816182054     1.591747026241
    C           -2.670842743036    -0.018666864341     0.665927051296
    H           -1.210533942540     1.292618174311    -0.234656065895
    H           -1.187591878994     1.292674323940     1.492939038139
    H           -2.833351218506    -0.632650350247    -0.215275554013
    H           -3.458946993415     0.726368649099     0.700452608119
    H           -2.780272408349    -0.656095870816     1.538962863722

  Mulliken Charges: (a.u.)
   Center  Symbol    Alpha    Beta     Spin     Total
       1     H     0.26752  0.26752  0.00000  0.46497
       2     O     4.34944  4.34944  0.00000 -0.69888
       3     C     2.62899  2.62899  0.00000  0.74201
       4     C     3.21286  3.21286  0.00000 -0.42573
       5     O     4.27822  4.27822  0.00000 -0.55645
       6     C     3.16033  3.16033  0.00000 -0.32066
       7     H     0.39619  0.39619  0.00000  0.20763
       8     H     0.39577  0.39577  0.00000  0.20847
       9     C     3.24321  3.24321  0.00000 -0.48642
      10     H     0.39432  0.39432  0.00000  0.21136
      11     H     0.41665  0.41665  0.00000  0.16671
      12     H     0.41934  0.41934  0.00000  0.16133
      13     H     0.41581  0.41581  0.00000  0.16838
      14     H     0.42136  0.42136  0.00000  0.15728

   Total alpha = 24.00000, Total beta = 24.00000, Total charge = -0.00000
