  ==> Input File <==

--------------------------------------------------------------------------
set {
	reference rhf
	basis cc-pvtz
}

set_num_threads( 4 )
memory 2 gb

molecule MOL {
0 1

H	 -1.752232	 -2.214755	 -0.011938
C	 -1.343852	 -1.221619	 -0.018179
N	 -0.058800	 -1.097635	 -0.261688
C	 -2.148159	 -0.124236	 0.219734
C	 0.449026	 0.119242	 -0.273393
H	 -3.196988	 -0.237571	 0.417076
N	 -1.655094	 1.094230	 0.209506
C	 -0.370318	 1.215445	 -0.035100
C	 1.924033	 0.265863	 -0.538106
H	 0.033214	 2.210441	 -0.046812
C	 2.529365	 -0.971642	 -1.202640
H	 2.067874	 1.126023	 -1.180910
H	 2.437687	 0.471320	 0.393646
H	 3.581723	 -0.815411	 -1.407749
H	 2.028399	 -1.185382	 -2.137694
H	 2.437342	 -1.842393	 -0.563210

	symmetry c1
}
set optking {
	frozen_dihedral = ("
		12 9 5 3
	")
}

ee = optimize('scf')
oeprop('DIPOLE', 'QUADRUPOLE', 'MULLIKEN_CHARGES')
f=open( 'psi4out.xyz', 'w' )
f.write( "16  " )
f.write( str(ee) + "\n" )
f.write( MOL.save_string_xyz() )
f.close()
--------------------------------------------------------------------------

    Molecular point group: c1
  Charge       = 0
  Multiplicity = 1
  Basis Set: CC-PVTZ
  Basis Set:
  @DF-RHF Final Energy:  -340.87038078271058
    Total Energy =                       -340.8703807827102423
    Molecular point group: c1
  Basis Set: CC-PVTZ
  Basis Set:
  Basis Set: CC-PVTZ
  Basis Set:
  @DF-RHF Final Energy:  -340.87091867214798
    Total Energy =                       -340.8709186721480364
  Basis Set: CC-PVTZ
  Basis Set:
  Basis Set: CC-PVTZ
  Basis Set:
  @DF-RHF Final Energy:  -340.87103570267340
    Total Energy =                       -340.8710357026733959
  Basis Set: CC-PVTZ
  Basis Set:
  Basis Set: CC-PVTZ
  Basis Set:
  @DF-RHF Final Energy:  -340.87106047945116
    Total Energy =                       -340.8710604794512733
  Basis Set: CC-PVTZ
  Basis Set:
  Basis Set: CC-PVTZ
  Basis Set:
  @DF-RHF Final Energy:  -340.87107580507097
    Total Energy =                       -340.8710758050710865
  Basis Set: CC-PVTZ
  Basis Set:
  Basis Set: CC-PVTZ
  Basis Set:
  @DF-RHF Final Energy:  -340.87107764592497
    Total Energy =                       -340.8710776459250837
  Basis Set: CC-PVTZ
  Basis Set:
  Charge       = 0
  Multiplicity = 1
  Basis Set: CC-PVTZ
  Basis Set:

    Orbital Energies (a.u.)
    -----------------------

    Doubly Occupied:

       1A    -15.580346     2A    -15.575013     3A    -11.280412
       4A    -11.270796     5A    -11.269191     6A    -11.266119
       7A    -11.233543     8A    -11.211166     9A     -1.315837
      10A     -1.223936    11A     -1.084797    12A     -1.015160
      13A     -0.912037    14A     -0.890636    15A     -0.825320
      16A     -0.720487    17A     -0.708468    18A     -0.658219
      19A     -0.629259    20A     -0.604189    21A     -0.570364
      22A     -0.560789    23A     -0.523146    24A     -0.504213
      25A     -0.502038    26A     -0.487491    27A     -0.434840
      28A     -0.397213    29A     -0.345699

  @DF-RHF Final Energy:  -340.87107847906054

   => Energetics <=

    Nuclear Repulsion Energy =            350.4095359131772511
    One-Electron Energy =               -1155.3597734297932220
    Two-Electron Energy =                 464.0791590375558258
    DFT Exchange-Correlation Energy =       0.0000000000000000
    Empirical Dispersion Energy =           0.0000000000000000
    PCM Polarization Energy =               0.0000000000000000
    EFP Energy =                            0.0000000000000000
    Total Energy =                       -340.8710784790601451
    Molecular point group: c1
  Basis Set: CC-PVTZ
  Basis Set:

  -Total Gradient:
     Atom            X                  Y                   Z
    ------   -----------------  -----------------  -----------------
       1        0.000026064567    -0.000006732937     0.000031271582
       2       -0.000048496008     0.000010472601    -0.000095872626
       3       -0.000098515368    -0.000026822618    -0.000245990316
       4        0.000054577969    -0.000024336376    -0.000028224225
       5        0.000084907663    -0.000072500966     0.000398864440
       6        0.000007227148     0.000009783295     0.000023059849
       7        0.000076373082     0.000040319868    -0.000021684793
       8       -0.000081740154    -0.000022078867     0.000049551429
       9        0.000056091474     0.000281474403     0.000203753922
      10       -0.000011660768     0.000015617660    -0.000011526148
      11       -0.000027757480    -0.000031930334    -0.000014174939
      12       -0.000028862746    -0.000160577353    -0.000280248600
      13       -0.000022795879     0.000001346927    -0.000015973320
      14       -0.000015504232     0.000003692090     0.000018167905
      15        0.000010448706    -0.000000153098     0.000001094632
      16        0.000019642024    -0.000017574297    -0.000012068792

  **** Optimization is complete! (in 7 steps) ****
    Final optimized geometry and variables:
    Molecular point group: c1

    Geometry (in Angstrom), charge = 0, multiplicity = 1:

    H           -1.772566140011    -2.092479727079     0.241929562758
    C           -1.347135642129    -1.106926348009     0.238094941218
    N           -0.056640793509    -1.007484231552    -0.025918827728
    C           -2.120723277377    -0.001678784746     0.497205557416
    C            0.474930465382     0.190836513323    -0.034297467900
    H           -3.168111152555    -0.091722217327     0.711342417042
    N           -1.599498080203     1.212637187792     0.488285107161
    C           -0.323463452800     1.307175532964     0.225340949622
    C            1.951626414238     0.355716616001    -0.309232025691
    H            0.103692289174     2.293108903280     0.212479994725
    C            2.619780595775    -0.854656794604    -0.948269532932
    H            2.085715056310     1.226280487855    -0.942658349567
    H            2.446218621648     0.590269229607     0.629469966915
    H            3.667297151540    -0.644033437738    -1.127908257132
    H            2.155980886419    -1.102995092003    -1.894818162503
    H            2.549497063891    -1.724701356809    -0.311079659211

  Mulliken Charges: (a.u.)
   Center  Symbol    Alpha    Beta     Spin     Total
       1     H     0.41466  0.41466  0.00000  0.17068
       2     C     3.04733  3.04733  0.00000 -0.09466
       3     N     3.58944  3.58944  0.00000 -0.17887
       4     C     3.04703  3.04703  0.00000 -0.09407
       5     C     2.94523  2.94523  0.00000  0.10954
       6     H     0.41365  0.41365  0.00000  0.17271
       7     N     3.58678  3.58678  0.00000 -0.17356
       8     C     3.07456  3.07456  0.00000 -0.14911
       9     C     3.08012  3.08012  0.00000 -0.16024
      10     H     0.41637  0.41637  0.00000  0.16725
      11     C     3.14396  3.14396  0.00000 -0.28792
      12     H     0.44770  0.44770  0.00000  0.10461
      13     H     0.44604  0.44604  0.00000  0.10792
      14     H     0.45020  0.45020  0.00000  0.09960
      15     H     0.45118  0.45118  0.00000  0.09764
      16     H     0.44575  0.44575  0.00000  0.10849

   Total alpha = 29.00000, Total beta = 29.00000, Total charge = -0.00000
