                              Psi4 1.0.54 Driver

  ==> Input File <==

--------------------------------------------------------------------------
set {
	reference rhf
	basis cc-pvtz
}

set_num_threads( 4 )
memory 2 gb

molecule MOL {
0 1

O	 0.623971	 1.347241	 -0.000777
C	 0.485107	 0.171416	 -0.000134
C	 1.606966	 -0.836201	 0.000174
O	 -0.695554	 -0.422406	 0.000602
C	 2.988788	 -0.202529	 -0.000115
H	 1.465110	 -1.474645	 -0.864821
H	 1.465209	 -1.474077	 0.865596
H	 3.131767	 0.419673	 -0.873407
H	 3.750876	 -0.972315	 0.000098
H	 3.131883	 0.420264	 0.872742
C	 -1.570406	 -0.159707	 -1.087475
C	 -2.839577	 -0.947052	 -0.859924
H	 -1.084296	 -0.448050	 -2.008834
H	 -1.765381	 0.902376	 -1.135309
H	 -2.631853	 -2.008657	 -0.812827
H	 -3.531337	 -0.768915	 -1.674766
H	 -3.316862	 -0.650514	 0.065622

	symmetry c1
}
set optking {
	frozen_dihedral = ("
		11 4 2 3
	")
}

ee,wfn = optimize('scf', return_wfn=True)
oeprop( wfn, 'DIPOLE', 'QUADRUPOLE', 'MULLIKEN_CHARGES')
f=open( 'psi4out.xyz', 'w' )
f.write( "17  " )
f.write( str(ee) + "\n" )
f.write( MOL.save_string_xyz() )
f.close()
--------------------------------------------------------------------------

    Molecular point group: c1
  Charge       = 0
  Multiplicity = 1
  Basis Set: CC-PVTZ
  Basis Set:
  @DF-RHF Final Energy:  -345.02664687067215
    Total Energy =                       -345.0266468706720389
    Molecular point group: c1
  Basis Set: CC-PVTZ
  Basis Set:
  Basis Set: CC-PVTZ
  Basis Set:
  @DF-RHF Final Energy:  -345.02291609608392
    Total Energy =                       -345.0229160960840318
  Basis Set: CC-PVTZ
  Basis Set:
  Basis Set: CC-PVTZ
  Basis Set:
  @DF-RHF Final Energy:  -345.02706766838099
    Total Energy =                       -345.0270676683807096
  Basis Set: CC-PVTZ
  Basis Set:
  Basis Set: CC-PVTZ
  Basis Set:
  @DF-RHF Final Energy:  -345.02696154480117
    Total Energy =                       -345.0269615448011109
  Basis Set: CC-PVTZ
  Basis Set:
  Basis Set: CC-PVTZ
  Basis Set:
  @DF-RHF Final Energy:  -345.02745707562394
    Total Energy =                       -345.0274570756241701
  Basis Set: CC-PVTZ
  Basis Set:
  Basis Set: CC-PVTZ
  Basis Set:
  @DF-RHF Final Energy:  -345.02746706438518
    Total Energy =                       -345.0274670643854620
  Basis Set: CC-PVTZ
  Basis Set:
  Charge       = 0
  Multiplicity = 1
  Basis Set: CC-PVTZ
  Basis Set:

    Orbital Energies (a.u.)
    -----------------------

    Doubly Occupied:

       1A    -20.578880     2A    -20.541065     3A    -11.366065
       4A    -11.288308     5A    -11.238776     6A    -11.221129
       7A    -11.215744     8A     -1.462503     9A     -1.366736
      10A     -1.068203    11A     -1.034489    12A     -0.908327
      13A     -0.856483    14A     -0.771103    15A     -0.702377
      16A     -0.684657    17A     -0.662339    18A     -0.633906
      19A     -0.600168    20A     -0.564816    21A     -0.558082
      22A     -0.528539    23A     -0.523736    24A     -0.519307
      25A     -0.504269    26A     -0.495522    27A     -0.453267
      28A     -0.436419

  @DF-RHF Final Energy:  -345.02746775378301

   => Energetics <=

    Nuclear Repulsion Energy =            314.7853032871179835
    One-Electron Energy =               -1094.0551159988945074
    Two-Electron Energy =                 434.2423449579935095
    DFT Exchange-Correlation Energy =       0.0000000000000000
    Empirical Dispersion Energy =           0.0000000000000000
    PCM Polarization Energy =               0.0000000000000000
    EFP Energy =                            0.0000000000000000
    Total Energy =                       -345.0274677537829575
    Molecular point group: c1
  Basis Set: CC-PVTZ
  Basis Set:

  -Total Gradient:
     Atom            X                  Y                   Z
    ------   -----------------  -----------------  -----------------
       1       -0.000032352953    -0.000017198704     0.000159858655
       2        0.001856134115    -0.001233405523     0.006787212846
       3       -0.000522751336    -0.001075790541    -0.005784911731
       4       -0.003486736830     0.008038680645     0.001316065493
       5        0.000037328829    -0.000013642292     0.000010843759
       6       -0.000026717525    -0.000002280666     0.000004697039
       7       -0.000016430620     0.000003194847     0.000017729418
       8        0.000012792847     0.000005647357    -0.000008826685
       9        0.000026339394     0.000002490315    -0.000006863062
      10        0.000006482852     0.000014778688     0.000008174642
      11        0.002175616825    -0.005731378050    -0.002498678976
      12        0.000002520072     0.000003754808     0.000003897566
      13       -0.000017151373    -0.000006760774    -0.000018480917
      14       -0.000012273802     0.000007485935     0.000003540974
      15        0.000005356017    -0.000005925846    -0.000001485993
      16        0.000001208699     0.000001863048    -0.000008617383
      17       -0.000009365210     0.000008486754     0.000015844358

  **** Optimization is complete! (in 7 steps) ****
    Final optimized geometry and variables:
    Molecular point group: c1

    Geometry (in Angstrom), charge = 0, multiplicity = 1:

    O            0.594405521177     1.468650760432    -0.112279131061
    C            0.449338891555     0.334245938271     0.174646798071
    C            1.557977821137    -0.680283080169     0.271278554934
    O           -0.758314028631    -0.209083259025     0.386419928556
    C            2.952589977232    -0.082761151692     0.181235902216
    H            1.379423272838    -1.388746415075    -0.532848305523
    H            1.419961814376    -1.240028298757     1.189390563452
    H            3.087208552913     0.453070381549    -0.748449290610
    H            3.699313056657    -0.865387535926     0.238042675758
    H            3.128708151607     0.614452959367     0.990102459949
    C           -1.706538807304    -0.112490400666    -0.666388621273
    C           -2.999410547730    -0.734252476434    -0.194539618716
    H           -1.319599555111    -0.638716556563    -1.532995292135
    H           -1.844671079803     0.926225030374    -0.931452376710
    H           -2.851161465287    -1.771858020381     0.076469463872
    H           -3.739836135512    -0.686469421050    -0.984467301925
    H           -3.381826133423    -0.205142218076     0.668817448079

  Mulliken Charges: (a.u.)
   Center  Symbol    Alpha    Beta     Spin     Total
       1     O     4.18020  4.18020  0.00000 -0.36040
       2     C     2.80180  2.80180  0.00000  0.39641
       3     C     3.09665  3.09665  0.00000 -0.19330
       4     O     4.16975  4.16975  0.00000 -0.33951
       5     C     3.13922  3.13922  0.00000 -0.27844
       6     H     0.44652  0.44652  0.00000  0.10697
       7     H     0.43885  0.43885  0.00000  0.12230
       8     H     0.44712  0.44712  0.00000  0.10575
       9     H     0.45064  0.45064  0.00000  0.09873
      10     H     0.44871  0.44871  0.00000  0.10259
      11     C     2.97689  2.97689  0.00000  0.04621
      12     C     3.13482  3.13482  0.00000 -0.26964
      13     H     0.46668  0.46668  0.00000  0.06664
      14     H     0.44665  0.44665  0.00000  0.10670
      15     H     0.45146  0.45146  0.00000  0.09709
      16     H     0.45623  0.45623  0.00000  0.08753
      17     H     0.44781  0.44781  0.00000  0.10437

   Total alpha = 28.00000, Total beta = 28.00000, Total charge = -0.00000

*** Psi4 exiting successfully. Buy a developer a beer!
