                              Psi4 1.0.54 Driver

  ==> Input File <==

--------------------------------------------------------------------------
set {
	reference rhf
	basis cc-pvtz
}

set_num_threads( 4 )
memory 2 gb

molecule MOL {
0 1

H	 -0.630641	 3.654270	 2.828143
O	 0.049593	 3.070049	 2.548566
C	 -0.469639	 2.112160	 1.664675
C	 0.654859	 1.190830	 1.237152
H	 -1.257189	 1.536681	 2.146715
H	 -0.904475	 2.595385	 0.792183
C	 0.196029	 0.106276	 0.266738
H	 1.084829	 0.738326	 2.125176
H	 1.437197	 1.790851	 0.783458
C	 1.330220	 -0.826136	 -0.155230
H	 -0.602769	 -0.467823	 0.726137
H	 -0.230873	 0.570192	 -0.619895
C	 2.719700	 -0.407669	 0.328325
H	 1.339388	 -0.911200	 -1.239363
H	 1.119001	 -1.821953	 0.224128
C	 3.241564	 0.893452	 -0.276737
H	 3.418299	 -1.204729	 0.093035
H	 2.711776	 -0.323368	 1.411960
H	 3.254204	 0.841071	 -1.360784
H	 2.634460	 1.745075	 0.005842
H	 4.254264	 1.092401	 0.054971

	symmetry c1
}
set optking {
	frozen_dihedral = ("
		4 7 10 14
	")
}

ee,wfn = optimize('scf', return_wfn=True)
oeprop( wfn, 'DIPOLE', 'QUADRUPOLE', 'MULLIKEN_CHARGES')
f=open( 'psi4out.xyz', 'w' )
f.write( "21  " )
f.write( str(ee) + "\n" )
f.write( MOL.save_string_xyz() )
f.close()
--------------------------------------------------------------------------

    Molecular point group: c1
  Charge       = 0
  Multiplicity = 1
  Basis Set: CC-PVTZ
  Basis Set:
  @DF-RHF Final Energy:  -310.30502384848057
    Total Energy =                       -310.3050238484802890
    Molecular point group: c1
  Basis Set: CC-PVTZ
  Basis Set:
  Basis Set: CC-PVTZ
  Basis Set:
  @DF-RHF Final Energy:  -310.31798662181347
    Total Energy =                       -310.3179866218132474
  Basis Set: CC-PVTZ
  Basis Set:
  Basis Set: CC-PVTZ
  Basis Set:
  @DF-RHF Final Energy:  -310.32072607645500
    Total Energy =                       -310.3207260764549460
  Basis Set: CC-PVTZ
  Basis Set:
  Basis Set: CC-PVTZ
  Basis Set:
  @DF-RHF Final Energy:  -310.32139954620590
    Total Energy =                       -310.3213995462058961
  Basis Set: CC-PVTZ
  Basis Set:
  @DF-RHF Final Energy:  -310.32160738828054
    Total Energy =                       -310.3216073882801993
  Basis Set: CC-PVTZ
  Basis Set:
  @DF-RHF Final Energy:  -310.32179412306994
    Total Energy =                       -310.3217941230700490
  Basis Set: CC-PVTZ
  Basis Set:
  Basis Set: CC-PVTZ
  Basis Set:
  @DF-RHF Final Energy:  -310.32180841485575
    Total Energy =                       -310.3218084148556954
  Basis Set: CC-PVTZ
  Basis Set:
  Basis Set: CC-PVTZ
  Basis Set:
  @DF-RHF Final Energy:  -310.32181165470496
    Total Energy =                       -310.3218116547049590
  Basis Set: CC-PVTZ
  Basis Set:
  Charge       = 0
  Multiplicity = 1
  Basis Set: CC-PVTZ
  Basis Set:

    Orbital Energies (a.u.)
    -----------------------

    Doubly Occupied:

       1A    -20.545533     2A    -11.264989     3A    -11.214394
       4A    -11.212164     5A    -11.210780     6A    -11.208732
       7A    -11.203915     8A     -1.363354     9A     -1.082994
      10A     -1.030637    11A     -0.956185    12A     -0.874355
      13A     -0.820825    14A     -0.765103    15A     -0.692183
      16A     -0.662092    17A     -0.626283    18A     -0.616832
      19A     -0.572272    20A     -0.569176    21A     -0.542269
      22A     -0.527871    23A     -0.504325    24A     -0.495453
      25A     -0.478838    26A     -0.450218    27A     -0.447646
      28A     -0.445053    29A     -0.437452

  @DF-RHF Final Energy:  -310.32181213917960

   => Energetics <=

    Nuclear Repulsion Energy =            319.6871465504260073
    One-Electron Energy =               -1054.3740708903392260
    Two-Electron Energy =                 424.3651122007332788
    DFT Exchange-Correlation Energy =       0.0000000000000000
    Empirical Dispersion Energy =           0.0000000000000000
    PCM Polarization Energy =               0.0000000000000000
    EFP Energy =                            0.0000000000000000
    Total Energy =                       -310.3218121391799968
    Molecular point group: c1
  Basis Set: CC-PVTZ
  Basis Set:

  -Total Gradient:
     Atom            X                  Y                   Z
    ------   -----------------  -----------------  -----------------
       1       -0.000017995792     0.000011696915     0.000004887904
       2        0.000017030776    -0.000020538733     0.000002239775
       3        0.000004487929     0.000012239851     0.000004083551
       4        0.000794932340     0.002493466833    -0.002790677696
       5       -0.000010903124    -0.000003955444     0.000009494426
       6       -0.000011940379     0.000010653334    -0.000019170519
       7       -0.000423569151    -0.002772917406     0.004029386302
       8        0.000013422056    -0.000021544196     0.000004468430
       9       -0.000005140875     0.000007790219     0.000006302379
      10       -0.003485303799    -0.003562382918    -0.001218601697
      11       -0.000011637509    -0.000006751229     0.000007847563
      12       -0.000003210485     0.000006577521    -0.000007685511
      13        0.000008644711    -0.000016945201    -0.000000874505
      14        0.003130755957     0.003861505606    -0.000046702687
      15       -0.000003285725    -0.000018507107     0.000001117201
      16       -0.000025330933     0.000040411532     0.000017880602
      17        0.000005912399     0.000021385429    -0.000006118578
      18        0.000001709202     0.000008535946    -0.000026279862
      19       -0.000011690474    -0.000029861507     0.000021881882
      20        0.000011923439    -0.000029771332     0.000004160302
      21        0.000021189435     0.000008911893     0.000002360743

  **** Optimization is complete! (in 9 steps) ****
    Final optimized geometry and variables:
    Molecular point group: c1

    Geometry (in Angstrom), charge = 0, multiplicity = 1:

    H           -2.014734614900     2.613742267326     2.152095371439
    O           -1.282203855701     2.087133097909     1.890866847241
    C           -1.683018270667     1.143513501810     0.932849608049
    C           -0.473397925588     0.320856798018     0.533918195931
    H           -2.456668430360     0.494849949193     1.338131714885
    H           -2.097796765503     1.641498179224     0.058920167938
    C           -0.830802521134    -0.735464734305    -0.511256309056
    H           -0.073480603310    -0.141116877714     1.429950089545
    H            0.285495000291     0.997627532666     0.165181616108
    C            0.304407053055    -1.663941728037    -1.025509102539
    H           -1.624829103727    -1.357855993519    -0.111551766039
    H           -1.267891760808    -0.221203189629    -1.362102071931
    C            1.750463387933    -1.335028968563    -0.624395986296
    H            0.283598485018    -1.661576723101    -2.110341635968
    H            0.089413066353    -2.677677206426    -0.709640223081
    C            2.392437873826    -0.221291469183    -1.449878697216
    H            2.343153642608    -2.234557544108    -0.759085354137
    H            1.812050241694    -1.095742553513     0.430575445191
    H            2.437340993935    -0.500677882184    -2.497537732560
    H            1.842732258439     0.709333964119    -1.384794071429
    H            3.406086553266    -0.026804552027    -1.117747762298

  Mulliken Charges: (a.u.)
   Center  Symbol    Alpha    Beta     Spin     Total
       1     H     0.39784  0.39784  0.00000  0.20432
       2     O     4.19451  4.19451  0.00000 -0.38903
       3     C     2.96784  2.96784  0.00000  0.06433
       4     C     3.09264  3.09264  0.00000 -0.18529
       5     H     0.47250  0.47250  0.00000  0.05500
       6     H     0.47411  0.47411  0.00000  0.05177
       7     C     3.10796  3.10796  0.00000 -0.21592
       8     H     0.44925  0.44925  0.00000  0.10150
       9     H     0.44514  0.44514  0.00000  0.10971
      10     C     3.09779  3.09779  0.00000 -0.19559
      11     H     0.44997  0.44997  0.00000  0.10006
      12     H     0.45240  0.45240  0.00000  0.09520
      13     C     3.09985  3.09985  0.00000 -0.19969
      14     H     0.45308  0.45308  0.00000  0.09384
      15     H     0.44540  0.44540  0.00000  0.10921
      16     C     3.14752  3.14752  0.00000 -0.29504
      17     H     0.44446  0.44446  0.00000  0.11108
      18     H     0.44940  0.44940  0.00000  0.10120
      19     H     0.45499  0.45499  0.00000  0.09003
      20     H     0.45500  0.45500  0.00000  0.09001
      21     H     0.44835  0.44835  0.00000  0.10330

   Total alpha = 29.00000, Total beta = 29.00000, Total charge = -0.00000

*** Psi4 exiting successfully. Buy a developer a beer!
