                              Psi4 1.0.54 Driver

  ==> Input File <==

--------------------------------------------------------------------------
set {
	reference rhf
	basis cc-pvtz
}

set_num_threads( 4 )
memory 2 gb

molecule MOL {
0 1

H	 2.118140	 -3.379204	 1.545493
C	 2.290065	 -2.484968	 0.958219
C	 1.019487	 -1.649691	 0.845997
H	 3.086112	 -1.924430	 1.436909
H	 2.646452	 -2.795272	 -0.018365
C	 1.215950	 -0.382441	 0.027187
H	 0.666306	 -1.373616	 1.833322
H	 0.233492	 -2.249380	 0.393048
N	 0.000002	 0.398953	 -0.040851
H	 1.983328	 0.229206	 0.492147
H	 1.592479	 -0.647179	 -0.965397
C	 -1.215959	 -0.382435	 0.027143
H	 -0.000012	 1.086078	 0.683841
C	 -2.451944	 0.502410	 -0.038737
H	 -1.221867	 -1.069392	 -0.813828
H	 -1.259993	 -0.999709	 0.929424
C	 -3.752217	 -0.292550	 0.005776
H	 -2.407325	 1.093801	 -0.946480
H	 -2.431979	 1.206234	 0.790023
H	 -3.817783	 -0.982946	 -0.828547
H	 -4.612613	 0.364348	 -0.042306
H	 -3.830160	 -0.871666	 0.919868

	symmetry c1
}
set optking {
	frozen_dihedral = ("
		10 6 9 12
	")
}

ee,wfn = optimize('scf', return_wfn=True)
oeprop( wfn, 'DIPOLE', 'QUADRUPOLE', 'MULLIKEN_CHARGES')
f=open( 'psi4out.xyz', 'w' )
f.write( "22  " )
f.write( str(ee) + "\n" )
f.write( MOL.save_string_xyz() )
f.close()
--------------------------------------------------------------------------

    Molecular point group: c1
  Charge       = 0
  Multiplicity = 1
  Basis Set: CC-PVTZ
  Basis Set:
  @DF-RHF Final Energy:  -290.47674653121891
    Total Energy =                       -290.4767465312190780
    Molecular point group: c1
  Basis Set: CC-PVTZ
  Basis Set:
  Basis Set: CC-PVTZ
  Basis Set:
  @DF-RHF Final Energy:  -290.46849929459302
    Total Energy =                       -290.4684992945932436
  Basis Set: CC-PVTZ
  Basis Set:
  Basis Set: CC-PVTZ
  Basis Set:
  @DF-RHF Final Energy:  -290.48109027125565
    Total Energy =                       -290.4810902712553116
  Basis Set: CC-PVTZ
  Basis Set:
  Basis Set: CC-PVTZ
  Basis Set:
  @DF-RHF Final Energy:  -290.48278958530574
    Total Energy =                       -290.4827895853054542
  Basis Set: CC-PVTZ
  Basis Set:
  Basis Set: CC-PVTZ
  Basis Set:
  @DF-RHF Final Energy:  -290.48298407788337
    Total Energy =                       -290.4829840778832022
  Basis Set: CC-PVTZ
  Basis Set:
  Basis Set: CC-PVTZ
  Basis Set:
  @DF-RHF Final Energy:  -290.48299794277619
    Total Energy =                       -290.4829979427759099
  Basis Set: CC-PVTZ
  Basis Set:
  Basis Set: CC-PVTZ
  Basis Set:
  @DF-RHF Final Energy:  -290.48300016481176
    Total Energy =                       -290.4830001648121538
  Basis Set: CC-PVTZ
  Basis Set:
  Charge       = 0
  Multiplicity = 1
  Basis Set: CC-PVTZ
  Basis Set:

    Orbital Energies (a.u.)
    -----------------------

    Doubly Occupied:

       1A    -15.526283     2A    -11.237217     3A    -11.235219
       4A    -11.211875     5A    -11.210322     6A    -11.208510
       7A    -11.206722     8A     -1.201745     9A     -1.057685
      10A     -1.028331    11A     -0.930099    12A     -0.874156
      13A     -0.813157    14A     -0.785338    15A     -0.670542
      16A     -0.628995    17A     -0.618793    18A     -0.606815
      19A     -0.576269    20A     -0.557440    21A     -0.540233
      22A     -0.528302    23A     -0.502203    24A     -0.493721
      25A     -0.483417    26A     -0.471740    27A     -0.463030
      28A     -0.461313    29A     -0.354291

  @DF-RHF Final Energy:  -290.48299967174142

   => Energetics <=

    Nuclear Repulsion Energy =            318.3076059459349949
    One-Electron Energy =               -1022.6136865239859617
    Two-Electron Energy =                 413.8230809063097695
    DFT Exchange-Correlation Energy =       0.0000000000000000
    Empirical Dispersion Energy =           0.0000000000000000
    PCM Polarization Energy =               0.0000000000000000
    EFP Energy =                            0.0000000000000000
    Total Energy =                       -290.4829996717412541
    Molecular point group: c1
  Basis Set: CC-PVTZ
  Basis Set:

  -Total Gradient:
     Atom            X                  Y                   Z
    ------   -----------------  -----------------  -----------------
       1        0.000008299067     0.000001439404    -0.000010732895
       2        0.000009691377    -0.000030337232    -0.000014852377
       3       -0.000064980446    -0.000022943800     0.000041779734
       4        0.000001439169    -0.000005826144     0.000000196666
       5        0.000009850600     0.000001235281     0.000020380323
       6        0.001637219936     0.001719918797    -0.004759134093
       7       -0.000015756050     0.000003456300    -0.000007954797
       8       -0.000009120602    -0.000015620484     0.000012166939
       9       -0.000707931045    -0.002380493323    -0.005862614169
      10       -0.001331110045    -0.000705009180     0.005766313071
      11       -0.000050091944     0.000068937913    -0.000014676221
      12        0.000537341421     0.001544742721     0.004745186573
      13       -0.000046347406    -0.000162986372     0.000070946943
      14        0.000026193672     0.000020010157    -0.000007050760
      15       -0.000011994277    -0.000002681791     0.000002483869
      16       -0.000026711272    -0.000002211518    -0.000003872381
      17        0.000017941925    -0.000035515249     0.000025149706
      18        0.000012361817    -0.000003753130     0.000006297301
      19       -0.000002932150    -0.000013037904    -0.000006145833
      20        0.000003337996     0.000019121569     0.000012768352
      21        0.000010475224     0.000005122527    -0.000001437839
      22       -0.000007176966    -0.000003568541    -0.000015198111

  **** Optimization is complete! (in 8 steps) ****
    Final optimized geometry and variables:
    Molecular point group: c1

    Geometry (in Angstrom), charge = 0, multiplicity = 1:

    H            2.875554155407    -2.547988501969     1.612666562320
    C            2.897973217878    -1.773601288260     0.855008068495
    C            1.552956931813    -1.060499098530     0.755406569555
    H            3.692890443367    -1.081797479704     1.113596359176
    H            3.163504685626    -2.241894357638    -0.086971619983
    C            1.571080643486     0.027068610963    -0.322417207280
    H            1.306531467751    -0.616228285438     1.715923884956
    H            0.779809799415    -1.790683226046     0.544138566155
    N            0.367862842154     0.834551970027    -0.481428577338
    H            2.374874913841     0.705508441318    -0.058406321899
    H            1.824888200811    -0.429381008504    -1.274893274054
    C           -0.912818122605     0.226634086895    -0.182926685006
    H            0.458560702244     1.668918687349     0.055911664545
    C           -2.048974065844     1.191363549655    -0.491990061734
    H           -1.026068587103    -0.660234388889    -0.799949084612
    H           -0.999400710081    -0.103299423605     0.852473800405
    C           -3.423964266191     0.597920172012    -0.205841675856
    H           -1.979064169423     1.489220428175    -1.531993485999
    H           -1.917927254177     2.096048116064     0.097311306309
    H           -3.598970988135    -0.290934008857    -0.802866003968
    H           -4.210187756920     1.307701015406    -0.434535015055
    H           -3.525152806742     0.319145081164     0.837804840777

  Mulliken Charges: (a.u.)
   Center  Symbol    Alpha    Beta     Spin     Total
       1     H     0.44722  0.44722  0.00000  0.10556
       2     C     3.15264  3.15264  0.00000 -0.30529
       3     C     3.09283  3.09283  0.00000 -0.18566
       4     H     0.45517  0.45517  0.00000  0.08966
       5     H     0.45479  0.45479  0.00000  0.09042
       6     C     3.03608  3.03608  0.00000 -0.07217
       7     H     0.45552  0.45552  0.00000  0.08896
       8     H     0.45075  0.45075  0.00000  0.09850
       9     N     3.64172  3.64172  0.00000 -0.28344
      10     H     0.45782  0.45782  0.00000  0.08437
      11     H     0.45385  0.45385  0.00000  0.09229
      12     C     3.02632  3.02632  0.00000 -0.05264
      13     H     0.44494  0.44494  0.00000  0.11012
      14     C     3.08114  3.08114  0.00000 -0.16227
      15     H     0.45920  0.45920  0.00000  0.08159
      16     H     0.46852  0.46852  0.00000  0.06296
      17     C     3.15373  3.15373  0.00000 -0.30747
      18     H     0.44864  0.44864  0.00000  0.10272
      19     H     0.45991  0.45991  0.00000  0.08018
      20     H     0.45493  0.45493  0.00000  0.09013
      21     H     0.44766  0.44766  0.00000  0.10467
      22     H     0.45660  0.45660  0.00000  0.08680

   Total alpha = 29.00000, Total beta = 29.00000, Total charge = -0.00000

*** Psi4 exiting successfully. Buy a developer a beer!
