                              Psi4 1.0.54 Driver

  ==> Input File <==

--------------------------------------------------------------------------
set {
	reference rhf
	basis cc-pvtz
}

set_num_threads( 4 )
memory 2 gb

molecule MOL {
0 1

H	 3.641001	 -1.044390	 -0.415999
O	 2.775602	 -1.221268	 -0.079109
C	 2.026278	 -0.136376	 -0.255054
C	 0.626018	 -0.337582	 0.258241
O	 2.450995	 0.845403	 -0.758606
C	 -0.267326	 0.883135	 0.076490
H	 0.231054	 -1.211115	 -0.246537
H	 0.708031	 -0.611495	 1.305466
C	 -1.726822	 0.642622	 0.463839
H	 -0.210803	 1.217591	 -0.953497
H	 0.129920	 1.693110	 0.675679
C	 -2.480891	 -0.340606	 -0.429852
H	 -2.243098	 1.597649	 0.438609
H	 -1.776542	 0.301208	 1.495542
C	 -3.955933	 -0.460128	 -0.060472
H	 -2.393755	 -0.020485	 -1.464726
H	 -2.024244	 -1.323637	 -0.374360
H	 -4.467673	 -1.160944	 -0.709827
H	 -4.458917	 0.497287	 -0.144505
H	 -4.076458	 -0.806900	 0.960497

	symmetry c1
}
set optking {
	frozen_dihedral = ("
		7 4 6 10
	")
}

ee,wfn = optimize('scf', return_wfn=True)
oeprop( wfn, 'DIPOLE', 'QUADRUPOLE', 'MULLIKEN_CHARGES')
f=open( 'psi4out.xyz', 'w' )
f.write( "20  " )
f.write( str(ee) + "\n" )
f.write( MOL.save_string_xyz() )
f.close()
--------------------------------------------------------------------------

    Molecular point group: c1
  Charge       = 0
  Multiplicity = 1
  Basis Set: CC-PVTZ
  Basis Set:
  @DF-RHF Final Energy:  -384.09471411461953
    Total Energy =                       -384.0947141146195918
    Molecular point group: c1
  Basis Set: CC-PVTZ
  Basis Set:
  Basis Set: CC-PVTZ
  Basis Set:
  @DF-RHF Final Energy:  -384.09464678685526
    Total Energy =                       -384.0946467868556056
  Basis Set: CC-PVTZ
  Basis Set:
  Basis Set: CC-PVTZ
  Basis Set:
  @DF-RHF Final Energy:  -384.09476173659186
    Total Energy =                       -384.0947617365919768
  Basis Set: CC-PVTZ
  Basis Set:
  Basis Set: CC-PVTZ
  Basis Set:
  @DF-RHF Final Energy:  -384.09464298666916
    Total Energy =                       -384.0946429866692142
  Basis Set: CC-PVTZ
  Basis Set:
  Basis Set: CC-PVTZ
  Basis Set:
  @DF-RHF Final Energy:  -384.09478367016231
    Total Energy =                       -384.0947836701622009
  Basis Set: CC-PVTZ
  Basis Set:
  Basis Set: CC-PVTZ
  Basis Set:
  @DF-RHF Final Energy:  -384.09478471670735
    Total Energy =                       -384.0947847167071814
  Basis Set: CC-PVTZ
  Basis Set:
  Charge       = 0
  Multiplicity = 1
  Basis Set: CC-PVTZ
  Basis Set:

    Orbital Energies (a.u.)
    -----------------------

    Doubly Occupied:

       1A    -20.603897     2A    -20.540526     3A    -11.373539
       4A    -11.238509     5A    -11.220985     6A    -11.218836
       7A    -11.218163     8A    -11.210489     9A     -1.477489
      10A     -1.369004    11A     -1.097345    12A     -1.042318
      13A     -0.962509    14A     -0.870532    15A     -0.817307
      16A     -0.778794    17A     -0.703713    18A     -0.693448
      19A     -0.665886    20A     -0.636908    21A     -0.605711
      22A     -0.596547    23A     -0.577028    24A     -0.557705
      25A     -0.539374    26A     -0.513528    27A     -0.495895
      28A     -0.484490    29A     -0.472451    30A     -0.468281
      31A     -0.457721    32A     -0.446584

  @DF-RHF Final Energy:  -384.09478483746659

   => Energetics <=

    Nuclear Repulsion Energy =            376.6489361570212395
    One-Electron Energy =               -1269.5764239124525830
    Two-Electron Energy =                 508.8327029179645251
    DFT Exchange-Correlation Energy =       0.0000000000000000
    Empirical Dispersion Energy =           0.0000000000000000
    PCM Polarization Energy =               0.0000000000000000
    EFP Energy =                            0.0000000000000000
    Total Energy =                       -384.0947848374668183
    Molecular point group: c1
  Basis Set: CC-PVTZ
  Basis Set:

  -Total Gradient:
     Atom            X                  Y                   Z
    ------   -----------------  -----------------  -----------------
       1        0.000004500309    -0.000004827204    -0.000001541395
       2        0.000010198431    -0.000001510572     0.000004466266
       3       -0.000013100095     0.000009543375    -0.000005359087
       4        0.001197227570     0.000695806480    -0.001440002060
       5       -0.000005763907    -0.000011770940     0.000001161282
       6       -0.001550999411    -0.001195526726    -0.000091273970
       7       -0.000732946955    -0.000378987239     0.001204814480
       8        0.000001517003    -0.000005959206    -0.000006359460
       9        0.000000404699    -0.000007300780     0.000005846920
      10        0.001086095738     0.000883073762     0.000333001705
      11        0.000003189164     0.000006729966     0.000006161948
      12       -0.000001999786     0.000012084588    -0.000017878735
      13       -0.000001994226     0.000003674905    -0.000002762985
      14        0.000006984621     0.000003606431     0.000011818468
      15       -0.000000646293    -0.000003726301     0.000005981246
      16       -0.000006505373    -0.000008820810    -0.000000003461
      17       -0.000006451425     0.000006254375    -0.000000367991
      18        0.000002079896    -0.000003926445    -0.000000504449
      19        0.000006061563    -0.000004898232    -0.000000697030
      20        0.000002148483     0.000006480573    -0.000006501691

  **** Optimization is complete! (in 7 steps) ****
    Final optimized geometry and variables:
    Molecular point group: c1

    Geometry (in Angstrom), charge = 0, multiplicity = 1:

    H            3.694387325790    -0.955322715345    -0.295917102609
    O            2.828520422548    -1.149534710695     0.030086121491
    C            2.060671408369    -0.078772735601    -0.152401162642
    C            0.659377610486    -0.307291186748     0.344570155113
    O            2.472126490599     0.912557067766    -0.648338077428
    C           -0.256731068258     0.897072681084     0.164618027169
    H            0.280770991467    -1.189648147705    -0.157201129511
    H            0.736567979832    -0.582214951818     1.392045572763
    C           -1.706793921318     0.639442770245     0.575269223189
    H           -0.211297189703     1.233075527804    -0.864843389643
    H            0.137750855447     1.715736164916     0.755282712203
    C           -2.478948688283    -0.312009935067    -0.337506532456
    H           -2.225516338349     1.593210422295     0.594595283313
    H           -1.734490775129     0.262094294991     1.595306170301
    C           -3.939821557577    -0.466040770452     0.073500440053
    H           -2.428945690342     0.056165440789    -1.358585467400
    H           -2.011060412687    -1.291206909877    -0.342826206428
    H           -4.464712561579    -1.143638518621    -0.589843296305
    H           -4.455809112076     0.487817369125     0.048452472104
    H           -4.023362503279    -0.859173619443     1.081282883099

  Mulliken Charges: (a.u.)
   Center  Symbol    Alpha    Beta     Spin     Total
       1     H     0.38242  0.38242  0.00000  0.23515
       2     O     4.16028  4.16028  0.00000 -0.32057
       3     C     2.80310  2.80310  0.00000  0.39381
       4     C     3.11075  3.11075  0.00000 -0.22150
       5     O     4.19141  4.19141  0.00000 -0.38283
       6     C     3.09333  3.09333  0.00000 -0.18665
       7     H     0.43791  0.43791  0.00000  0.12418
       8     H     0.43765  0.43765  0.00000  0.12469
       9     C     3.09910  3.09910  0.00000 -0.19820
      10     H     0.44363  0.44363  0.00000  0.11273
      11     H     0.44157  0.44157  0.00000  0.11686
      12     C     3.08609  3.08609  0.00000 -0.17218
      13     H     0.44526  0.44526  0.00000  0.10948
      14     H     0.45463  0.45463  0.00000  0.09074
      15     C     3.14969  3.14969  0.00000 -0.29937
      16     H     0.45208  0.45208  0.00000  0.09584
      17     H     0.45495  0.45495  0.00000  0.09009
      18     H     0.44764  0.44764  0.00000  0.10473
      19     H     0.45364  0.45364  0.00000  0.09272
      20     H     0.45486  0.45486  0.00000  0.09028

   Total alpha = 32.00000, Total beta = 32.00000, Total charge =  0.00000

*** Psi4 exiting successfully. Buy a developer a beer!
