  ==> Input File <==

--------------------------------------------------------------------------
set {
	reference rhf
	basis 6-31G*
}

set_num_threads( 1 )
memory 2 gb

molecule MOL {
0 1

H	 -2.798360	 -0.862255	 -0.071053
N	 -1.863561	 -0.715187	 0.256814
C	 -1.344686	 0.554728	 -0.219830
H	 -1.300452	 -1.461917	 -0.101532
C	 0.107469	 0.402012	 -0.621150
H	 -1.894904	 0.962891	 -1.068750
H	 -1.405826	 1.279143	 0.586561
O	 0.171566	 -0.472295	 -1.711363
H	 0.526970	 1.370452	 -0.892777
H	 0.678179	 0.004593	 0.215261
C	 1.464171	 -0.771094	 -2.132626
H	 1.387199	 -1.447391	 -2.973098
H	 1.996372	 0.124036	 -2.449624
H	 2.038140	 -1.252580	 -1.343613

	symmetry c1
}
set optking {
	frozen_dihedral = ("
		8 5 3 6,
		5 8 11 13,
		11 8 5 3
	")
}

ee = energy('scf')
oeprop('DIPOLE', 'QUADRUPOLE', 'MULLIKEN_CHARGES')
f=open( 'psi4out.xyz', 'w' )
f.write( "14  " )
f.write( str(ee) + "\n" )
f.write( MOL.save_string_xyz() )
f.close()
--------------------------------------------------------------------------

    Molecular point group: c1

    Geometry (in Angstrom), charge = 0, multiplicity = 1:

       Center              X                  Y                   Z               Mass
    ------------   -----------------  -----------------  -----------------  -----------------
           H         -2.513197729753    -0.640664459363     0.829754478087     1.007825032070
           N         -1.578398729753    -0.493596459363     1.157621478087    14.003074004780
           C         -1.059523729753     0.776318540637     0.680977478087    12.000000000000
           H         -1.015289729753    -1.240326459363     0.799275478087     1.007825032070
           C          0.392631270247     0.623602540637     0.279657478087    12.000000000000
           H         -1.609741729753     1.184481540637    -0.167942521913     1.007825032070
           H         -1.120663729753     1.500733540637     1.487368478087     1.007825032070
           O          0.456728270247    -0.250704459363    -0.810555521913    15.994914619560
           H          0.812132270247     1.592042540637     0.008030478087     1.007825032070
           H          0.963341270247     0.226183540637     1.116068478087     1.007825032070
           C          1.749333270247    -0.549503459363    -1.231818521913    12.000000000000
           H          1.672361270247    -1.225800459363    -2.072290521913     1.007825032070
           H          2.281534270247     0.345626540637    -1.548816521913     1.007825032070
           H          2.323302270247    -1.030989459363    -0.442805521913     1.007825032070

  Charge       = 0
  Multiplicity = 1
  Basis Set: 6-31G*
  Basis Set:

    Orbital Energies (a.u.)
    -----------------------

    Doubly Occupied:

       1A    -20.562279     2A    -15.525306     3A    -11.271220
       4A    -11.270218     5A    -11.240000     6A     -1.386707
       7A     -1.172998     8A     -1.000793     9A     -0.910245
      10A     -0.820138    11A     -0.690205    12A     -0.670122
      13A     -0.651903    14A     -0.620751    15A     -0.587801
      16A     -0.549943    17A     -0.535428    18A     -0.501730
      19A     -0.471890    20A     -0.423017    21A     -0.376971

  @DF-RHF Final Energy:  -248.12121657317320

   => Energetics <=

    Nuclear Repulsion Energy =            195.1562664047678197
    One-Electron Energy =                -724.0755525923568712
    Two-Electron Energy =                 280.7980696144149420
    DFT Exchange-Correlation Energy =       0.0000000000000000
    Empirical Dispersion Energy =           0.0000000000000000
    PCM Polarization Energy =               0.0000000000000000
    EFP Energy =                            0.0000000000000000
    Total Energy =                       -248.1212165731740811

  Mulliken Charges: (a.u.)
   Center  Symbol    Alpha    Beta     Spin     Total
       1     H     0.33173  0.33173  0.00000  0.33655
       2     N     3.93114  3.93114  0.00000 -0.86227
       3     C     3.05456  3.05456  0.00000 -0.10912
       4     H     0.32354  0.32354  0.00000  0.35292
       5     C     3.00934  3.00934  0.00000 -0.01867
       6     H     0.42326  0.42326  0.00000  0.15349
       7     H     0.42038  0.42038  0.00000  0.15925
       8     O     4.30704  4.30704  0.00000 -0.61408
       9     H     0.42636  0.42636  0.00000  0.14729
      10     H     0.42405  0.42405  0.00000  0.15189
      11     C     3.08012  3.08012  0.00000 -0.16024
      12     H     0.41134  0.41134  0.00000  0.17731
      13     H     0.42868  0.42868  0.00000  0.14264
      14     H     0.42847  0.42847  0.00000  0.14305

   Total alpha = 21.00000, Total beta = 21.00000, Total charge = -0.00000
