  ==> Input File <==

--------------------------------------------------------------------------
set {
	reference rhf
	basis 6-31G*
}

set_num_threads( 1 )
memory 2 gb

molecule MOL {
0 1

H	 4.447243	 0.207376	 1.206820
C	 3.661373	 -0.379294	 0.742087
C	 2.350429	 0.403781	 0.685674
H	 3.998902	 -0.651895	 -0.253899
H	 3.550657	 -1.295366	 1.315499
C	 1.217350	 -0.386724	 0.039429
H	 2.488544	 1.326491	 0.130769
H	 2.058311	 0.689742	 1.694775
N	 0.000003	 0.397874	 -0.023260
H	 1.498102	 -0.649890	 -0.976880
H	 1.077254	 -1.331170	 0.575873
C	 -1.217365	 -0.386708	 0.039277
H	 -0.000031	 1.072115	 0.718656
C	 -2.452633	 0.504241	 -0.042481
H	 -1.215291	 -1.074557	 -0.802042
H	 -1.269739	 -1.003477	 0.942735
C	 -3.758029	 -0.289423	 -0.010781
H	 -2.394220	 1.093569	 -0.952170
H	 -2.440793	 1.210787	 0.785871
H	 -3.816659	 -0.981993	 -0.845726
H	 -4.617837	 0.370165	 -0.069296
H	 -3.847478	 -0.867502	 0.904682

	symmetry c1
}
set optking {
	frozen_dihedral = ("
		15 12 14 18
	")
}

ee = energy('scf')
oeprop('DIPOLE', 'QUADRUPOLE', 'MULLIKEN_CHARGES')
f=open( 'psi4out.xyz', 'w' )
f.write( "22  " )
f.write( str(ee) + "\n" )
f.write( MOL.save_string_xyz() )
f.close()
--------------------------------------------------------------------------

    Molecular point group: c1

    Geometry (in Angstrom), charge = 0, multiplicity = 1:

       Center              X                  Y                   Z               Mass
    ------------   -----------------  -----------------  -----------------  -----------------
           H          4.475657359012     0.234456821604     0.993978232161     1.007825032070
           C          3.689787359012    -0.352213178396     0.529245232161    12.000000000000
           C          2.378843359012     0.430861821604     0.472832232161    12.000000000000
           H          4.027316359012    -0.624814178396    -0.466740767839     1.007825032070
           H          3.579071359012    -1.268285178396     1.102657232161     1.007825032070
           C          1.245764359012    -0.359643178396    -0.173412767839    12.000000000000
           H          2.516958359012     1.353571821604    -0.082072767839     1.007825032070
           H          2.086725359012     0.716822821604     1.481933232161     1.007825032070
           N          0.028417359012     0.424954821604    -0.236101767839    14.003074004780
           H          1.526516359012    -0.622809178396    -1.189721767839     1.007825032070
           H          1.105668359012    -1.304089178396     0.363031232161     1.007825032070
           C         -1.188950640988    -0.359627178396    -0.173564767839    12.000000000000
           H          0.028383359012     1.099195821604     0.505814232161     1.007825032070
           C         -2.424218640988     0.531321821604    -0.255322767839    12.000000000000
           H         -1.186876640988    -1.047476178396    -1.014883767839     1.007825032070
           H         -1.241324640988    -0.976396178396     0.729893232161     1.007825032070
           C         -3.729614640988    -0.262342178396    -0.223622767839    12.000000000000
           H         -2.365805640988     1.120649821604    -1.165011767839     1.007825032070
           H         -2.412378640988     1.237867821604     0.573029232161     1.007825032070
           H         -3.788244640988    -0.954912178396    -1.058567767839     1.007825032070
           H         -4.589422640988     0.397245821604    -0.282137767839     1.007825032070
           H         -3.819063640988    -0.840421178396     0.691840232161     1.007825032070

  Charge       = 0
  Multiplicity = 1
  Basis Set: 6-31G*
  Basis Set:

    Orbital Energies (a.u.)
    -----------------------

    Doubly Occupied:

       1A    -15.531792     2A    -11.237637     3A    -11.236975
       4A    -11.218001     5A    -11.212953     6A    -11.212036
       7A    -11.209349     8A     -1.205241     9A     -1.060347
      10A     -1.026444    11A     -0.928566    12A     -0.867721
      13A     -0.814290    14A     -0.795502    15A     -0.661313
      16A     -0.632844    17A     -0.614981    18A     -0.613551
      19A     -0.573430    20A     -0.561817    21A     -0.537898
      22A     -0.525131    23A     -0.515084    24A     -0.486374
      25A     -0.482542    26A     -0.475520    27A     -0.468337
      28A     -0.450058    29A     -0.357276

  @DF-RHF Final Energy:  -290.38040869460025

   => Energetics <=

    Nuclear Repulsion Energy =            313.7383943758146074
    One-Electron Energy =               -1013.2117403702923184
    Two-Electron Energy =                 409.0929372998787130
    DFT Exchange-Correlation Energy =       0.0000000000000000
    Empirical Dispersion Energy =           0.0000000000000000
    PCM Polarization Energy =               0.0000000000000000
    EFP Energy =                            0.0000000000000000
    Total Energy =                       -290.3804086945990548

  Mulliken Charges: (a.u.)
   Center  Symbol    Alpha    Beta     Spin     Total
       1     H     0.41758  0.41758  0.00000  0.16483
       2     C     3.24243  3.24243  0.00000 -0.48486
       3     C     3.16697  3.16697  0.00000 -0.33394
       4     H     0.41930  0.41930  0.00000  0.16140
       5     H     0.42062  0.42062  0.00000  0.15877
       6     C     3.03823  3.03823  0.00000 -0.07645
       7     H     0.41398  0.41398  0.00000  0.17204
       8     H     0.42558  0.42558  0.00000  0.14884
       9     N     3.86009  3.86009  0.00000 -0.72019
      10     H     0.42132  0.42132  0.00000  0.15736
      11     H     0.43417  0.43417  0.00000  0.13166
      12     C     3.04925  3.04925  0.00000 -0.09850
      13     H     0.33406  0.33406  0.00000  0.33188
      14     C     3.15573  3.15573  0.00000 -0.31145
      15     H     0.42154  0.42154  0.00000  0.15693
      16     H     0.43588  0.43588  0.00000  0.12824
      17     C     3.24317  3.24317  0.00000 -0.48635
      18     H     0.41291  0.41291  0.00000  0.17419
      19     H     0.42681  0.42681  0.00000  0.14638
      20     H     0.42067  0.42067  0.00000  0.15865
      21     H     0.41783  0.41783  0.00000  0.16433
      22     H     0.42188  0.42188  0.00000  0.15625

   Total alpha = 29.00000, Total beta = 29.00000, Total charge =  0.00000
