                              Psi4 1.0.54 Driver

  ==> Input File <==

--------------------------------------------------------------------------
set {
	reference rhf
	basis cc-pvtz
}

set_num_threads( 4 )
memory 2 gb

molecule MOL {
0 1

O	 0.395927	 1.296676	 -0.000076
C	 0.503051	 0.114301	 -0.000074
C	 -0.701422	 -0.805636	 -0.000109
C	 1.858118	 -0.556123	 0.000212
C	 -1.143684	 -1.247989	 1.385823
H	 -1.506598	 -0.291255	 -0.518316
H	 -0.458583	 -1.663467	 -0.621876
H	 -1.408710	 -0.396756	 1.998515
H	 -2.005465	 -1.900819	 1.315095
H	 -0.351416	 -1.781139	 1.894049
H	 1.961106	 -1.191101	 -0.872843
H	 2.636688	 0.191085	 -0.000109
H	 1.961070	 -1.190284	 0.873873

	symmetry c1
}
set optking {
	frozen_dihedral = ("
		6 3 2 1
	")
}

ee,wfn = optimize('scf', return_wfn=True)
oeprop( wfn, 'DIPOLE', 'QUADRUPOLE', 'MULLIKEN_CHARGES')
f=open( 'psi4out.xyz', 'w' )
f.write( "13  " )
f.write( str(ee) + "\n" )
f.write( MOL.save_string_xyz() )
f.close()
--------------------------------------------------------------------------

    Molecular point group: c1
  Charge       = 0
  Multiplicity = 1
  Basis Set: CC-PVTZ
  Basis Set:
  @DF-RHF Final Energy:  -231.08051077379127
    Total Energy =                       -231.0805107737912749
    Molecular point group: c1
  Basis Set: CC-PVTZ
  Basis Set:
  Basis Set: CC-PVTZ
  Basis Set:
  @DF-RHF Final Energy:  -231.08059667180967
    Total Energy =                       -231.0805966718094453
  Basis Set: CC-PVTZ
  Basis Set:
  Basis Set: CC-PVTZ
  Basis Set:
  @DF-RHF Final Energy:  -231.08129525565900
    Total Energy =                       -231.0812952556590290
  Basis Set: CC-PVTZ
  Basis Set:
  Basis Set: CC-PVTZ
  Basis Set:
  @DF-RHF Final Energy:  -231.08133075144374
    Total Energy =                       -231.0813307514438009
  Basis Set: CC-PVTZ
  Basis Set:
  Basis Set: CC-PVTZ
  Basis Set:
  @DF-RHF Final Energy:  -231.08133276367474
    Total Energy =                       -231.0813327636747090
  Basis Set: CC-PVTZ
  Basis Set:
  Basis Set: CC-PVTZ
  Basis Set:
  @DF-RHF Final Energy:  -231.08141609249819
    Total Energy =                       -231.0814160924981593
  Basis Set: CC-PVTZ
  Basis Set:
  Basis Set: CC-PVTZ
  Basis Set:
  @DF-RHF Final Energy:  -231.08142427498129
    Total Energy =                       -231.0814242749813161
  Basis Set: CC-PVTZ
  Basis Set:
  Charge       = 0
  Multiplicity = 1
  Basis Set: CC-PVTZ
  Basis Set:

    Orbital Energies (a.u.)
    -----------------------

    Doubly Occupied:

       1A    -20.538214     2A    -11.320485     3A    -11.231820
       4A    -11.227917     5A    -11.227082     6A     -1.398289
       7A     -1.067248     8A     -0.998259     9A     -0.884643
      10A     -0.735175    11A     -0.656881    12A     -0.649778
      13A     -0.610516    14A     -0.595089    15A     -0.565726
      16A     -0.541208    17A     -0.529701    18A     -0.503913
      19A     -0.485075    20A     -0.402099

  @DF-RHF Final Energy:  -231.08142615107315

   => Energetics <=

    Nuclear Repulsion Energy =            177.3475465596552283
    One-Electron Energy =                -664.5197107104199858
    Two-Electron Energy =                 256.0907379996917825
    DFT Exchange-Correlation Energy =       0.0000000000000000
    Empirical Dispersion Energy =           0.0000000000000000
    PCM Polarization Energy =               0.0000000000000000
    EFP Energy =                            0.0000000000000000
    Total Energy =                       -231.0814261510729466
    Molecular point group: c1
  Basis Set: CC-PVTZ
  Basis Set:

  -Total Gradient:
     Atom            X                  Y                   Z
    ------   -----------------  -----------------  -----------------
       1        0.000003982757     0.000017871107    -0.000197747583
       2       -0.000011808669     0.000050250823     0.000306410435
       3        0.000113656772    -0.000132524633    -0.000286969390
       4       -0.000056014077     0.000061691583     0.000015630947
       5       -0.000024713498    -0.000006796726     0.000026590135
       6       -0.000058010491     0.000080969511     0.000178631457
       7       -0.000007640288    -0.000020005567    -0.000017821085
       8        0.000001557997     0.000011191870     0.000003887089
       9        0.000000976200    -0.000002531883    -0.000001228179
      10       -0.000006649017     0.000005289803    -0.000011972235
      11        0.000003794103    -0.000050718506    -0.000089575573
      12        0.000046946929     0.000045493302     0.000008488328
      13       -0.000006078721    -0.000060180685     0.000065675654

  **** Optimization is complete! (in 8 steps) ****
    Final optimized geometry and variables:
    Molecular point group: c1

    Geometry (in Angstrom), charge = 0, multiplicity = 1:

    O            0.183445144718     1.486404006649    -0.407102639039
    C            0.315657267630     0.308851023064    -0.325719269989
    C           -0.886600065805    -0.611534421955    -0.249080987281
    C            1.682402008502    -0.333089032881    -0.283819634281
    C           -1.308016506148    -0.847750933881     1.205058009921
    H           -1.694679425928    -0.139370005215    -0.790918636736
    H           -0.660367109755    -1.559399400842    -0.725090479231
    H           -1.561304363491     0.089231256481     1.684266395554
    H           -2.175681879950    -1.493909117788     1.244565765112
    H           -0.519141027766    -1.319301005075     1.779904550125
    H            1.848226962971    -0.872137210631    -1.211365716739
    H            2.443684269680     0.423024952732    -0.167939767365
    H            1.748229052587    -1.054391148901     0.522612873007

  Mulliken Charges: (a.u.)
   Center  Symbol    Alpha    Beta     Spin     Total
       1     O     4.17577  4.17577  0.00000 -0.35154
       2     C     2.85311  2.85311  0.00000  0.29377
       3     C     3.09768  3.09768  0.00000 -0.19536
       4     C     3.15441  3.15441  0.00000 -0.30882
       5     C     3.14992  3.14992  0.00000 -0.29984
       6     H     0.43892  0.43892  0.00000  0.12217
       7     H     0.45082  0.45082  0.00000  0.09836
       8     H     0.44358  0.44358  0.00000  0.11284
       9     H     0.44567  0.44567  0.00000  0.10866
      10     H     0.45445  0.45445  0.00000  0.09110
      11     H     0.44847  0.44847  0.00000  0.10305
      12     H     0.43607  0.43607  0.00000  0.12787
      13     H     0.45113  0.45113  0.00000  0.09775

   Total alpha = 20.00000, Total beta = 20.00000, Total charge = -0.00000

*** Psi4 exiting successfully. Buy a developer a beer!
