  ==> Input File <==

--------------------------------------------------------------------------
set {
	reference rhf
	basis 6-31G*
}

set_num_threads( 4 )
memory 2 gb

molecule MOL {
0 1

H	 -2.586391	 0.503232	 3.717030
C	 -1.812347	 0.467659	 2.971125
C	 -1.641830	 1.533524	 2.100490
C	 -0.988627	 -0.643523	 2.883420
H	 -2.281345	 2.394693	 2.169586
C	 -0.646347	 1.487053	 1.141670
H	 -1.122304	 -1.468806	 3.559175
C	 0.008526	 -0.692242	 1.924417
H	 -0.499891	 2.302565	 0.459642
C	 0.181992	 0.374381	 1.050354
H	 0.648246	 -1.550130	 1.852959
C	 1.239129	 0.373821	 0.000060
O	 1.970282	 -0.730723	 0.000018
O	 1.417107	 1.268792	 -0.765584
C	 3.377318	 -0.566646	 -0.000065
H	 3.695437	 -0.028981	 -0.881264
H	 3.789299	 -1.563704	 0.000236
H	 3.695516	 -0.028316	 0.880770

	symmetry c1
}
set optking {
	frozen_dihedral = ("
		10 12 13 15
	")
}

ee = optimize('scf')
oeprop('DIPOLE', 'QUADRUPOLE', 'MULLIKEN_CHARGES')
f=open( 'psi4out.xyz', 'w' )
f.write( "18  " )
f.write( str(ee) + "\n" )
f.write( MOL.save_string_xyz() )
f.close()
--------------------------------------------------------------------------

    Molecular point group: c1
  Charge       = 0
  Multiplicity = 1
  Basis Set: 6-31G*
  Basis Set:
  @DF-RHF Final Energy:  -457.33934607798659
    Total Energy =                       -457.3393460779860789
    Molecular point group: c1
  Basis Set: 6-31G*
  Basis Set:
  Basis Set: 6-31G*
  Basis Set:
  @DF-RHF Final Energy:  -457.33661664004779
    Total Energy =                       -457.3366166400477368
  Basis Set: 6-31G*
  Basis Set:
  Basis Set: 6-31G*
  Basis Set:
  @DF-RHF Final Energy:  -457.33986489649385
    Total Energy =                       -457.3398648964932818
  Basis Set: 6-31G*
  Basis Set:
  Basis Set: 6-31G*
  Basis Set:
  @DF-RHF Final Energy:  -457.33993698970755
    Total Energy =                       -457.3399369897075530
  Basis Set: 6-31G*
  Basis Set:
  Basis Set: 6-31G*
  Basis Set:
  @DF-RHF Final Energy:  -457.33993937227172
    Total Energy =                       -457.3399393722713739
  Basis Set: 6-31G*
  Basis Set:
  Charge       = 0
  Multiplicity = 1
  Basis Set: 6-31G*
  Basis Set:

    Orbital Energies (a.u.)
    -----------------------

    Doubly Occupied:

       1A    -20.595340     2A    -20.549725     3A    -11.379025
       4A    -11.286252     5A    -11.247405     6A    -11.246950
       7A    -11.245777     8A    -11.243533     9A    -11.239062
      10A    -11.238348    11A     -1.465040    12A     -1.364780
      13A     -1.166624    14A     -1.046647    15A     -1.026485
      16A     -0.975525    17A     -0.864659    18A     -0.836182
      19A     -0.777046    20A     -0.738358    21A     -0.683682
      22A     -0.674159    23A     -0.666755    24A     -0.634187
      25A     -0.625541    26A     -0.601625    27A     -0.594448
      28A     -0.558419    29A     -0.527445    30A     -0.517816
      31A     -0.502460    32A     -0.498722    33A     -0.458035
      34A     -0.442624    35A     -0.346615    36A     -0.342651

  @DF-RHF Final Energy:  -457.33993962758075

   => Energetics <=

    Nuclear Repulsion Energy =            493.7076880380269586
    One-Electron Energy =               -1601.6793629729784243
    Two-Electron Energy =                 650.6317353073707181
    DFT Exchange-Correlation Energy =       0.0000000000000000
    Empirical Dispersion Energy =           0.0000000000000000
    PCM Polarization Energy =               0.0000000000000000
    EFP Energy =                            0.0000000000000000
    Total Energy =                       -457.3399396275806339
    Molecular point group: c1
  Basis Set: 6-31G*
  Basis Set:

  -Total Gradient:
     Atom            X                  Y                   Z
    ------   -----------------  -----------------  -----------------
       1       -0.000001562798     0.000003110741    -0.000002307417
       2       -0.000004886256     0.000033050320    -0.000013041103
       3       -0.000015076105    -0.000012036573     0.000026771147
       4        0.000022809396    -0.000016313051    -0.000013843193
       5       -0.000005619849     0.000000084728    -0.000002783277
       6        0.000026345071    -0.000020324106    -0.000007423987
       7        0.000000277418     0.000003724082    -0.000000135126
       8       -0.000001348011    -0.000028677183     0.000030654124
       9       -0.000000195281     0.000007450650     0.000000655995
      10        0.004320985218     0.002901302637     0.004367254806
      11       -0.000005043307     0.000008324093    -0.000004439767
      12       -0.006223808590    -0.004253064120    -0.002921753684
      13        0.001909176950     0.001382329355    -0.008779177115
      14       -0.000029745205     0.000039538340     0.000005590926
      15        0.000021157750    -0.000028036269     0.007304521162
      16       -0.000001050901    -0.000006755816     0.000009656302
      17       -0.000005042414    -0.000006455521     0.000003439281
      18       -0.000007373086    -0.000007252307    -0.000003639066

  **** Optimization is complete! (in 6 steps) ****
    Final optimized geometry and variables:
    Molecular point group: c1

    Geometry (in Angstrom), charge = 0, multiplicity = 1:

    H           -2.986793494213     0.245082132237     2.670703183402
    C           -2.221665788007     0.202649107719     1.916071265910
    C           -2.059504181356     1.263270854696     1.035998079127
    C           -1.402501737572    -0.910925639984     1.825918089332
    H           -2.697021244444     2.125774227307     1.107176629627
    C           -1.076405094770     1.208591911906     0.066276872081
    H           -1.531245834719    -1.732170517307     2.507457261105
    C           -0.416150381775    -0.967404243692     0.855322651822
    H           -0.936305226030     2.019800696184    -0.622187890788
    C           -0.247809725904     0.094358398632    -0.025264382067
    H            0.218991656672    -1.827989849900     0.778509251199
    C            0.817069740125     0.091276761311    -1.067270090771
    O            1.564248095676    -1.019391059781    -1.073980496170
    O            1.036954887388     1.012554697411    -1.784481129894
    C            2.969312368740    -0.838409844431    -1.070031323437
    H            3.289090148864    -0.282859145658    -1.938773519215
    H            3.399457909085    -1.827616368775    -1.082201363825
    H            3.273779617265    -0.319049368649    -0.169528237886

  Mulliken Charges: (a.u.)
   Center  Symbol    Alpha    Beta     Spin     Total
       1     H     0.39492  0.39492  0.00000  0.21015
       2     C     3.08961  3.08961  0.00000 -0.17921
       3     C     3.10704  3.10704  0.00000 -0.21407
       4     C     3.10680  3.10680  0.00000 -0.21360
       5     H     0.39494  0.39494  0.00000  0.21011
       6     C     3.08579  3.08579  0.00000 -0.17158
       7     H     0.39593  0.39593  0.00000  0.20815
       8     C     3.08844  3.08844  0.00000 -0.17687
       9     H     0.37596  0.37596  0.00000  0.24808
      10     C     3.07883  3.07883  0.00000 -0.15766
      11     H     0.38138  0.38138  0.00000  0.23724
      12     C     2.58298  2.58298  0.00000  0.83404
      13     O     4.32146  4.32146  0.00000 -0.64292
      14     O     4.27682  4.27682  0.00000 -0.55365
      15     C     3.09452  3.09452  0.00000 -0.18903
      16     H     0.40169  0.40169  0.00000  0.19662
      17     H     0.40656  0.40656  0.00000  0.18688
      18     H     0.41634  0.41634  0.00000  0.16731

   Total alpha = 36.00000, Total beta = 36.00000, Total charge =  0.00000
