  ==> Input File <==

--------------------------------------------------------------------------
set {
	reference rhf
	basis 6-31G*
}

set_num_threads( 1 )
memory 2 gb

molecule MOL {
0 1

H	 -3.846121	 1.486311	 -1.021938
O	 -3.132066	 0.911229	 -1.257118
C	 -2.106962	 1.016470	 -0.302824
C	 -0.981358	 0.082476	 -0.710768
H	 -1.739923	 2.040375	 -0.246190
H	 -2.475068	 0.746916	 0.686206
C	 0.198102	 0.111031	 0.262842
H	 -0.650705	 0.360635	 -1.707776
H	 -1.382511	 -0.924549	 -0.784610
C	 1.331804	 -0.827780	 -0.158768
H	 0.571001	 1.129237	 0.342697
H	 -0.145032	 -0.169116	 1.257978
C	 2.723619	 -0.410569	 0.329459
H	 1.342964	 -0.912588	 -1.244120
H	 1.116806	 -1.824343	 0.220779
C	 3.243875	 0.895854	 -0.272975
H	 3.424222	 -1.207124	 0.091250
H	 2.714788	 -0.329854	 1.414619
H	 3.251977	 0.848779	 -1.358681
H	 2.637085	 1.747371	 0.016682
H	 4.259473	 1.094070	 0.055697

	symmetry c1
}
set optking {
	frozen_dihedral = ("
		2 3 4 8,
		8 4 7 10,
		16 13 10 14,
		1 2 3 5
	")
}

ee = energy('scf')
oeprop('DIPOLE', 'QUADRUPOLE', 'MULLIKEN_CHARGES')
f=open( 'psi4out.xyz', 'w' )
f.write( "21  " )
f.write( str(ee) + "\n" )
f.write( MOL.save_string_xyz() )
f.close()
--------------------------------------------------------------------------

    Molecular point group: c1

    Geometry (in Angstrom), charge = 0, multiplicity = 1:

       Center              X                  Y                   Z               Mass
    ------------   -----------------  -----------------  -----------------  -----------------
           H         -3.963273867517     1.201280290967    -0.702273910505     1.007825032070
           O         -3.249218867517     0.626198290967    -0.937453910505    15.994914619560
           C         -2.224114867517     0.731439290967     0.016840089495    12.000000000000
           C         -1.098510867517    -0.202554709033    -0.391103910505    12.000000000000
           H         -1.857075867517     1.755344290967     0.073474089495     1.007825032070
           H         -2.592220867517     0.461885290967     1.005870089495     1.007825032070
           C          0.080949132483    -0.173999709033     0.582506089495    12.000000000000
           H         -0.767857867517     0.075604290967    -1.388111910505     1.007825032070
           H         -1.499663867517    -1.209579709033    -0.464945910505     1.007825032070
           C          1.214651132483    -1.112810709033     0.160896089495    12.000000000000
           H          0.453848132483     0.844206290967     0.662361089495     1.007825032070
           H         -0.262184867517    -0.454146709033     1.577642089495     1.007825032070
           C          2.606466132483    -0.695599709033     0.649123089495    12.000000000000
           H          1.225811132483    -1.197618709033    -0.924455910505     1.007825032070
           H          0.999653132483    -2.109373709033     0.540443089495     1.007825032070
           C          3.126722132483     0.610823290967     0.046689089495    12.000000000000
           H          3.307069132483    -1.492154709033     0.410914089495     1.007825032070
           H          2.597635132483    -0.614884709033     1.734283089495     1.007825032070
           H          3.134824132483     0.563748290967    -1.039016910505     1.007825032070
           H          2.519932132483     1.462340290967     0.336346089495     1.007825032070
           H          4.142320132483     0.809039290967     0.375361089495     1.007825032070

  Charge       = 0
  Multiplicity = 1
  Basis Set: 6-31G*
  Basis Set:

    Orbital Energies (a.u.)
    -----------------------

    Doubly Occupied:

       1A    -20.551635     2A    -11.266671     3A    -11.215274
       4A    -11.214752     5A    -11.212891     6A    -11.210591
       7A    -11.208240     8A     -1.358458     9A     -1.086325
      10A     -1.032808    11A     -0.954445    12A     -0.875808
      13A     -0.806899    14A     -0.779004    15A     -0.692347
      16A     -0.661231    17A     -0.618791    18A     -0.612936
      19A     -0.586466    20A     -0.563803    21A     -0.542058
      22A     -0.521685    23A     -0.504787    24A     -0.488255
      25A     -0.481156    26A     -0.459632    27A     -0.453811
      28A     -0.442588    29A     -0.433873

  @DF-RHF Final Energy:  -310.20999758304350

   => Energetics <=

    Nuclear Repulsion Energy =            313.7727529933644632
    One-Electron Energy =               -1042.2913515893369549
    Two-Electron Energy =                 418.3086010129295005
    DFT Exchange-Correlation Energy =       0.0000000000000000
    Empirical Dispersion Energy =           0.0000000000000000
    PCM Polarization Energy =               0.0000000000000000
    EFP Energy =                            0.0000000000000000
    Total Energy =                       -310.2099975830429344

  Mulliken Charges: (a.u.)
   Center  Symbol    Alpha    Beta     Spin     Total
       1     H     0.28122  0.28122  0.00000  0.43755
       2     O     4.37180  4.37180  0.00000 -0.74359
       3     C     2.99000  2.99000  0.00000  0.02001
       4     C     3.16009  3.16009  0.00000 -0.32019
       5     H     0.43296  0.43296  0.00000  0.13407
       6     H     0.43297  0.43297  0.00000  0.13406
       7     C     3.16261  3.16261  0.00000 -0.32521
       8     H     0.41459  0.41459  0.00000  0.17082
       9     H     0.41470  0.41470  0.00000  0.17059
      10     C     3.15305  3.15305  0.00000 -0.30610
      11     H     0.42164  0.42164  0.00000  0.15671
      12     H     0.42222  0.42222  0.00000  0.15556
      13     C     3.15335  3.15335  0.00000 -0.30669
      14     H     0.42177  0.42177  0.00000  0.15645
      15     H     0.42016  0.42016  0.00000  0.15967
      16     C     3.24092  3.24092  0.00000 -0.48184
      17     H     0.42077  0.42077  0.00000  0.15846
      18     H     0.42373  0.42373  0.00000  0.15253
      19     H     0.42153  0.42153  0.00000  0.15693
      20     H     0.42096  0.42096  0.00000  0.15809
      21     H     0.41894  0.41894  0.00000  0.16211

   Total alpha = 29.00000, Total beta = 29.00000, Total charge = -0.00000
