                              Psi4 1.0.54 Driver

  ==> Input File <==

--------------------------------------------------------------------------
set {
	reference rhf
	basis cc-pvtz
}

set_num_threads( 4 )
memory 2 gb

molecule MOL {
0 1

H	 1.967149	 -0.381576	 0.499879
C	 1.126156	 -0.420253	 -0.176838
O	 0.000000	 0.000000	 0.518769
H	 1.332181	 0.224648	 -1.028608
H	 1.013899	 -1.440494	 -0.537894
C	 -1.165153	 0.000000	 -0.236961
H	 -1.229451	 0.882440	 -0.870223
H	 -2.002557	 0.000000	 0.445289
H	 -1.229451	 -0.882440	 -0.870223

	symmetry c1
}
set optking {
	frozen_dihedral = ("
		2 3 6 7
	")
}

ee,wfn = optimize('scf', return_wfn=True)
oeprop( wfn, 'DIPOLE', 'QUADRUPOLE', 'MULLIKEN_CHARGES')
f=open( 'psi4out.xyz', 'w' )
f.write( "9  " )
f.write( str(ee) + "\n" )
f.write( MOL.save_string_xyz() )
f.close()
--------------------------------------------------------------------------

    Molecular point group: c1
  Charge       = 0
  Multiplicity = 1
  Basis Set: CC-PVTZ
  Basis Set:
  @DF-RHF Final Energy:  -154.12628735902746
    Total Energy =                       -154.1262873590274012
    Molecular point group: c1
  Basis Set: CC-PVTZ
  Basis Set:
  Basis Set: CC-PVTZ
  Basis Set:
  @DF-RHF Final Energy:  -154.12632981285876
    Total Energy =                       -154.1263298128586143
  Basis Set: CC-PVTZ
  Basis Set:
  Charge       = 0
  Multiplicity = 1
  Basis Set: CC-PVTZ
  Basis Set:

    Orbital Energies (a.u.)
    -----------------------

    Doubly Occupied:

       1A    -20.549592     2A    -11.263304     3A    -11.263002
       4A     -1.381641     5A     -0.975991     6A     -0.872512
       7A     -0.663344     8A     -0.655154     9A     -0.646476
      10A     -0.553820    11A     -0.528896    12A     -0.476425
      13A     -0.419236

  @DF-RHF Final Energy:  -154.12633419323956

   => Energetics <=

    Nuclear Repulsion Energy =             84.7841778138601683
    One-Electron Energy =                -377.3222427608749854
    Two-Electron Energy =                 138.4117307537752595
    DFT Exchange-Correlation Energy =       0.0000000000000000
    Empirical Dispersion Energy =           0.0000000000000000
    PCM Polarization Energy =               0.0000000000000000
    EFP Energy =                            0.0000000000000000
    Total Energy =                       -154.1263341932395861
    Molecular point group: c1
  Basis Set: CC-PVTZ
  Basis Set:

  -Total Gradient:
     Atom            X                  Y                   Z
    ------   -----------------  -----------------  -----------------
       1       -0.000042007475     0.000028334041     0.000030323834
       2       -0.000351149697    -0.001915698784     0.000438426938
       3        0.000128077611     0.002952735870    -0.000210691092
       4        0.000009833922     0.000008482256     0.000015253174
       5        0.000023098419    -0.000006933453     0.000003932345
       6        0.001378865514    -0.002234475153    -0.002094643409
       7       -0.001191661854     0.001200178975     0.001802881624
       8        0.000034120572    -0.000002361973    -0.000001596937
       9        0.000010822989    -0.000030261779     0.000016113521

  **** Optimization is complete! (in 3 steps) ****
    Final optimized geometry and variables:
    Molecular point group: c1

    Geometry (in Angstrom), charge = 0, multiplicity = 1:

    H            1.981997184677    -0.224848527815     0.486108469419
    C            1.145086851252    -0.269107200588    -0.195706863800
    O            0.011662512771     0.137834904185     0.496577592453
    H            1.353097537908     0.379710655915    -1.044452189336
    H            1.042836855587    -1.288910654122    -0.559872771836
    C           -1.155079467644     0.143269810480    -0.259111323751
    H           -1.220992013682     1.033393213651    -0.880851929860
    H           -1.992496788382     0.149162948601     0.424733988609
    H           -1.230554945584    -0.737723343955    -0.891270075311

  Mulliken Charges: (a.u.)
   Center  Symbol    Alpha    Beta     Spin     Total
       1     H     0.44880  0.44880  0.00000  0.10240
       2     C     3.02174  3.02174  0.00000 -0.04348
       3     O     4.16850  4.16850  0.00000 -0.33700
       4     H     0.47380  0.47380  0.00000  0.05239
       5     H     0.47207  0.47207  0.00000  0.05585
       6     C     3.02076  3.02076  0.00000 -0.04151
       7     H     0.46900  0.46900  0.00000  0.06201
       8     H     0.45020  0.45020  0.00000  0.09959
       9     H     0.47513  0.47513  0.00000  0.04974

   Total alpha = 13.00000, Total beta = 13.00000, Total charge = -0.00000

*** Psi4 exiting successfully. Buy a developer a beer!
