                              Psi4 1.0.54 Driver

  ==> Input File <==

--------------------------------------------------------------------------
set {
	reference rhf
	basis cc-pvtz
}

set_num_threads( 4 )
memory 2 gb

molecule MOL {
0 1

O	 0.736427	 2.062759	 0.296782
C	 -0.273302	 2.329342	 0.853954
C	 -1.531128	 1.499391	 0.831186
O	 -0.429882	 3.419286	 1.587359
C	 -1.413045	 0.229353	 0.001137
H	 -1.784826	 1.273256	 1.861711
H	 -2.329074	 2.136338	 0.463705
C	 -2.702562	 -0.586401	 0.000228
H	 -0.597205	 -0.373789	 0.383453
H	 -1.142630	 0.490034	 -1.015950
C	 -3.953810	 0.284959	 -0.000782
H	 -2.717793	 -1.238567	 -0.869075
H	 -2.719108	 -1.238472	 0.869576
H	 -3.983727	 0.924403	 -0.876454
H	 -4.852989	 -0.320147	 -0.001515
H	 -3.985140	 0.924399	 0.874841
C	 0.675896	 4.292642	 1.696090
H	 1.518110	 3.787472	 2.145207
H	 0.351815	 5.106357	 2.324348
H	 0.965265	 4.664336	 0.724322

	symmetry c1
}
set optking {
	frozen_dihedral = ("
		9 5 8 12
	")
}

ee,wfn = optimize('scf', return_wfn=True)
oeprop( wfn, 'DIPOLE', 'QUADRUPOLE', 'MULLIKEN_CHARGES')
f=open( 'psi4out.xyz', 'w' )
f.write( "20  " )
f.write( str(ee) + "\n" )
f.write( MOL.save_string_xyz() )
f.close()
--------------------------------------------------------------------------

    Molecular point group: c1
  Charge       = 0
  Multiplicity = 1
  Basis Set: CC-PVTZ
  Basis Set:
  @DF-RHF Final Energy:  -384.07607690769419
    Total Energy =                       -384.0760769076943006
    Molecular point group: c1
  Basis Set: CC-PVTZ
  Basis Set:
  Basis Set: CC-PVTZ
  Basis Set:
  @DF-RHF Final Energy:  -384.05845811373257
    Total Energy =                       -384.0584581137327973
  Basis Set: CC-PVTZ
  Basis Set:
  Basis Set: CC-PVTZ
  Basis Set:
  @DF-RHF Final Energy:  -384.07782976182392
    Total Energy =                       -384.0778297618239776
  Basis Set: CC-PVTZ
  Basis Set:
  Basis Set: CC-PVTZ
  Basis Set:
  @DF-RHF Final Energy:  -384.07853831199873
    Total Energy =                       -384.0785383119989547
  Basis Set: CC-PVTZ
  Basis Set:
  Basis Set: CC-PVTZ
  Basis Set:
  @DF-RHF Final Energy:  -384.07747691419314
    Total Energy =                       -384.0774769141931984
  Basis Set: CC-PVTZ
  Basis Set:
  Basis Set: CC-PVTZ
  Basis Set:
  @DF-RHF Final Energy:  -384.07857231078276
    Total Energy =                       -384.0785723107827607
  Basis Set: CC-PVTZ
  Basis Set:
  Basis Set: CC-PVTZ
  Basis Set:
  @DF-RHF Final Energy:  -384.07863919842902
    Total Energy =                       -384.0786391984289594
  Basis Set: CC-PVTZ
  Basis Set:
  Charge       = 0
  Multiplicity = 1
  Basis Set: CC-PVTZ
  Basis Set:

    Orbital Energies (a.u.)
    -----------------------

    Doubly Occupied:

       1A    -20.596015     2A    -20.533976     3A    -11.364321
       4A    -11.278303     5A    -11.233057     6A    -11.218918
       7A    -11.217767     8A    -11.211077     9A     -1.472022
      10A     -1.365561    11A     -1.088971    12A     -1.022633
      13A     -0.968107    14A     -0.897604    15A     -0.799281
      16A     -0.763546    17A     -0.703462    18A     -0.686262
      19A     -0.675125    20A     -0.642286    21A     -0.608784
      22A     -0.594530    23A     -0.567870    24A     -0.549156
      25A     -0.539554    26A     -0.523818    27A     -0.512418
      28A     -0.474171    29A     -0.468960    30A     -0.468147
      31A     -0.458514    32A     -0.440935

  @DF-RHF Final Energy:  -384.07864002896963

   => Energetics <=

    Nuclear Repulsion Energy =            386.2555714831623845
    One-Electron Energy =               -1288.7781194760050312
    Two-Electron Energy =                 518.4439079638727890
    DFT Exchange-Correlation Energy =       0.0000000000000000
    Empirical Dispersion Energy =           0.0000000000000000
    PCM Polarization Energy =               0.0000000000000000
    EFP Energy =                            0.0000000000000000
    Total Energy =                       -384.0786400289698577
    Molecular point group: c1
  Basis Set: CC-PVTZ
  Basis Set:

  -Total Gradient:
     Atom            X                  Y                   Z
    ------   -----------------  -----------------  -----------------
       1       -0.000070125050     0.000126200064     0.000082836249
       2       -0.000015592095    -0.000063577599    -0.000037360064
       3        0.000003759318    -0.000045692789    -0.000007340473
       4        0.000133048170    -0.000025531101    -0.000044619078
       5        0.002482944960    -0.000996408202    -0.006865380945
       6       -0.000013523901     0.000004762579    -0.000017023199
       7       -0.000000355147    -0.000000905833    -0.000005516842
       8        0.002534620689    -0.004154898415     0.005392556848
       9       -0.002502571703     0.001457457319     0.004968501591
      10        0.000002468085    -0.000009183994     0.000013349203
      11        0.000006658196    -0.000016027688     0.000014997577
      12       -0.002560981118     0.003699292840    -0.003515272939
      13        0.000003655777    -0.000003266175     0.000003276191
      14       -0.000002663189     0.000005323129     0.000015019176
      15        0.000009186571     0.000018130307    -0.000000527896
      16       -0.000005132764    -0.000021220502    -0.000023460880
      17       -0.000040743013    -0.000006325444     0.000023354805
      18        0.000002928134     0.000006577945    -0.000003883065
      19        0.000032865250     0.000028719301     0.000008637077
      20       -0.000000447164    -0.000003425739    -0.000002143338

  **** Optimization is complete! (in 8 steps) ****
    Final optimized geometry and variables:
    Molecular point group: c1

    Geometry (in Angstrom), charge = 0, multiplicity = 1:

    O            1.819086359163     0.551446081248     0.068036363497
    C            0.689884515481     0.699003377423     0.390730581786
    C           -0.452344265606    -0.220425728511     0.039290467156
    O            0.274530759182     1.721423235601     1.121015307835
    C           -0.022145080894    -1.419818612502    -0.800077224922
    H           -0.906204963544    -0.535249563934     0.973739635233
    H           -1.197425611448     0.384505669995    -0.462623133675
    C           -1.140238833717    -2.439540688311    -1.063111113079
    H            0.775020122281    -1.909960601198    -0.255411603771
    H            0.394595906597    -1.067361367219    -1.735218764686
    C           -2.507055190030    -1.844013598637    -1.404499716973
    H           -0.843270203510    -3.043059769632    -1.914202080167
    H           -1.242602523228    -3.103524512599    -0.211266143058
    H           -2.439184262265    -1.157363441163    -2.242530097256
    H           -3.200632079432    -2.629307655133    -1.681571070548
    H           -2.942872119505    -1.307059798792    -0.570656697841
    C            1.243708090849     2.668223944735     1.522489001092
    H            2.006417281994     2.200461624113     2.127246895158
    H            0.714917700262     3.409930110726     2.098850472607
    H            1.708430336344     3.126560421651     0.662128883807

  Mulliken Charges: (a.u.)
   Center  Symbol    Alpha    Beta     Spin     Total
       1     O     4.19652  4.19652  0.00000 -0.39305
       2     C     2.81002  2.81002  0.00000  0.37996
       3     C     3.10092  3.10092  0.00000 -0.20184
       4     O     4.14673  4.14673  0.00000 -0.29346
       5     C     3.08961  3.08961  0.00000 -0.17922
       6     H     0.43939  0.43939  0.00000  0.12122
       7     H     0.43754  0.43754  0.00000  0.12493
       8     C     3.09187  3.09187  0.00000 -0.18373
       9     H     0.44269  0.44269  0.00000  0.11461
      10     H     0.44459  0.44459  0.00000  0.11082
      11     C     3.15874  3.15874  0.00000 -0.31749
      12     H     0.44821  0.44821  0.00000  0.10358
      13     H     0.45099  0.45099  0.00000  0.09802
      14     H     0.45308  0.45308  0.00000  0.09384
      15     H     0.44401  0.44401  0.00000  0.11197
      16     H     0.45308  0.45308  0.00000  0.09383
      17     C     3.03806  3.03806  0.00000 -0.07612
      18     H     0.45432  0.45432  0.00000  0.09137
      19     H     0.44521  0.44521  0.00000  0.10957
      20     H     0.45442  0.45442  0.00000  0.09117

   Total alpha = 32.00000, Total beta = 32.00000, Total charge = -0.00000

*** Psi4 exiting successfully. Buy a developer a beer!
