  ==> Input File <==

--------------------------------------------------------------------------
set {
	reference rhf
	basis cc-pvtz
}

set_num_threads( 4 )
memory 2 gb

molecule MOL {
0 1

H	 -0.000342	 -0.223902	 -3.352295
C	 -0.027146	 0.371068	 -2.446756
C	 0.024493	 -0.518541	 -1.216015
H	 -0.932586	 0.964979	 -2.449855
H	 0.819708	 1.049865	 -2.473332
N	 -0.042516	 0.263377	 -0.000000
H	 -0.822211	 -1.197105	 -1.225584
H	 0.921114	 -1.142847	 -1.255206
C	 0.024493	 -0.518541	 1.216015
H	 0.682568	 0.950412	 -0.000000
C	 1.222535	 -0.120664	 2.061700
H	 -0.887426	 -0.344134	 1.777652
H	 0.062007	 -1.592242	 1.013578
H	 1.179347	 0.931922	 2.312219
H	 1.251557	 -0.694324	 2.980819
H	 2.152139	 -0.301577	 1.530908

	symmetry c1
}
set optking {
	frozen_dihedral = ("
		12 9 6 3
	")
}

ee = optimize('scf')
oeprop('DIPOLE', 'QUADRUPOLE', 'MULLIKEN_CHARGES')
f=open( 'psi4out.xyz', 'w' )
f.write( "16  " )
f.write( str(ee) + "\n" )
f.write( MOL.save_string_xyz() )
f.close()
--------------------------------------------------------------------------

    Molecular point group: c1
  Charge       = 0
  Multiplicity = 1
  Basis Set: CC-PVTZ
  Basis Set:
  @DF-RHF Final Energy:  -212.38854998185667
    Total Energy =                       -212.3885499818564426
    Molecular point group: c1
  Basis Set: CC-PVTZ
  Basis Set:
  Basis Set: CC-PVTZ
  Basis Set:
  @DF-RHF Final Energy:  -212.38917316783485
    Total Energy =                       -212.3891731678347696
  Basis Set: CC-PVTZ
  Basis Set:
  Basis Set: CC-PVTZ
  Basis Set:
  @DF-RHF Final Energy:  -212.38929646288199
    Total Energy =                       -212.3892964628819300
  Basis Set: CC-PVTZ
  Basis Set:
  Basis Set: CC-PVTZ
  Basis Set:
  @DF-RHF Final Energy:  -212.38930113315126
    Total Energy =                       -212.3893011331512639
  Basis Set: CC-PVTZ
  Basis Set:
  Charge       = 0
  Multiplicity = 1
  Basis Set: CC-PVTZ
  Basis Set:

    Orbital Energies (a.u.)
    -----------------------

    Doubly Occupied:

       1A    -15.525198     2A    -11.239234     3A    -11.238688
       4A    -11.211119     5A    -11.206062     6A     -1.202938
       7A     -1.028979     8A     -0.964514     9A     -0.837755
      10A     -0.822551    11A     -0.643581    12A     -0.629447
      13A     -0.622600    14A     -0.579872    15A     -0.554623
      16A     -0.523259    17A     -0.506701    18A     -0.497039
      19A     -0.487892    20A     -0.472791    21A     -0.354859

  @DF-RHF Final Energy:  -212.38930188166884

   => Energetics <=

    Nuclear Repulsion Energy =            189.9165909793552771
    One-Electron Energy =                -662.3123808385282700
    Two-Electron Energy =                 260.0064879775040367
    DFT Exchange-Correlation Energy =       0.0000000000000000
    Empirical Dispersion Energy =           0.0000000000000000
    PCM Polarization Energy =               0.0000000000000000
    EFP Energy =                            0.0000000000000000
    Total Energy =                       -212.3893018816689278
    Molecular point group: c1
  Basis Set: CC-PVTZ
  Basis Set:

  -Total Gradient:
     Atom            X                  Y                   Z
    ------   -----------------  -----------------  -----------------
       1        0.000002296564     0.000008537947    -0.000015650232
       2        0.000004344816    -0.000008353626    -0.000011039301
       3        0.000389620050     0.000002212394    -0.000022890091
       4        0.000004040562    -0.000010042307     0.000009463477
       5        0.000001885799    -0.000001229167    -0.000000415809
       6       -0.000545176190     0.000126769484     0.000034142621
       7       -0.000000404226     0.000004578958     0.000007778079
       8       -0.000010922661     0.000022918099     0.000010063228
       9       -0.000054327945    -0.000552025108    -0.000209811807
      10        0.000010012014    -0.000008634172     0.000013419367
      11       -0.000005441411    -0.000012955741    -0.000059189024
      12        0.000248020171     0.000422155358     0.000205599982
      13        0.000008442275     0.000000449891     0.000006304900
      14       -0.000001716889     0.000001881152    -0.000000220930
      15       -0.000010173701    -0.000011650478     0.000023500710
      16       -0.000040499228     0.000015387316     0.000008944831

  **** Optimization is complete! (in 5 steps) ****
    Final optimized geometry and variables:
    Molecular point group: c1

    Geometry (in Angstrom), charge = 0, multiplicity = 1:

    H           -0.251329254339    -0.115556542974    -3.284989291631
    C           -0.284047148158     0.473834573421    -2.375982343517
    C           -0.235698643369    -0.422982232653    -1.150715978161
    H           -1.191110996239     1.065352910475    -2.379401951237
    H            0.561178601465     1.155090673297    -2.394253562531
    N           -0.309442055554     0.355668270100     0.067771712759
    H           -1.081249940873    -1.102255497933    -1.171297433361
    H            0.662446180073    -1.044930496296    -1.192257417893
    C           -0.229049623649    -0.403152639303     1.308876313524
    H            0.382096030798     1.073062748765     0.053852740551
    C            0.975153687269    -0.024239020717     2.160317390812
    H           -1.132755608679    -0.247723792050     1.890257260920
    H           -0.184459338483    -1.464420793324     1.084822212417
    H            0.952690231903     1.031847628739     2.409526919594
    H            0.983043905768    -0.581885181079     3.089860678427
    H            1.903737329258    -0.226972014720     1.636933556577

  Mulliken Charges: (a.u.)
   Center  Symbol    Alpha    Beta     Spin     Total
       1     H     0.45369  0.45369  0.00000  0.09262
       2     C     3.14405  3.14405  0.00000 -0.28810
       3     C     3.02022  3.02022  0.00000 -0.04044
       4     H     0.44937  0.44937  0.00000  0.10127
       5     H     0.45974  0.45974  0.00000  0.08051
       6     N     3.64161  3.64161  0.00000 -0.28322
       7     H     0.45793  0.45793  0.00000  0.08414
       8     H     0.47548  0.47548  0.00000  0.04904
       9     C     3.02266  3.02266  0.00000 -0.04532
      10     H     0.44378  0.44378  0.00000  0.11244
      11     C     3.15042  3.15042  0.00000 -0.30084
      12     H     0.45677  0.45677  0.00000  0.08645
      13     H     0.46416  0.46416  0.00000  0.07169
      14     H     0.45421  0.45421  0.00000  0.09158
      15     H     0.45136  0.45136  0.00000  0.09729
      16     H     0.45455  0.45455  0.00000  0.09090

   Total alpha = 21.00000, Total beta = 21.00000, Total charge = -0.00000
