                              Psi4 1.0.54 Driver

  ==> Input File <==

--------------------------------------------------------------------------
set {
	reference rhf
	basis cc-pvtz
}

set_num_threads( 4 )
memory 2 gb

molecule MOL {
0 1

O	 3.219313	 0.959291	 -0.614106
C	 2.698710	 0.058177	 -0.050237
C	 1.246364	 -0.005813	 0.348416
O	 3.344101	 -1.038700	 0.312317
C	 0.453207	 1.232821	 -0.049003
H	 0.839270	 -0.907818	 -0.092281
H	 1.216683	 -0.160521	 1.422434
C	 -0.998367	 1.217982	 0.432195
H	 0.481498	 1.345443	 -1.127236
H	 0.951413	 2.105557	 0.354893
C	 -1.882951	 0.151251	 -0.211235
H	 -1.429490	 2.193659	 0.228843
H	 -1.019755	 1.099323	 1.513279
C	 -3.342450	 0.243269	 0.226009
H	 -1.826223	 0.246578	 -1.293162
H	 -1.508033	 -0.839650	 0.027695
C	 -3.576359	 1.240803	 1.356931
H	 -3.685800	 -0.739675	 0.539494
H	 -3.956351	 0.520634	 -0.627841
C	 -5.036349	 1.325723	 1.789360
H	 -2.963750	 0.964841	 2.210908
H	 -3.236271	 2.224360	 1.044183
H	 -5.167502	 2.041910	 2.592391
H	 -5.396688	 0.364813	 2.141378
H	 -5.671411	 1.633296	 0.965161
C	 4.720529	 -1.114346	 0.001449
H	 4.874321	 -1.055557	 -1.065852
H	 5.057824	 -2.067950	 0.373977
H	 5.264321	 -0.313596	 0.480350

	symmetry c1
}
set optking {
	frozen_dihedral = ("
		17 14 11 15
	")
}

ee,wfn = optimize('scf', return_wfn=True)
oeprop( wfn, 'DIPOLE', 'QUADRUPOLE', 'MULLIKEN_CHARGES')
f=open( 'psi4out.xyz', 'w' )
f.write( "29  " )
f.write( str(ee) + "\n" )
f.write( MOL.save_string_xyz() )
f.close()
--------------------------------------------------------------------------

    Molecular point group: c1
  Charge       = 0
  Multiplicity = 1
  Basis Set: CC-PVTZ
  Basis Set:
  @DF-RHF Final Energy:  -501.20994592886802
    Total Energy =                       -501.2099459288674552
    Molecular point group: c1
  Basis Set: CC-PVTZ
  Basis Set:
  Basis Set: CC-PVTZ
  Basis Set:
  @DF-RHF Final Energy:  -501.08174198358063
    Total Energy =                       -501.0817419835802866
  Basis Set: CC-PVTZ
  Basis Set:
  Basis Set: CC-PVTZ
  Basis Set:
  @DF-RHF Final Energy:  -501.18493912535791
    Total Energy =                       -501.1849391253574595
  Basis Set: CC-PVTZ
  Basis Set:
  Basis Set: CC-PVTZ
  Basis Set:
  @DF-RHF Final Energy:  -501.21284464759890
    Total Energy =                       -501.2128446475990131
  Basis Set: CC-PVTZ
  Basis Set:
  @DF-RHF Final Energy:  -501.21466229298471
    Total Energy =                       -501.2146622929839168
  @DF-RHF Final Energy:  -501.21442403430569
    Total Energy =                       -501.2144240343060346
  @DF-RHF Final Energy:  -501.21467977778559
    Total Energy =                       -501.2146797777850225
  @DF-RHF Final Energy:  -501.21475245868839
    Total Energy =                       -501.2147524586887357
  @DF-RHF Final Energy:  -501.21475489314378
    Total Energy =                       -501.2147548931433221
  Basis Set: CC-PVTZ
  Basis Set:
  @DF-RHF Final Energy:  -501.21470900756049
    Total Energy =                       -501.2147090075606002
  Basis Set: CC-PVTZ
  Basis Set:
  Basis Set: CC-PVTZ
  Basis Set:
  @DF-RHF Final Energy:  -501.21475937741047
    Total Energy =                       -501.2147593774100187
  Basis Set: CC-PVTZ
  Basis Set:
  Basis Set: CC-PVTZ
  Basis Set:
  @DF-RHF Final Energy:  -501.21476057651796
    Total Energy =                       -501.2147605765170510
  Basis Set: CC-PVTZ
  Basis Set:
  Charge       = 0
  Multiplicity = 1
  Basis Set: CC-PVTZ
  Basis Set:

    Orbital Energies (a.u.)
    -----------------------

    Doubly Occupied:

       1A    -20.595887     2A    -20.533730     3A    -11.364146
       4A    -11.278174     5A    -11.232747     6A    -11.216735
       7A    -11.214981     8A    -11.214279     9A    -11.213574
      10A    -11.212899    11A    -11.206783    12A     -1.471770
      13A     -1.365357    14A     -1.097320    15A     -1.065486
      16A     -1.018355    17A     -0.976528    18A     -0.929345
      19A     -0.863438    20A     -0.820831    21A     -0.774482
      22A     -0.757675    23A     -0.703161    24A     -0.685190
      25A     -0.675870    26A     -0.649664    27A     -0.628100
      28A     -0.604994    29A     -0.596020    30A     -0.582516
      31A     -0.565019    32A     -0.552833    33A     -0.549666
      34A     -0.525260    35A     -0.518942    36A     -0.501610
      37A     -0.492512    38A     -0.485443    39A     -0.483076
      40A     -0.460496    41A     -0.451062    42A     -0.445027
      43A     -0.442337    44A     -0.439821

  @DF-RHF Final Energy:  -501.21476074767247

   => Energetics <=

    Nuclear Repulsion Energy =            615.7101029392929377
    One-Electron Energy =               -1902.9234453949297858
    Two-Electron Energy =                 785.9985817079643766
    DFT Exchange-Correlation Energy =       0.0000000000000000
    Empirical Dispersion Energy =           0.0000000000000000
    PCM Polarization Energy =               0.0000000000000000
    EFP Energy =                            0.0000000000000000
    Total Energy =                       -501.2147607476724716
    Molecular point group: c1
  Basis Set: CC-PVTZ
  Basis Set:

  -Total Gradient:
     Atom            X                  Y                   Z
    ------   -----------------  -----------------  -----------------
       1       -0.000013761350     0.000004442043    -0.000009910675
       2       -0.000003455971    -0.000012082611    -0.000008092700
       3        0.000026238428     0.000029038467     0.000033394367
       4        0.000006485118    -0.000008117287     0.000009183600
       5       -0.000002835245     0.000000569468    -0.000012017080
       6       -0.000005310337    -0.000005355857    -0.000018695549
       7       -0.000008645839    -0.000012259795    -0.000009181417
       8       -0.000000154011    -0.000007790465     0.000000183608
       9        0.000003816859     0.000001503422     0.000007361908
      10        0.000002782119     0.000002147888    -0.000001725538
      11       -0.000313160726    -0.002865441744    -0.000793606025
      12       -0.000001462496    -0.000001985563     0.000003854559
      13       -0.000000086550     0.000003866021    -0.000004024072
      14        0.001573187721    -0.001465357922     0.001886812348
      15       -0.000160027059     0.002897476593     0.000174193590
      16        0.000001503823    -0.000001838194     0.000000353718
      17       -0.001104638154     0.001434696637    -0.001263201188
      18       -0.000002157127     0.000001696452     0.000002489072
      19        0.000000033210     0.000000364017    -0.000000802997
      20        0.000002908561     0.000003966304     0.000002575830
      21       -0.000004223950    -0.000001306771     0.000003887018
      22       -0.000001133050    -0.000002886049    -0.000002557455
      23       -0.000000386370    -0.000001741889    -0.000003750100
      24        0.000001075106     0.000000973387    -0.000000881592
      25        0.000001271312     0.000000720690    -0.000000671237
      26        0.000005755041     0.000010924212     0.000012077758
      27       -0.000006352218    -0.000001121973    -0.000004674448
      28       -0.000000805526    -0.000004572638     0.000000744984
      29        0.000003538688    -0.000000526837    -0.000003320297

  **** Optimization is complete! (in 13 steps) ****
    Final optimized geometry and variables:
    Molecular point group: c1

    Geometry (in Angstrom), charge = 0, multiplicity = 1:

    O            2.443725447109     0.855381463231    -2.109735712050
    C            2.315981920436    -0.015871396754    -1.318780250285
    C            1.146903773484    -0.187080136913    -0.382580881071
    O            3.208455664200    -0.978696631150    -1.152236228404
    C            0.092804394850     0.904242355503    -0.523696457350
    H            0.740042253198    -1.173646426784    -0.568486995110
    H            1.546624851847    -0.215903805492     0.626144025323
    C           -1.049453976046     0.801852704408     0.489815202309
    H           -0.306285511898     0.888624887552    -1.531934222957
    H            0.578015573371     1.865975245357    -0.410553946065
    C           -1.956813270751    -0.414993907215     0.283437500789
    H           -1.641147070117     1.706915110594     0.409249053652
    H           -0.634501419275     0.798790661273     1.493144191152
    C           -3.188336612637    -0.540001061039     1.220154267001
    H           -2.309018962738    -0.372625110469    -0.742293052821
    H           -1.363228404285    -1.317450605789     0.366986533755
    C           -3.284478722652     0.423047193912     2.404532135800
    H           -3.234241236013    -1.554430324060     1.602863069817
    H           -4.088329556959    -0.413932709046     0.625907044199
    C           -4.540182759880     0.179406537961     3.236196224662
    H           -2.413071270202     0.320026241949     3.043675895517
    H           -3.287676641099     1.448569895801     2.053206708776
    H           -4.598009468520     0.870079933633     4.069672100524
    H           -4.554556266028    -0.827686866361     3.639566792591
    H           -5.436699516900     0.306806812118     2.638454812928
    C            4.360887118430    -0.943536962982    -1.969268543770
    H            4.090678657870    -1.008099195759    -3.012865088688
    H            4.953603101735    -1.797804405621    -1.684917669493
    H            4.917247093452    -0.032599509892    -1.805176229602

  Mulliken Charges: (a.u.)
   Center  Symbol    Alpha    Beta     Spin     Total
       1     O     4.19716  4.19716  0.00000 -0.39432
       2     C     2.80515  2.80515  0.00000  0.38969
       3     C     3.10110  3.10110  0.00000 -0.20221
       4     O     4.14722  4.14722  0.00000 -0.29444
       5     C     3.09270  3.09270  0.00000 -0.18539
       6     H     0.43932  0.43932  0.00000  0.12136
       7     H     0.44013  0.44013  0.00000  0.11975
       8     C     3.10871  3.10871  0.00000 -0.21741
       9     H     0.44660  0.44660  0.00000  0.10680
      10     H     0.43927  0.43927  0.00000  0.12146
      11     C     3.10115  3.10115  0.00000 -0.20230
      12     H     0.44270  0.44270  0.00000  0.11459
      13     H     0.45023  0.45023  0.00000  0.09955
      14     C     3.09175  3.09175  0.00000 -0.18349
      15     H     0.44976  0.44976  0.00000  0.10048
      16     H     0.45046  0.45046  0.00000  0.09908
      17     C     3.08832  3.08832  0.00000 -0.17663
      18     H     0.45084  0.45084  0.00000  0.09832
      19     H     0.45175  0.45175  0.00000  0.09649
      20     C     3.15133  3.15133  0.00000 -0.30267
      21     H     0.45307  0.45307  0.00000  0.09387
      22     H     0.45123  0.45123  0.00000  0.09753
      23     H     0.44802  0.44802  0.00000  0.10396
      24     H     0.45499  0.45499  0.00000  0.09002
      25     H     0.45501  0.45501  0.00000  0.08999
      26     C     3.03815  3.03815  0.00000 -0.07630
      27     H     0.45435  0.45435  0.00000  0.09130
      28     H     0.44530  0.44530  0.00000  0.10941
      29     H     0.45424  0.45424  0.00000  0.09152

   Total alpha = 44.00000, Total beta = 44.00000, Total charge = -0.00000

*** Psi4 exiting successfully. Buy a developer a beer!
