                              Psi4 1.0.54 Driver

  ==> Input File <==

--------------------------------------------------------------------------
set {
	reference rhf
	basis cc-pvtz
}

set_num_threads( 4 )
memory 2 gb

molecule MOL {
0 1

H	 -3.436473	 1.252944	 -1.023892
O	 -3.458596	 0.315260	 -0.960865
C	 -3.176635	 -0.080824	 0.355601
C	 -1.763371	 0.265266	 0.799691
H	 -3.321825	 -1.153438	 0.379502
H	 -3.895468	 0.357385	 1.043382
C	 -1.283751	 1.633279	 0.323426
H	 -1.712389	 0.215816	 1.886346
H	 -1.094503	 -0.508077	 0.429631
C	 0.122924	 1.978268	 0.805317
H	 -1.980303	 2.393264	 0.659805
H	 -1.308203	 1.657631	 -0.763457
C	 0.598862	 3.346478	 0.321030
H	 0.142334	 1.941592	 1.890290
H	 0.819400	 1.216181	 0.461805
C	 2.034175	 3.703889	 0.710880
H	 -0.074908	 4.113574	 0.695793
H	 0.518916	 3.377834	 -0.762135
C	 2.261041	 3.890585	 2.209152
H	 2.309286	 4.622211	 0.201200
H	 2.708445	 2.937543	 0.337392
H	 1.595659	 4.647572	 2.612035
H	 3.278615	 4.207660	 2.407268
H	 2.092950	 2.974493	 2.762438

	symmetry c1
}
set optking {
	frozen_dihedral = ("
		7 4 3 2
	")
}

ee,wfn = optimize('scf', return_wfn=True)
oeprop( wfn, 'DIPOLE', 'QUADRUPOLE', 'MULLIKEN_CHARGES')
f=open( 'psi4out.xyz', 'w' )
f.write( "24  " )
f.write( str(ee) + "\n" )
f.write( MOL.save_string_xyz() )
f.close()
--------------------------------------------------------------------------

    Molecular point group: c1
  Charge       = 0
  Multiplicity = 1
  Basis Set: CC-PVTZ
  Basis Set:
  @DF-RHF Final Energy:  -349.37692314619449
    Total Energy =                       -349.3769231461939739
    Molecular point group: c1
  Basis Set: CC-PVTZ
  Basis Set:
  Basis Set: CC-PVTZ
  Basis Set:
  @DF-RHF Final Energy:  -349.37727637853226
    Total Energy =                       -349.3772763785323718
  Basis Set: CC-PVTZ
  Basis Set:
  Basis Set: CC-PVTZ
  Basis Set:
  @DF-RHF Final Energy:  -349.37747082068012
    Total Energy =                       -349.3774708206802870
  Basis Set: CC-PVTZ
  Basis Set:
  Basis Set: CC-PVTZ
  Basis Set:
  @DF-RHF Final Energy:  -349.37747750205114
    Total Energy =                       -349.3774775020514767
  Basis Set: CC-PVTZ
  Basis Set:
  Charge       = 0
  Multiplicity = 1
  Basis Set: CC-PVTZ
  Basis Set:

    Orbital Energies (a.u.)
    -----------------------

    Doubly Occupied:

       1A    -20.545211     2A    -11.265599     3A    -11.216402
       4A    -11.214361     5A    -11.214032     6A    -11.213597
       7A    -11.212698     8A    -11.207140     9A     -1.363781
      10A     -1.092750    11A     -1.050118    12A     -0.987929
      13A     -0.920522    14A     -0.854516    15A     -0.795038
      16A     -0.780012    17A     -0.696703    18A     -0.651199
      19A     -0.626872    20A     -0.610854    21A     -0.606461
      22A     -0.589544    23A     -0.562963    24A     -0.539891
      25A     -0.522701    26A     -0.513740    27A     -0.491087
      28A     -0.486921    29A     -0.471275    30A     -0.462399
      31A     -0.456478    32A     -0.445780    33A     -0.424421

  @DF-RHF Final Energy:  -349.37747803368586

   => Energetics <=

    Nuclear Repulsion Energy =            385.6490830176009013
    One-Electron Energy =               -1237.8671464951416965
    Two-Electron Energy =                 502.8405854438544793
    DFT Exchange-Correlation Energy =       0.0000000000000000
    Empirical Dispersion Energy =           0.0000000000000000
    PCM Polarization Energy =               0.0000000000000000
    EFP Energy =                            0.0000000000000000
    Total Energy =                       -349.3774780336863159
    Molecular point group: c1
  Basis Set: CC-PVTZ
  Basis Set:

  -Total Gradient:
     Atom            X                  Y                   Z
    ------   -----------------  -----------------  -----------------
       1        0.000005420621     0.000032805982    -0.000013949989
       2       -0.001541526871     0.003843206904     0.001633817452
       3        0.002732505646    -0.006003680039    -0.003683410376
       4       -0.002662720150     0.003694177170     0.005577686081
       5       -0.000004560599     0.000004512065    -0.000008634628
       6        0.000012688009    -0.000005290227    -0.000030370653
       7        0.001438317539    -0.001585811669    -0.003464330618
       8        0.000019553384     0.000016738992    -0.000017818798
       9       -0.000017585235    -0.000003547898     0.000008920496
      10        0.000003299524     0.000027751395     0.000021853203
      11        0.000027349194    -0.000007654697    -0.000007411819
      12       -0.000013538679    -0.000006324669     0.000001605642
      13        0.000010925256    -0.000008011086    -0.000014361773
      14       -0.000007567188    -0.000003176723    -0.000002764269
      15       -0.000005958295     0.000008768437    -0.000001095542
      16        0.000002674098     0.000001396235    -0.000004305223
      17        0.000003870987    -0.000010087374     0.000002866684
      18       -0.000003049743     0.000004040878    -0.000000612985
      19       -0.000000793079    -0.000000744826     0.000001106300
      20       -0.000001534013    -0.000000436298     0.000002018006
      21        0.000002028030     0.000002473339    -0.000000520667
      22        0.000003144972     0.000000606247    -0.000000862855
      23       -0.000001934065    -0.000002906058    -0.000000622902
      24       -0.000001009341     0.000001193917     0.000001199236

  **** Optimization is complete! (in 5 steps) ****
    Final optimized geometry and variables:
    Molecular point group: c1

    Geometry (in Angstrom), charge = 0, multiplicity = 1:

    H           -2.944188559455    -0.652359656481    -1.561718207517
    O           -2.852010370355    -1.586219685823    -1.534815904070
    C           -2.506744528480    -1.997773668348    -0.239519594408
    C           -1.085300628834    -1.621872218284     0.184262185216
    H           -2.625449531604    -3.071912841962    -0.218790663971
    H           -3.217447805958    -1.584087978112     0.473370769725
    C           -0.633999486607    -0.231719475180    -0.256869438288
    H           -1.020749731932    -1.712581649039     1.264820169738
    H           -0.390252452684    -2.347830375542    -0.228542815512
    C            0.756826391147     0.132436045108     0.257260737415
    H           -1.345003745518     0.517027622114     0.091982789934
    H           -0.636670682021    -0.183752821603    -1.339947311941
    C            1.220846166986     1.512259518893    -0.205088867933
    H            0.756837188158     0.083717237875     1.341463722204
    H            1.468708478412    -0.616124298680    -0.082823959974
    C            2.644427403533     1.885079244357     0.212572348721
    H            0.531031367721     2.266808998831     0.166739564926
    H            1.158675613301     1.553618344630    -1.289076837511
    C            2.844268308122     2.056665635071     1.716478019481
    H            2.914511490184     2.813204646328    -0.281699057755
    H            3.335143438531     1.132841924571    -0.159179614980
    H            2.161304730743     2.798711132350     2.117807754727
    H            3.853578420829     2.386458070288     1.934645455244
    H            2.681467718828     1.131477399547     2.255957560820

  Mulliken Charges: (a.u.)
   Center  Symbol    Alpha    Beta     Spin     Total
       1     H     0.38981  0.38981  0.00000  0.22037
       2     O     4.20542  4.20542  0.00000 -0.41084
       3     C     2.97963  2.97963  0.00000  0.04075
       4     C     3.08921  3.08921  0.00000 -0.17842
       5     H     0.45033  0.45033  0.00000  0.09935
       6     H     0.46987  0.46987  0.00000  0.06025
       7     C     3.10389  3.10389  0.00000 -0.20778
       8     H     0.45502  0.45502  0.00000  0.08997
       9     H     0.45408  0.45408  0.00000  0.09185
      10     C     3.09413  3.09413  0.00000 -0.18826
      11     H     0.45712  0.45712  0.00000  0.08575
      12     H     0.44556  0.44556  0.00000  0.10888
      13     C     3.09471  3.09471  0.00000 -0.18941
      14     H     0.45274  0.45274  0.00000  0.09452
      15     H     0.45315  0.45315  0.00000  0.09370
      16     C     3.09057  3.09057  0.00000 -0.18114
      17     H     0.45482  0.45482  0.00000  0.09037
      18     H     0.44959  0.44959  0.00000  0.10082
      19     C     3.15252  3.15252  0.00000 -0.30504
      20     H     0.44839  0.44839  0.00000  0.10322
      21     H     0.45435  0.45435  0.00000  0.09131
      22     H     0.45513  0.45513  0.00000  0.08973
      23     H     0.44619  0.44619  0.00000  0.10762
      24     H     0.45377  0.45377  0.00000  0.09245

   Total alpha = 33.00000, Total beta = 33.00000, Total charge = -0.00000

*** Psi4 exiting successfully. Buy a developer a beer!
