  ==> Input File <==

--------------------------------------------------------------------------
set {
	reference rhf
	basis 6-31G*
}

set_num_threads( 4 )
memory 2 gb

molecule MOL {
0 1

H	 2.854123	 -0.412323	 0.000190
O	 2.016064	 -0.864478	 0.000222
C	 1.050492	 0.053836	 0.000068
C	 -0.318135	 -0.576402	 0.000164
O	 1.285279	 1.218255	 -0.000078
C	 -1.454360	 0.441875	 -0.000474
H	 -0.374042	 -1.230163	 -0.866135
H	 -0.374274	 -1.229227	 0.867154
C	 -2.826123	 -0.230780	 0.000056
H	 -1.357605	 1.085198	 -0.868380
H	 -1.357504	 1.086451	 0.866496
H	 -2.959731	 -0.858053	 -0.876869
H	 -3.619374	 0.509403	 -0.000080
H	 -2.959371	 -0.857318	 0.877556

	symmetry c1
}
set optking {
	frozen_dihedral = ("
		1 2 3 5
	")
}

ee = optimize('scf')
oeprop('DIPOLE', 'QUADRUPOLE', 'MULLIKEN_CHARGES')
f=open( 'psi4out.xyz', 'w' )
f.write( "14  " )
f.write( str(ee) + "\n" )
f.write( MOL.save_string_xyz() )
f.close()
--------------------------------------------------------------------------

    Molecular point group: c1
  Charge       = 0
  Multiplicity = 1
  Basis Set: 6-31G*
  Basis Set:

    Orbital Energies (a.u.)
    -----------------------

    Doubly Occupied:

       1A    -20.613140     2A    -20.552232     3A    -11.381788
       4A    -11.241374     5A    -11.225648     6A    -11.217133
       7A     -1.475214     8A     -1.366311     9A     -1.083200
      10A     -0.979733    11A     -0.857332    12A     -0.791239
      13A     -0.700037    14A     -0.688916    15A     -0.667533
      16A     -0.615441    17A     -0.594085    18A     -0.572974
      19A     -0.545405    20A     -0.505235    21A     -0.491623
      22A     -0.482517    23A     -0.479018    24A     -0.444781

  @DF-RHF Final Energy:  -305.88087747581335

   => Energetics <=

    Nuclear Repulsion Energy =            239.9660704968996754
    One-Electron Energy =                -892.5500778049754445
    Two-Electron Energy =                 346.7031298322625616
    DFT Exchange-Correlation Energy =       0.0000000000000000
    Empirical Dispersion Energy =           0.0000000000000000
    PCM Polarization Energy =               0.0000000000000000
    EFP Energy =                            0.0000000000000000
    Total Energy =                       -305.8808774758132358
    Molecular point group: c1
  Basis Set: 6-31G*
  Basis Set:

  -Total Gradient:
     Atom            X                  Y                   Z
    ------   -----------------  -----------------  -----------------
       1        0.000001533915    -0.000001876828    -0.000000408618
       2       -0.000005095336     0.000000751612     0.000000627464
       3        0.000015979634     0.000001509021     0.000000753135
       4       -0.000011886749    -0.000006031418    -0.000003850360
       5       -0.000002009165     0.000006842066     0.000001198268
       6        0.000005753748    -0.000004280103     0.000004285797
       7        0.000001971298    -0.000005646810    -0.000000732355
       8       -0.000000806627    -0.000001104261    -0.000001303774
       9       -0.000004696437     0.000002426421    -0.000001608170
      10       -0.000003900063    -0.000001411929     0.000001710210
      11       -0.000004004607     0.000009067026     0.000000060011
      12        0.000000585360    -0.000001626880    -0.000005063718
      13        0.000002301510     0.000001557576     0.000002650627
      14        0.000004273513    -0.000000175492     0.000001681483

  **** Optimization is complete! (in 1 steps) ****
    Final optimized geometry and variables:
    Molecular point group: c1

    Geometry (in Angstrom), charge = 0, multiplicity = 1:

    H            2.854122969034    -0.412323387813     0.000189968932
    O            2.016063969034    -0.864478387813     0.000221968932
    C            1.050491969034     0.053835612187     0.000067968932
    C           -0.318135030966    -0.576402387813     0.000163968932
    O            1.285278969034     1.218254612187    -0.000078031068
    C           -1.454360030966     0.441874612187    -0.000474031068
    H           -0.374042030966    -1.230163387813    -0.866135031068
    H           -0.374274030966    -1.229227387813     0.867153968932
    C           -2.826123030966    -0.230780387813     0.000055968932
    H           -1.357605030966     1.085197612187    -0.868380031068
    H           -1.357504030966     1.086450612187     0.866495968932
    H           -2.959731030966    -0.858053387813    -0.876869031068
    H           -3.619374030966     0.509402612187    -0.000080031068
    H           -2.959371030966    -0.857318387813     0.877555968932

  Mulliken Charges: (a.u.)
   Center  Symbol    Alpha    Beta     Spin     Total
       1     H     0.26775  0.26775  0.00000  0.46450
       2     O     4.35113  4.35113  0.00000 -0.70225
       3     C     2.62335  2.62335  0.00000  0.75330
       4     C     3.20934  3.20934  0.00000 -0.41869
       5     O     4.27914  4.27914  0.00000 -0.55828
       6     C     3.15241  3.15241  0.00000 -0.30482
       7     H     0.39880  0.39880  0.00000  0.20240
       8     H     0.39880  0.39880  0.00000  0.20240
       9     C     3.24293  3.24293  0.00000 -0.48586
      10     H     0.41012  0.41012  0.00000  0.17976
      11     H     0.41010  0.41010  0.00000  0.17980
      12     H     0.42084  0.42084  0.00000  0.15833
      13     H     0.41445  0.41445  0.00000  0.17110
      14     H     0.42084  0.42084  0.00000  0.15832

   Total alpha = 24.00000, Total beta = 24.00000, Total charge =  0.00000
