                              Psi4 1.0.54 Driver

  ==> Input File <==

--------------------------------------------------------------------------
set {
	reference rhf
	basis cc-pvtz
}

set_num_threads( 4 )
memory 2 gb

molecule MOL {
0 1

H	 2.190573	 -0.629143	 -0.208718
O	 1.355408	 -0.529451	 0.208662
C	 0.700177	 0.619554	 -0.266242
C	 -0.713111	 0.588314	 0.266177
H	 0.678680	 0.627133	 -1.351786
H	 1.199747	 1.521489	 0.077736
O	 -1.421673	 -0.521378	 -0.196983
H	 -1.244794	 1.469161	 -0.069059
H	 -0.685100	 0.604721	 1.352683
H	 -0.856082	 -1.025961	 -0.755127

	symmetry c1
}
set optking {
	frozen_dihedral = ("
		10 7 4 3
	")
}

ee,wfn = optimize('scf', return_wfn=True)
oeprop( wfn, 'DIPOLE', 'QUADRUPOLE', 'MULLIKEN_CHARGES')
f=open( 'psi4out.xyz', 'w' )
f.write( "10  " )
f.write( str(ee) + "\n" )
f.write( MOL.save_string_xyz() )
f.close()
--------------------------------------------------------------------------

    Molecular point group: c1
  Charge       = 0
  Multiplicity = 1
  Basis Set: CC-PVTZ
  Basis Set:
  @DF-RHF Final Energy:  -229.02322255579719
    Total Energy =                       -229.0232225557971617
    Molecular point group: c1
  Basis Set: CC-PVTZ
  Basis Set:
  Basis Set: CC-PVTZ
  Basis Set:
  @DF-RHF Final Energy:  -228.93429264835873
    Total Energy =                       -228.9342926483586211
  Basis Set: CC-PVTZ
  Basis Set:
  Basis Set: CC-PVTZ
  Basis Set:
  @DF-RHF Final Energy:  -229.01373319335954
    Total Energy =                       -229.0137331933594851
  Basis Set: CC-PVTZ
  Basis Set:
  Basis Set: CC-PVTZ
  Basis Set:
  @DF-RHF Final Energy:  -229.02397540036216
    Total Energy =                       -229.0239754003621897
  Basis Set: CC-PVTZ
  Basis Set:
  Basis Set: CC-PVTZ
  Basis Set:
  @DF-RHF Final Energy:  -229.02413338771083
    Total Energy =                       -229.0241333877107195
  Basis Set: CC-PVTZ
  Basis Set:
  Basis Set: CC-PVTZ
  Basis Set:
  @DF-RHF Final Energy:  -229.02417013371564
    Total Energy =                       -229.0241701337155575
  Basis Set: CC-PVTZ
  Basis Set:
  Charge       = 0
  Multiplicity = 1
  Basis Set: CC-PVTZ
  Basis Set:

    Orbital Energies (a.u.)
    -----------------------

    Doubly Occupied:

       1A    -20.562388     2A    -20.540972     3A    -11.280292
       4A    -11.267486     5A     -1.386992     6A     -1.355162
       7A     -1.006222     8A     -0.850411     9A     -0.726878
      10A     -0.672646    11A     -0.666815    12A     -0.602898
      13A     -0.576944    14A     -0.552913    15A     -0.475816
      16A     -0.459103    17A     -0.438264

  @DF-RHF Final Energy:  -229.02417121830101

   => Energetics <=

    Nuclear Repulsion Energy =            134.3641319809846379
    One-Electron Energy =                -579.9322021958661253
    Two-Electron Energy =                 216.5438989965805376
    DFT Exchange-Correlation Energy =       0.0000000000000000
    Empirical Dispersion Energy =           0.0000000000000000
    PCM Polarization Energy =               0.0000000000000000
    EFP Energy =                            0.0000000000000000
    Total Energy =                       -229.0241712183009213
    Molecular point group: c1
  Basis Set: CC-PVTZ
  Basis Set:

  -Total Gradient:
     Atom            X                  Y                   Z
    ------   -----------------  -----------------  -----------------
       1        0.000028990996     0.000020774031    -0.000027470763
       2       -0.000039263561     0.000063560376     0.000064452141
       3        0.000840270556    -0.001529060222     0.000721809131
       4       -0.001581501527     0.002695806537    -0.001424754057
       5        0.000044833180    -0.000001502646    -0.000030627650
       6        0.000045365016    -0.000022225683    -0.000009112470
       7        0.002078069379    -0.003611617136     0.001939768797
       8        0.000005134111    -0.000006983583    -0.000003405920
       9       -0.000042685161    -0.000017631200     0.000036857693
      10       -0.001379212992     0.002408879523    -0.001267516901

  **** Optimization is complete! (in 7 steps) ****
    Final optimized geometry and variables:
    Molecular point group: c1

    Geometry (in Angstrom), charge = 0, multiplicity = 1:

    H            1.936630883165    -0.513488789422    -1.151875850726
    O            1.225543259671    -0.607239033114    -0.545321565373
    C            0.689062226913     0.647606113591    -0.227193365474
    C           -0.481840850276     0.452821032723     0.708645345426
    H            0.356552079668     1.157899142265    -1.129674481839
    H            1.425004395415     1.279850278326     0.261819505526
    O           -1.472610959688    -0.387681509950     0.191440153604
    H           -0.912255732454     1.424648640580     0.928639797556
    H           -0.122242538408     0.027560472807     1.639368738734
    H           -1.229894826727    -0.688956240127    -0.664489143791

  Mulliken Charges: (a.u.)
   Center  Symbol    Alpha    Beta     Spin     Total
       1     H     0.39224  0.39224  0.00000  0.21551
       2     O     4.19917  4.19917  0.00000 -0.39834
       3     C     2.98756  2.98756  0.00000  0.02489
       4     C     2.94497  2.94497  0.00000  0.11006
       5     H     0.46990  0.46990  0.00000  0.06020
       6     H     0.46713  0.46713  0.00000  0.06575
       7     O     4.20737  4.20737  0.00000 -0.41475
       8     H     0.47328  0.47328  0.00000  0.05344
       9     H     0.47083  0.47083  0.00000  0.05835
      10     H     0.38755  0.38755  0.00000  0.22490

   Total alpha = 17.00000, Total beta = 17.00000, Total charge = -0.00000

*** Psi4 exiting successfully. Buy a developer a beer!
