  ==> Input File <==

--------------------------------------------------------------------------
set {
	reference rhf
	basis cc-pvtz
}

set_num_threads( 4 )
memory 2 gb

molecule MOL {
0 1

O	 -2.071633	 -1.227563	 -0.223463
C	 -1.652164	 -0.152425	 0.058082
C	 -0.327811	 0.006324	 0.778296
C	 -2.402515	 1.108629	 -0.298924
C	 0.843231	 -0.001575	 -0.211665
H	 -0.319484	 0.928173	 1.350354
H	 -0.227804	 -0.823091	 1.466705
C	 2.197693	 0.138030	 0.476937
H	 0.722944	 0.805202	 -0.930230
H	 0.813976	 -0.926978	 -0.776588
C	 2.349672	 1.458052	 1.225006
H	 2.336898	 -0.687729	 1.169228
H	 2.985502	 0.050737	 -0.265544
H	 1.596111	 1.559075	 1.998940
H	 2.246884	 2.302561	 0.552244
H	 3.321609	 1.528900	 1.699052
H	 -3.240910	 0.874416	 -0.936711
H	 -1.747554	 1.818823	 -0.790984
H	 -2.760419	 1.579708	 0.610998

	symmetry c1
}
set optking {
	frozen_dihedral = ("
		11 8 5 9
	")
}

ee = optimize('scf')
oeprop('DIPOLE', 'QUADRUPOLE', 'MULLIKEN_CHARGES')
f=open( 'psi4out.xyz', 'w' )
f.write( "19  " )
f.write( str(ee) + "\n" )
f.write( MOL.save_string_xyz() )
f.close()
--------------------------------------------------------------------------

    Molecular point group: c1
  Charge       = 0
  Multiplicity = 1
  Basis Set: CC-PVTZ
  Basis Set:
  @DF-RHF Final Energy:  -309.17492270586069
    Total Energy =                       -309.1749227058608085
    Molecular point group: c1
  Basis Set: CC-PVTZ
  Basis Set:
  Basis Set: CC-PVTZ
  Basis Set:
  @DF-RHF Final Energy:  -309.17534501410347
    Total Energy =                       -309.1753450141036978
  Basis Set: CC-PVTZ
  Basis Set:
  Basis Set: CC-PVTZ
  Basis Set:
  @DF-RHF Final Energy:  -309.17567449393511
    Total Energy =                       -309.1756744939349346
  Basis Set: CC-PVTZ
  Basis Set:
  Basis Set: CC-PVTZ
  Basis Set:
  @DF-RHF Final Energy:  -309.17523432481892
    Total Energy =                       -309.1752343248190869
  Basis Set: CC-PVTZ
  Basis Set:
  Basis Set: CC-PVTZ
  Basis Set:
  @DF-RHF Final Energy:  -309.17569240209792
    Total Energy =                       -309.1756924020978659
  Basis Set: CC-PVTZ
  Basis Set:
  Basis Set: CC-PVTZ
  Basis Set:
  @DF-RHF Final Energy:  -309.17568109623767
    Total Energy =                       -309.1756810962379518
  Basis Set: CC-PVTZ
  Basis Set:
  Basis Set: CC-PVTZ
  Basis Set:
  @DF-RHF Final Energy:  -309.17569916135113
    Total Energy =                       -309.1756991613508490
  Basis Set: CC-PVTZ
  Basis Set:
  Charge       = 0
  Multiplicity = 1
  Basis Set: CC-PVTZ
  Basis Set:

    Orbital Energies (a.u.)
    -----------------------

    Doubly Occupied:

       1A    -20.536830     2A    -11.319411     3A    -11.229140
       4A    -11.227495     5A    -11.226905     6A    -11.223433
       7A    -11.214944     8A     -1.397001     9A     -1.092815
      10A     -1.029082    11A     -0.982896    12A     -0.901283
      13A     -0.799366    14A     -0.736380    15A     -0.660439
      16A     -0.653217    17A     -0.621601    18A     -0.606301
      19A     -0.599687    20A     -0.570798    21A     -0.553117
      22A     -0.541898    23A     -0.522730    24A     -0.499471
      25A     -0.481580    26A     -0.474371    27A     -0.466648
      28A     -0.399684

  @DF-RHF Final Energy:  -309.17569922049825

   => Energetics <=

    Nuclear Repulsion Energy =            305.1068990851947547
    One-Electron Energy =               -1023.4281560046576942
    Two-Electron Energy =                 409.1455576989648648
    DFT Exchange-Correlation Energy =       0.0000000000000000
    Empirical Dispersion Energy =           0.0000000000000000
    PCM Polarization Energy =               0.0000000000000000
    EFP Energy =                            0.0000000000000000
    Total Energy =                       -309.1756992204980747
    Molecular point group: c1
  Basis Set: CC-PVTZ
  Basis Set:

  -Total Gradient:
     Atom            X                  Y                   Z
    ------   -----------------  -----------------  -----------------
       1        0.000004092012    -0.000001462480    -0.000008454794
       2       -0.000010395527     0.000000270988    -0.000006410014
       3        0.000011724321    -0.000000813384    -0.000005700827
       4       -0.000014273644    -0.000008880317     0.000013984756
       5       -0.000353491748     0.000341621225     0.000679883868
       6        0.000011192041     0.000000348896    -0.000002251905
       7        0.000001228517     0.000000867996     0.000005091519
       8        0.000278968150     0.000186515349    -0.000601147213
       9        0.000223647492    -0.000331159611    -0.000426813117
      10       -0.000009165462     0.000002451874     0.000005027327
      11       -0.000159469922    -0.000191472828     0.000349441892
      12        0.000002048399     0.000001639494     0.000005823169
      13        0.000006027820     0.000003876848     0.000002609609
      14       -0.000003797475    -0.000004635948    -0.000000730744
      15       -0.000003713616    -0.000003781795     0.000000647938
      16        0.000004276075     0.000000012260    -0.000001131278
      17        0.000000555981     0.000001743152    -0.000001711133
      18        0.000006246183    -0.000000920388    -0.000003838545
      19        0.000004300404     0.000003778669    -0.000004320507

  **** Optimization is complete! (in 8 steps) ****
    Final optimized geometry and variables:
    Molecular point group: c1

    Geometry (in Angstrom), charge = 0, multiplicity = 1:

    O           -1.905246806821    -1.457215448414    -0.465435661345
    C           -1.515037306690    -0.365094740166    -0.208330822604
    C           -0.206208770435    -0.153942645312     0.527012683871
    C           -2.289678274470     0.867206196763    -0.611306975812
    C            0.973929747043    -0.147995395868    -0.454354608969
    H           -0.242178405427     0.774270546425     1.084273521565
    H           -0.089671278793    -0.970945513328     1.228091962941
    C            2.345398126785    -0.051750238762     0.215169489746
    H            0.863310194049     0.670698716782    -1.161107051221
    H            0.932734174832    -1.062586285824    -1.034723271607
    C            2.592692705595     1.239234770119     0.990947063956
    H            2.476923775414    -0.901676054021     0.878702376107
    H            3.103054023677    -0.148846361182    -0.555705263154
    H            1.930488185710     1.334725170114     1.843061049301
    H            2.448488770387     2.109720340148     0.358673618692
    H            3.608787009973     1.270592658159     1.366253050590
    H           -3.110102374938     0.595491006202    -1.257529518789
    H           -1.643914903979     1.581309154846    -1.109687156229
    H           -2.676296839079     1.351707819392     0.279634806246

  Mulliken Charges: (a.u.)
   Center  Symbol    Alpha    Beta     Spin     Total
       1     O     4.17691  4.17691  0.00000 -0.35382
       2     C     2.85670  2.85670  0.00000  0.28660
       3     C     3.10108  3.10108  0.00000 -0.20215
       4     C     3.15609  3.15609  0.00000 -0.31219
       5     C     3.10600  3.10600  0.00000 -0.21201
       6     H     0.44791  0.44791  0.00000  0.10418
       7     H     0.43940  0.43940  0.00000  0.12120
       8     C     3.09068  3.09068  0.00000 -0.18136
       9     H     0.45114  0.45114  0.00000  0.09772
      10     H     0.43609  0.43609  0.00000  0.12781
      11     C     3.15422  3.15422  0.00000 -0.30844
      12     H     0.45075  0.45075  0.00000  0.09849
      13     H     0.44611  0.44611  0.00000  0.10777
      14     H     0.45360  0.45360  0.00000  0.09281
      15     H     0.45454  0.45454  0.00000  0.09093
      16     H     0.44386  0.44386  0.00000  0.11228
      17     H     0.43567  0.43567  0.00000  0.12865
      18     H     0.45077  0.45077  0.00000  0.09846
      19     H     0.44847  0.44847  0.00000  0.10306

   Total alpha = 28.00000, Total beta = 28.00000, Total charge = -0.00000
