  ==> Input File <==

--------------------------------------------------------------------------
set {
	reference rhf
	basis cc-pvtz
}

set_num_threads( 4 )
memory 2 gb

molecule MOL {
0 1

H	 -0.000105	 1.988529	 0.748933
O	 -0.000098	 1.879786	 -0.188206
C	 -0.000014	 0.545691	 -0.532416
C	 -1.286000	 -0.125171	 -0.046657
C	 1.286016	 -0.125031	 -0.046584
H	 0.000021	 0.481103	 -1.610604
F	 -2.240540	 0.769507	 0.025903
F	 -1.686518	 -1.075797	 -0.852639
F	 -1.132164	 -0.642854	 1.153223
F	 2.317750	 0.468717	 -0.594166
F	 1.336617	 -1.393765	 -0.365123
F	 1.414467	 -0.024806	 1.259108

	symmetry c1
}
set optking {
	frozen_dihedral = ("
		7 4 3 6
	")
}

ee = optimize('scf')
oeprop('DIPOLE', 'QUADRUPOLE', 'MULLIKEN_CHARGES')
f=open( 'psi4out.xyz', 'w' )
f.write( "12  " )
f.write( str(ee) + "\n" )
f.write( MOL.save_string_xyz() )
f.close()
--------------------------------------------------------------------------

    Molecular point group: c1
  Charge       = 0
  Multiplicity = 1
  Basis Set: CC-PVTZ
  Basis Set:
  @DF-RHF Final Energy:  -786.58498032303055
    Total Energy =                       -786.5849803230303223
    Molecular point group: c1
  Basis Set: CC-PVTZ
  Basis Set:
  Basis Set: CC-PVTZ
  Basis Set:
  @DF-RHF Final Energy:  -786.58631403060156
    Total Energy =                       -786.5863140306020114
  Basis Set: CC-PVTZ
  Basis Set:
  Basis Set: CC-PVTZ
  Basis Set:
  @DF-RHF Final Energy:  -786.58669268642382
    Total Energy =                       -786.5866926864239304
  Basis Set: CC-PVTZ
  Basis Set:
  Basis Set: CC-PVTZ
  Basis Set:
  @DF-RHF Final Energy:  -786.58676585100488
    Total Energy =                       -786.5867658510043157
  Basis Set: CC-PVTZ
  Basis Set:
  Basis Set: CC-PVTZ
  Basis Set:
  @DF-RHF Final Energy:  -786.58678356367625
    Total Energy =                       -786.5867835636759082
  Basis Set: CC-PVTZ
  Basis Set:
  Basis Set: CC-PVTZ
  Basis Set:
  @DF-RHF Final Energy:  -786.58679426191418
    Total Energy =                       -786.5867942619138375
  Basis Set: CC-PVTZ
  Basis Set:
  Charge       = 0
  Multiplicity = 1
  Basis Set: CC-PVTZ
  Basis Set:

    Orbital Energies (a.u.)
    -----------------------

    Doubly Occupied:

       1A    -26.358288     2A    -26.358091     3A    -26.356415
       4A    -26.354378     5A    -26.354149     6A    -26.354003
       7A    -20.610800     8A    -11.519246     9A    -11.519097
      10A    -11.351451    11A     -1.771637    12A     -1.765531
      13A     -1.666534    14A     -1.663373    15A     -1.663237
      16A     -1.659440    17A     -1.440834    18A     -1.103086
      19A     -1.000406    20A     -0.944266    21A     -0.870649
      22A     -0.867683    23A     -0.858451    24A     -0.852966
      25A     -0.839532    26A     -0.820370    27A     -0.743954
      28A     -0.736112    29A     -0.733580    30A     -0.727624
      31A     -0.695547    32A     -0.691822    33A     -0.690214
      34A     -0.682530    35A     -0.675817    36A     -0.666856
      37A     -0.664624    38A     -0.657716    39A     -0.624052
      40A     -0.551766    41A     -0.510008

  @DF-RHF Final Energy:  -786.58679478367014

   => Energetics <=

    Nuclear Repulsion Energy =            671.4838935604553853
    One-Electron Energy =               -2430.1891077320042314
    Two-Electron Energy =                 972.1184193878783617
    DFT Exchange-Correlation Energy =       0.0000000000000000
    Empirical Dispersion Energy =           0.0000000000000000
    PCM Polarization Energy =               0.0000000000000000
    EFP Energy =                            0.0000000000000000
    Total Energy =                       -786.5867947836705980
    Molecular point group: c1
  Basis Set: CC-PVTZ
  Basis Set:

  -Total Gradient:
     Atom            X                  Y                   Z
    ------   -----------------  -----------------  -----------------
       1       -0.000001892292    -0.000027029847    -0.000019062802
       2       -0.000003773118    -0.000077695878    -0.000038464160
       3       -0.002544339583     0.005038901758     0.000871385019
       4       -0.000661938145    -0.001820382605    -0.004807522117
       5        0.000006216721     0.000102589157     0.000031067711
       6        0.002381213385    -0.003950978250     0.000239149146
       7        0.000860423549     0.000788705491     0.003766594421
       8        0.000004734456    -0.000011733140    -0.000019272559
       9       -0.000010021535     0.000020816727     0.000015461178
      10        0.000001335473     0.000004083094    -0.000000380270
      11       -0.000021279343    -0.000027939842     0.000024950996
      12       -0.000010679553    -0.000039336661    -0.000063906563

  **** Optimization is complete! (in 7 steps) ****
    Final optimized geometry and variables:
    Molecular point group: c1

    Geometry (in Angstrom), charge = 0, multiplicity = 1:

    H            0.052178367561     2.019095048441     0.799719832914
    O            0.018084924236     1.923984030666    -0.138011697553
    C           -0.002223876630     0.601418960204    -0.508387665726
    C           -1.279745110955    -0.130272696373    -0.056551140634
    C            1.271758322953    -0.104926395566    -0.040166933398
    H            0.020413493161     0.543122668741    -1.586343812934
    F           -2.284888150256     0.704774428271     0.007129700773
    F           -1.585879886964    -1.087907443796    -0.896960037363
    F           -1.151816635004    -0.668267250226     1.138300420848
    F            2.304842917523     0.374818993434    -0.688584864496
    F            1.217937131735    -1.395684016564    -0.262452042685
    F            1.487177312399     0.085210617656     1.242692927883

  Mulliken Charges: (a.u.)
   Center  Symbol    Alpha    Beta     Spin     Total
       1     H     0.38324  0.38324  0.00000  0.23352
       2     O     4.18433  4.18433  0.00000 -0.36866
       3     C     3.01075  3.01075  0.00000 -0.02149
       4     C     2.68064  2.68064  0.00000  0.63872
       5     C     2.68074  2.68074  0.00000  0.63853
       6     H     0.42780  0.42780  0.00000  0.14440
       7     F     4.60054  4.60054  0.00000 -0.20108
       8     F     4.60531  4.60531  0.00000 -0.21061
       9     F     4.60845  4.60845  0.00000 -0.21690
      10     F     4.60262  4.60262  0.00000 -0.20523
      11     F     4.60492  4.60492  0.00000 -0.20983
      12     F     4.61068  4.61068  0.00000 -0.22136

   Total alpha = 41.00000, Total beta = 41.00000, Total charge = -0.00000
