                              Psi4 1.0.54 Driver

  ==> Input File <==

--------------------------------------------------------------------------
set {
	reference rhf
	basis cc-pvtz
}

set_num_threads( 4 )
memory 2 gb

molecule MOL {
0 1

O	 0.623971	 1.347241	 -0.000777
C	 0.485107	 0.171416	 -0.000134
C	 1.606966	 -0.836201	 0.000174
O	 -0.695554	 -0.422406	 0.000602
C	 2.988788	 -0.202529	 -0.000115
H	 1.465110	 -1.474645	 -0.864821
H	 1.465209	 -1.474077	 0.865596
H	 3.131767	 0.419673	 -0.873407
H	 3.750876	 -0.972315	 0.000098
H	 3.131883	 0.420264	 0.872742
C	 -0.855533	 -1.580697	 -0.806278
C	 -2.274484	 -2.070315	 -0.634985
H	 -0.137931	 -2.327776	 -0.497625
H	 -0.645074	 -1.325932	 -1.835416
H	 -2.473836	 -2.321330	 0.399241
H	 -2.430939	 -2.956230	 -1.239061
H	 -2.983873	 -1.313830	 -0.946221

	symmetry c1
}
set optking {
	frozen_dihedral = ("
		11 4 2 3
	")
}

ee,wfn = optimize('scf', return_wfn=True)
oeprop( wfn, 'DIPOLE', 'QUADRUPOLE', 'MULLIKEN_CHARGES')
f=open( 'psi4out.xyz', 'w' )
f.write( "17  " )
f.write( str(ee) + "\n" )
f.write( MOL.save_string_xyz() )
f.close()
--------------------------------------------------------------------------

    Molecular point group: c1
  Charge       = 0
  Multiplicity = 1
  Basis Set: CC-PVTZ
  Basis Set:
  @DF-RHF Final Energy:  -345.01658969794835
    Total Energy =                       -345.0165896979485183
    Molecular point group: c1
  Basis Set: CC-PVTZ
  Basis Set:
  Basis Set: CC-PVTZ
  Basis Set:
  @DF-RHF Final Energy:  -345.01003150368189
    Total Energy =                       -345.0100315036818870
  Basis Set: CC-PVTZ
  Basis Set:
  Basis Set: CC-PVTZ
  Basis Set:
  @DF-RHF Final Energy:  -345.02282470791693
    Total Energy =                       -345.0228247079170387
  Basis Set: CC-PVTZ
  Basis Set:
  Basis Set: CC-PVTZ
  Basis Set:
  @DF-RHF Final Energy:  -345.02268512709162
    Total Energy =                       -345.0226851270914494
  Basis Set: CC-PVTZ
  Basis Set:
  @DF-RHF Final Energy:  -345.02416558124304
    Total Energy =                       -345.0241655812431532
  Basis Set: CC-PVTZ
  Basis Set:
  @DF-RHF Final Energy:  -345.02441729192333
    Total Energy =                       -345.0244172919233279
  Basis Set: CC-PVTZ
  Basis Set:
  Basis Set: CC-PVTZ
  Basis Set:
  @DF-RHF Final Energy:  -345.02450564386572
    Total Energy =                       -345.0245056438652682
  Basis Set: CC-PVTZ
  Basis Set:
  Basis Set: CC-PVTZ
  Basis Set:
  @DF-RHF Final Energy:  -345.02450909312660
    Total Energy =                       -345.0245090931267669
  Basis Set: CC-PVTZ
  Basis Set:
  Charge       = 0
  Multiplicity = 1
  Basis Set: CC-PVTZ
  Basis Set:

    Orbital Energies (a.u.)
    -----------------------

    Doubly Occupied:

       1A    -20.586257     2A    -20.533051     3A    -11.365246
       4A    -11.296573     5A    -11.243903     6A    -11.224695
       7A    -11.217666     8A     -1.462550     9A     -1.368055
      10A     -1.064189    11A     -1.045148    12A     -0.901900
      13A     -0.878439    14A     -0.771511    15A     -0.705557
      16A     -0.694070    17A     -0.658715    18A     -0.637354
      19A     -0.598740    20A     -0.568610    21A     -0.560669
      22A     -0.538306    23A     -0.527149    24A     -0.519359
      25A     -0.510153    26A     -0.493146    27A     -0.451220
      28A     -0.434744

  @DF-RHF Final Energy:  -345.02450960710325

   => Energetics <=

    Nuclear Repulsion Energy =            315.6452844021212059
    One-Electron Energy =               -1095.6256386647041836
    Two-Electron Energy =                 434.9558446554794386
    DFT Exchange-Correlation Energy =       0.0000000000000000
    Empirical Dispersion Energy =           0.0000000000000000
    PCM Polarization Energy =               0.0000000000000000
    EFP Energy =                            0.0000000000000000
    Total Energy =                       -345.0245096071035391
    Molecular point group: c1
  Basis Set: CC-PVTZ
  Basis Set:

  -Total Gradient:
     Atom            X                  Y                   Z
    ------   -----------------  -----------------  -----------------
       1        0.000013064777    -0.000012006426    -0.000016646072
       2       -0.000892656560     0.001945884989    -0.004970900433
       3        0.000180985762    -0.000525078739     0.002683192537
       4        0.001753084164    -0.003530463819     0.004226614328
       5        0.000007268047     0.000012040720    -0.000018337927
       6       -0.000004493149     0.000009557475    -0.000032219880
       7        0.000022621199     0.000018873835    -0.000027810712
       8       -0.000009853274    -0.000009245492     0.000005550649
       9       -0.000002234830    -0.000004827860     0.000003698290
      10       -0.000005919623    -0.000001137318     0.000008695700
      11       -0.001062102265     0.002081677245    -0.001875796772
      12       -0.000007502245     0.000008643907     0.000015809856
      13       -0.000003570177     0.000015399628     0.000002092688
      14        0.000009833365    -0.000003662975     0.000008382471
      15        0.000002203794     0.000003871563    -0.000012970035
      16        0.000002016604    -0.000000986779    -0.000003108274
      17       -0.000002745587    -0.000008539955     0.000003753586

  **** Optimization is complete! (in 9 steps) ****
    Final optimized geometry and variables:
    Molecular point group: c1

    Geometry (in Angstrom), charge = 0, multiplicity = 1:

    O            0.329927597871     1.713508413891     0.562630810067
    C            0.270794628169     0.574985621228     0.266446877426
    C            1.489738417745    -0.285684276198     0.012560465288
    O           -0.914972240221    -0.040112450625     0.240005779135
    C            2.797418128303     0.456785614586     0.239949815084
    H            1.444737360752    -0.666863460997    -1.002091753756
    H            1.414329871276    -1.151323623128     0.662370119254
    H            2.877398021069     1.311181818820    -0.417836879620
    H            3.635767564842    -0.202833840347     0.051164272087
    H            2.866637401855     0.818349237895     1.256641617738
    C           -1.215292447202    -1.040083122440    -0.713535173284
    C           -2.686700599385    -1.363078933277    -0.591599738824
    H           -0.618513079763    -1.926037946524    -0.533163010908
    H           -0.988637638495    -0.673324328652    -1.708261426244
    H           -2.914179792399    -1.723999451335     0.403139632914
    H           -2.956859394401    -2.130024891858    -1.308097614177
    H           -3.285978333582    -0.482622519145    -0.781406251441

  Mulliken Charges: (a.u.)
   Center  Symbol    Alpha    Beta     Spin     Total
       1     O     4.17555  4.17555  0.00000 -0.35110
       2     C     2.81290  2.81290  0.00000  0.37420
       3     C     3.12046  3.12046  0.00000 -0.24092
       4     O     4.13923  4.13923  0.00000 -0.27846
       5     C     3.13896  3.13896  0.00000 -0.27793
       6     H     0.44339  0.44339  0.00000  0.11323
       7     H     0.43772  0.43772  0.00000  0.12456
       8     H     0.44642  0.44642  0.00000  0.10715
       9     H     0.45145  0.45145  0.00000  0.09709
      10     H     0.44553  0.44553  0.00000  0.10893
      11     C     2.98673  2.98673  0.00000  0.02654
      12     C     3.13289  3.13289  0.00000 -0.26577
      13     H     0.45950  0.45950  0.00000  0.08101
      14     H     0.45831  0.45831  0.00000  0.08338
      15     H     0.44856  0.44856  0.00000  0.10287
      16     H     0.45686  0.45686  0.00000  0.08628
      17     H     0.44554  0.44554  0.00000  0.10892

   Total alpha = 28.00000, Total beta = 28.00000, Total charge = -0.00000

*** Psi4 exiting successfully. Buy a developer a beer!
