  ==> Input File <==

--------------------------------------------------------------------------
set {
	reference rhf
	basis 6-31G*
}

set_num_threads( 4 )
memory 2 gb

molecule MOL {
0 1

H	 1.914832	 0.589501	 0.581273
C	 1.068603	 0.648729	 -0.089317
O	 0.000000	 0.000000	 0.521119
H	 0.842749	 1.696793	 -0.279689
H	 1.334278	 0.177185	 -1.034173
C	 -1.165642	 0.000000	 -0.238270
H	 -1.228672	 0.883184	 -0.872070
H	 -2.003012	 0.000000	 0.445920
H	 -1.228672	 -0.883184	 -0.872070

	symmetry c1
}
set optking {
	frozen_dihedral = ("
		2 3 6 7
	")
}

ee = optimize('scf')
oeprop('DIPOLE', 'QUADRUPOLE', 'MULLIKEN_CHARGES')
f=open( 'psi4out.xyz', 'w' )
f.write( "9  " )
f.write( str(ee) + "\n" )
f.write( MOL.save_string_xyz() )
f.close()
--------------------------------------------------------------------------

    Molecular point group: c1
  Charge       = 0
  Multiplicity = 1
  Basis Set: 6-31G*
  Basis Set:
  @DF-RHF Final Energy:  -154.06239251476194
    Total Energy =                       -154.0623925147619957
    Molecular point group: c1
  Basis Set: 6-31G*
  Basis Set:
  Basis Set: 6-31G*
  Basis Set:
  @DF-RHF Final Energy:  -154.06250085881013
    Total Energy =                       -154.0625008588100400
  Basis Set: 6-31G*
  Basis Set:
  Basis Set: 6-31G*
  Basis Set:
  @DF-RHF Final Energy:  -154.06254281313971
    Total Energy =                       -154.0625428131396006
  Basis Set: 6-31G*
  Basis Set:
  Charge       = 0
  Multiplicity = 1
  Basis Set: 6-31G*
  Basis Set:

    Orbital Energies (a.u.)
    -----------------------

    Doubly Occupied:

       1A    -20.554202     2A    -11.265556     3A    -11.264986
       4A     -1.376633     5A     -0.974908     6A     -0.873022
       7A     -0.658803     8A     -0.653843     9A     -0.644192
      10A     -0.555027    11A     -0.529213    12A     -0.474226
      13A     -0.413985

  @DF-RHF Final Energy:  -154.06254308533278

   => Energetics <=

    Nuclear Repulsion Energy =             84.6170065780257943
    One-Electron Energy =                -376.8819052070515454
    Two-Electron Energy =                 138.2023555436929314
    DFT Exchange-Correlation Energy =       0.0000000000000000
    Empirical Dispersion Energy =           0.0000000000000000
    PCM Polarization Energy =               0.0000000000000000
    EFP Energy =                            0.0000000000000000
    Total Energy =                       -154.0625430853328339
    Molecular point group: c1
  Basis Set: 6-31G*
  Basis Set:

  -Total Gradient:
     Atom            X                  Y                   Z
    ------   -----------------  -----------------  -----------------
       1        0.000033700624     0.000015024936    -0.000013196775
       2       -0.000611821124     0.002218979192     0.001109594269
       3        0.001350639217    -0.003565244703    -0.002289421785
       4       -0.000020994859    -0.000022151245    -0.000000583811
       5       -0.000024538677     0.000002083737     0.000013143740
       6       -0.002247295675     0.002918198414     0.003515988493
       7        0.001530861262    -0.001572839832    -0.002327565608
       8       -0.000021905312     0.000003949960    -0.000002771353
       9        0.000011354544     0.000001999542    -0.000005187170

  **** Optimization is complete! (in 4 steps) ****
    Final optimized geometry and variables:
    Molecular point group: c1

    Geometry (in Angstrom), charge = 0, multiplicity = 1:

    H            1.950315700467     0.361109118956     0.536538574854
    C            1.110334536071     0.421987010252    -0.141829942871
    O            0.034310974082    -0.218492516408     0.465310832193
    H            0.890180685411     1.469772700732    -0.336585938323
    H            1.385789364069    -0.053021565074    -1.082185606312
    C           -1.142441142907    -0.222272115453    -0.282888652866
    H           -1.216836874983     0.654607595392    -0.921619508023
    H           -1.981167511440    -0.242493713745     0.400091261782
    H           -1.190533553862    -1.100310382706    -0.924007800405

  Mulliken Charges: (a.u.)
   Center  Symbol    Alpha    Beta     Spin     Total
       1     H     0.41225  0.41225  0.00000  0.17550
       2     C     3.07969  3.07969  0.00000 -0.15938
       3     O     4.29782  4.29782  0.00000 -0.59564
       4     H     0.42957  0.42957  0.00000  0.14087
       5     H     0.43056  0.43056  0.00000  0.13888
       6     C     3.07843  3.07843  0.00000 -0.15686
       7     H     0.43124  0.43124  0.00000  0.13753
       8     H     0.41394  0.41394  0.00000  0.17212
       9     H     0.42651  0.42651  0.00000  0.14698

   Total alpha = 13.00000, Total beta = 13.00000, Total charge = -0.00000
