  ==> Input File <==

--------------------------------------------------------------------------
set {
	reference rhf
	basis 6-31G*
}

set_num_threads( 4 )
memory 2 gb

molecule MOL {
0 1

O	 0.088274	 1.241200	 -0.222348
C	 0.028650	 0.075053	 -0.000277
C	 -1.233602	 -0.752807	 0.000328
O	 1.091131	 -0.666919	 0.283470
C	 -2.501530	 0.091881	 0.000126
H	 -1.193807	 -1.406641	 -0.865785
H	 -1.193516	 -1.405779	 0.867015
H	 -2.545121	 0.729328	 -0.874513
H	 -3.377167	 -0.548497	 0.000561
H	 -2.544818	 0.730135	 0.874258
C	 2.344532	 -0.008512	 0.316221
H	 2.568403	 0.429920	 -0.645586
H	 3.070715	 -0.768489	 0.559030
H	 2.347077	 0.766358	 1.069242

	symmetry c1
}
set optking {
	frozen_dihedral = ("
		4 2 3 6
	")
}

ee = optimize('scf')
oeprop('DIPOLE', 'QUADRUPOLE', 'MULLIKEN_CHARGES')
f=open( 'psi4out.xyz', 'w' )
f.write( "14  " )
f.write( str(ee) + "\n" )
f.write( MOL.save_string_xyz() )
f.close()
--------------------------------------------------------------------------

    Molecular point group: c1
  Charge       = 0
  Multiplicity = 1
  Basis Set: 6-31G*
  Basis Set:
  @DF-RHF Final Energy:  -305.87199167886229
    Total Energy =                       -305.8719916788623436
    Molecular point group: c1
  Basis Set: 6-31G*
  Basis Set:
  Basis Set: 6-31G*
  Basis Set:
  @DF-RHF Final Energy:  -305.87195977894896
    Total Energy =                       -305.8719597789491900
  Basis Set: 6-31G*
  Basis Set:
  Basis Set: 6-31G*
  Basis Set:
  @DF-RHF Final Energy:  -305.87193871900558
    Total Energy =                       -305.8719387190055272
  Basis Set: 6-31G*
  Basis Set:
  Basis Set: 6-31G*
  Basis Set:
  @DF-RHF Final Energy:  -305.87205473328356
    Total Energy =                       -305.8720547332836190
  Basis Set: 6-31G*
  Basis Set:
  Charge       = 0
  Multiplicity = 1
  Basis Set: 6-31G*
  Basis Set:

    Orbital Energies (a.u.)
    -----------------------

    Doubly Occupied:

       1A    -20.604849     2A    -20.546074     3A    -11.372954
       4A    -11.281502     5A    -11.238687     6A    -11.216949
       7A     -1.470343     8A     -1.363693     9A     -1.064390
      10A     -0.980364    11A     -0.878400    12A     -0.769167
      13A     -0.700622    14A     -0.682824    15A     -0.671818
      16A     -0.621253    17A     -0.602494    18A     -0.545565
      19A     -0.537432    20A     -0.521001    21A     -0.514223
      22A     -0.496489    23A     -0.457342    24A     -0.439164

  @DF-RHF Final Energy:  -305.87205533040128

   => Energetics <=

    Nuclear Repulsion Energy =            247.1385441528010460
    One-Electron Energy =                -906.8660032551083532
    Two-Electron Energy =                 353.8554037719061967
    DFT Exchange-Correlation Energy =       0.0000000000000000
    Empirical Dispersion Energy =           0.0000000000000000
    PCM Polarization Energy =               0.0000000000000000
    EFP Energy =                            0.0000000000000000
    Total Energy =                       -305.8720553304011105
    Molecular point group: c1
  Basis Set: 6-31G*
  Basis Set:

  -Total Gradient:
     Atom            X                  Y                   Z
    ------   -----------------  -----------------  -----------------
       1       -0.000003191114    -0.000018425722     0.000017648455
       2        0.000020721368     0.000003478946    -0.000762585837
       3        0.000329733798    -0.000503919541     0.000545633644
       4       -0.000064707046     0.000085070352     0.000566116650
       5        0.000007567903     0.000001340606     0.000011576514
       6       -0.000283477889     0.000431935364    -0.000338131528
       7        0.000003333221     0.000008579666    -0.000003193007
       8        0.000003444440    -0.000005103198    -0.000001163906
       9        0.000000740140    -0.000001289678     0.000005334600
      10       -0.000005419062     0.000005945488     0.000002823974
      11       -0.000006330357    -0.000017484412    -0.000086060974
      12        0.000019829158     0.000006678356     0.000015731792
      13       -0.000001438665     0.000001862463     0.000013097687
      14       -0.000020805893     0.000001331313     0.000013171938

  **** Optimization is complete! (in 5 steps) ****
    Final optimized geometry and variables:
    Molecular point group: c1

    Geometry (in Angstrom), charge = 0, multiplicity = 1:

    O            0.088655442435     1.235247192350    -0.273892226764
    C            0.031769428007     0.068967286590    -0.051339928359
    C           -1.229299985782    -0.761098956037    -0.058131141715
    O            1.096938748687    -0.671643524387     0.224944715979
    C           -2.497162671806     0.084523671146    -0.082287823846
    H           -1.178736548274    -1.403064361870    -0.933965216289
    H           -1.203608637999    -1.420915903792     0.801940674677
    H           -2.516825690213     0.730104783643    -0.951091001127
    H           -3.372700752456    -0.555298291572    -0.109021948346
    H           -2.563797473159     0.713964814875     0.797580113035
    C            2.351801640271    -0.015227819470     0.230767433063
    H            2.561961340461     0.412042730639    -0.739189214364
    H            3.080384586057    -0.773651392133     0.471254549796
    H            2.366663092657     0.768017792811     0.974856566328

  Mulliken Charges: (a.u.)
   Center  Symbol    Alpha    Beta     Spin     Total
       1     O     4.28531  4.28531  0.00000 -0.57062
       2     C     2.60777  2.60777  0.00000  0.78447
       3     C     3.20548  3.20548  0.00000 -0.41097
       4     O     4.30586  4.30586  0.00000 -0.61172
       5     C     3.23971  3.23971  0.00000 -0.47942
       6     H     0.39989  0.39989  0.00000  0.20022
       7     H     0.40034  0.40034  0.00000  0.19933
       8     H     0.40696  0.40696  0.00000  0.18608
       9     H     0.41768  0.41768  0.00000  0.16464
      10     H     0.41241  0.41241  0.00000  0.17517
      11     C     3.09250  3.09250  0.00000 -0.18500
      12     H     0.40913  0.40913  0.00000  0.18174
      13     H     0.40836  0.40836  0.00000  0.18328
      14     H     0.40860  0.40860  0.00000  0.18280

   Total alpha = 24.00000, Total beta = 24.00000, Total charge = -0.00000
