  ==> Input File <==

--------------------------------------------------------------------------
set {
	reference rhf
	basis cc-pvtz
}

set_num_threads( 4 )
memory 2 gb

molecule MOL {
0 1

H	 -1.150774	 0.161640	 0.788060
N	 -0.712187	 0.000026	 -0.093397
C	 0.734067	 -0.000020	 0.038424
H	 -1.014284	 0.724521	 -0.709262
H	 1.140372	 -0.872115	 -0.458226
H	 1.140363	 0.872301	 -0.457869
H	 1.095085	 -0.000244	 1.065614

	symmetry c1
}
set optking {
	frozen_dihedral = ("
		1 2 3 7
	")
}

ee = optimize('scf')
oeprop('DIPOLE', 'QUADRUPOLE', 'MULLIKEN_CHARGES')
f=open( 'psi4out.xyz', 'w' )
f.write( "7  " )
f.write( str(ee) + "\n" )
f.write( MOL.save_string_xyz() )
f.close()
--------------------------------------------------------------------------

    Molecular point group: c1
  Charge       = 0
  Multiplicity = 1
  Basis Set: CC-PVTZ
  Basis Set:
  @DF-RHF Final Energy:   -95.24967551236617
    Total Energy =                        -95.2496755123661671
    Molecular point group: c1
  Basis Set: CC-PVTZ
  Basis Set:
  Basis Set: CC-PVTZ
  Basis Set:
  @DF-RHF Final Energy:   -95.25050783993916
    Total Energy =                        -95.2505078399391749
  Basis Set: CC-PVTZ
  Basis Set:
  Basis Set: CC-PVTZ
  Basis Set:
  @DF-RHF Final Energy:   -95.25065495997336
    Total Energy =                        -95.2506549599733887
  Basis Set: CC-PVTZ
  Basis Set:
  Basis Set: CC-PVTZ
  Basis Set:
  @DF-RHF Final Energy:   -95.25066182529594
    Total Energy =                        -95.2506618252959214
  Basis Set: CC-PVTZ
  Basis Set:
  Charge       = 0
  Multiplicity = 1
  Basis Set: CC-PVTZ
  Basis Set:

    Orbital Energies (a.u.)
    -----------------------

    Doubly Occupied:

       1A    -15.525572     2A    -11.235520     3A     -1.168681
       4A     -0.897867     5A     -0.666868     6A     -0.600184
       7A     -0.561648     8A     -0.517539     9A     -0.381904

  @DF-RHF Final Energy:   -95.25066275630678

   => Energetics <=

    Nuclear Repulsion Energy =             42.3197086703846708
    One-Electron Energy =                -212.0291791590583443
    Two-Electron Energy =                  74.4588077323668927
    DFT Exchange-Correlation Energy =       0.0000000000000000
    Empirical Dispersion Energy =           0.0000000000000000
    PCM Polarization Energy =               0.0000000000000000
    EFP Energy =                            0.0000000000000000
    Total Energy =                        -95.2506627563067809
    Molecular point group: c1
  Basis Set: CC-PVTZ
  Basis Set:

  -Total Gradient:
     Atom            X                  Y                   Z
    ------   -----------------  -----------------  -----------------
       1       -0.000041733632    -0.001496585557     0.000244591164
       2       -0.000076375894     0.002285707173    -0.000321199870
       3        0.000128154393    -0.002225974108     0.000060517162
       4       -0.000001349942    -0.000006232119     0.000008671702
       5        0.000002532253     0.000034542820    -0.000001892415
       6       -0.000020592723    -0.000000521491     0.000006028495
       7        0.000009365546     0.001409063283     0.000003283763

  **** Optimization is complete! (in 5 steps) ****
    Final optimized geometry and variables:
    Molecular point group: c1

    Geometry (in Angstrom), charge = 0, multiplicity = 1:

    H           -1.148397291617     0.134377199178     0.825135826063
    N           -0.717292399913    -0.023097379904    -0.057411605013
    C            0.736609245189    -0.031360559186     0.038377427831
    H           -1.049456215657     0.665982045170    -0.693573684025
    H            1.151016491797    -0.909354353051    -0.442952468235
    H            1.187802318245     0.842184811056    -0.421732561767
    H            1.054666457151    -0.038861810042     1.073866378987

  Mulliken Charges: (a.u.)
   Center  Symbol    Alpha    Beta     Spin     Total
       1     H     0.42624  0.42624  0.00000  0.14751
       2     N     3.69033  3.69033  0.00000 -0.38066
       3     C     3.06844  3.06844  0.00000 -0.13688
       4     H     0.42669  0.42669  0.00000  0.14663
       5     H     0.46107  0.46107  0.00000  0.07787
       6     H     0.46587  0.46587  0.00000  0.06826
       7     H     0.46136  0.46136  0.00000  0.07728

   Total alpha =  9.00000, Total beta =  9.00000, Total charge = -0.00000
