                              Psi4 1.0.54 Driver

  ==> Input File <==

--------------------------------------------------------------------------
set {
	reference rhf
	basis cc-pvtz
}

set_num_threads( 4 )
memory 2 gb

molecule MOL {
0 1

H	 3.721907	 -0.933076	 -0.066039
O	 2.824271	 -1.154299	 0.131461
C	 2.076458	 -0.067370	 -0.038225
C	 0.626018	 -0.337582	 0.258241
O	 2.538288	 0.965419	 -0.381593
C	 -0.267326	 0.883135	 0.076490
H	 0.325620	 -1.161483	 -0.378003
H	 0.574537	 -0.713685	 1.275261
C	 -1.726822	 0.642622	 0.463839
H	 -0.210803	 1.217591	 -0.953497
H	 0.129920	 1.693110	 0.675679
C	 -2.008604	 -0.706866	 1.122263
H	 -2.330532	 0.720546	 -0.435447
H	 -2.063471	 1.440729	 1.121973
C	 -3.493113	 -0.933084	 1.389723
H	 -1.633038	 -1.500911	 0.482360
H	 -1.466775	 -0.787160	 2.059242
H	 -3.665848	 -1.896880	 1.854420
H	 -4.065547	 -0.902010	 0.468826
H	 -3.891797	 -0.171008	 2.051120

	symmetry c1
}
set optking {
	frozen_dihedral = ("
		12 9 6 10
	")
}

ee,wfn = optimize('scf', return_wfn=True)
oeprop( wfn, 'DIPOLE', 'QUADRUPOLE', 'MULLIKEN_CHARGES')
f=open( 'psi4out.xyz', 'w' )
f.write( "20  " )
f.write( str(ee) + "\n" )
f.write( MOL.save_string_xyz() )
f.close()
--------------------------------------------------------------------------

    Molecular point group: c1
  Charge       = 0
  Multiplicity = 1
  Basis Set: CC-PVTZ
  Basis Set:
  @DF-RHF Final Energy:  -384.08451534919294
    Total Energy =                       -384.0845153491933388
    Molecular point group: c1
  Basis Set: CC-PVTZ
  Basis Set:
  Basis Set: CC-PVTZ
  Basis Set:
  @DF-RHF Final Energy:  -383.80944430872125
    Total Energy =                       -383.8094443087210834
  Basis Set: CC-PVTZ
  Basis Set:
  Basis Set: CC-PVTZ
  Basis Set:
  @DF-RHF Final Energy:  -383.96113247587061
    Total Energy =                       -383.9611324758704995
  Basis Set: CC-PVTZ
  Basis Set:
  Basis Set: CC-PVTZ
  Basis Set:
  @DF-RHF Final Energy:  -384.06659823599244
    Total Energy =                       -384.0665982359921600
  Basis Set: CC-PVTZ
  Basis Set:
  @DF-RHF Final Energy:  -384.08368512503256
    Total Energy =                       -384.0836851250326163
  @DF-RHF Final Energy:  -384.08629460091151
    Total Energy =                       -384.0862946009112306
  @DF-RHF Final Energy:  -384.08672243382830
    Total Energy =                       -384.0867224338280721
  @DF-RHF Final Energy:  -384.08590057759801
    Total Energy =                       -384.0859005775976129
  Basis Set: CC-PVTZ
  Basis Set:
  @DF-RHF Final Energy:  -384.08675654796775
    Total Energy =                       -384.0867565479678660
  Basis Set: CC-PVTZ
  Basis Set:
  Basis Set: CC-PVTZ
  Basis Set:
  @DF-RHF Final Energy:  -384.08676739758687
    Total Energy =                       -384.0867673975862999
  Basis Set: CC-PVTZ
  Basis Set:
  Basis Set: CC-PVTZ
  Basis Set:
  @DF-RHF Final Energy:  -384.08676775923681
    Total Energy =                       -384.0867677592370910
  Basis Set: CC-PVTZ
  Basis Set:
  Charge       = 0
  Multiplicity = 1
  Basis Set: CC-PVTZ
  Basis Set:

    Orbital Energies (a.u.)
    -----------------------

    Doubly Occupied:

       1A    -20.603420     2A    -20.540208     3A    -11.372959
       4A    -11.238386     5A    -11.221121     6A    -11.219752
       7A    -11.218398     8A    -11.210841     9A     -1.477069
      10A     -1.368581    11A     -1.094250    12A     -1.041924
      13A     -0.960794    14A     -0.871841    15A     -0.823343
      16A     -0.768495    17A     -0.703362    18A     -0.690771
      19A     -0.672184    20A     -0.639530    21A     -0.598085
      22A     -0.594544    23A     -0.582245    24A     -0.548904
      25A     -0.542882    26A     -0.519304    27A     -0.499963
      28A     -0.483921    29A     -0.470955    30A     -0.460420
      31A     -0.454377    32A     -0.446701

  @DF-RHF Final Energy:  -384.08677185791640

   => Energetics <=

    Nuclear Repulsion Energy =            377.4273352106191055
    One-Electron Energy =               -1271.1491586047425244
    Two-Electron Energy =                 509.6350515362071292
    DFT Exchange-Correlation Energy =       0.0000000000000000
    Empirical Dispersion Energy =           0.0000000000000000
    PCM Polarization Energy =               0.0000000000000000
    EFP Energy =                            0.0000000000000000
    Total Energy =                       -384.0867718579163466
    Molecular point group: c1
  Basis Set: CC-PVTZ
  Basis Set:

  -Total Gradient:
     Atom            X                  Y                   Z
    ------   -----------------  -----------------  -----------------
       1       -0.000029054567     0.000003391986     0.000021942667
       2        0.000041691808    -0.000022395302    -0.000018862769
       3       -0.000022619806     0.000077257779    -0.000027555086
       4        0.000030119959    -0.000008053162     0.000009978819
       5        0.000000349655    -0.000059265168     0.000026607812
       6       -0.000553495566     0.002927397971    -0.000000500522
       7       -0.000011708301    -0.000011066246    -0.000007736085
       8        0.000004299954    -0.000008720831     0.000010861103
       9        0.001737577868     0.001052676035     0.001882107329
      10       -0.000029595486    -0.002803288015    -0.000511213105
      11        0.000003079939     0.000013298213     0.000010381928
      12       -0.001174554227    -0.001163064237    -0.001387690933
      13       -0.000010173420     0.000000630821    -0.000012605616
      14        0.000015129907     0.000015301910    -0.000004298960
      15       -0.000005627730    -0.000000770818     0.000006356003
      16        0.000002213676    -0.000016384287    -0.000012465650
      17        0.000011598805    -0.000000229417     0.000008967421
      18        0.000000059339     0.000005792982     0.000002314541
      19       -0.000012075168    -0.000005461017    -0.000006258163
      20        0.000002783357     0.000002950799     0.000009669269

  **** Optimization is complete! (in 12 steps) ****
    Final optimized geometry and variables:
    Molecular point group: c1

    Geometry (in Angstrom), charge = 0, multiplicity = 1:

    H            2.917951171028    -0.820643975914    -2.269610891708
    O            2.309414644412    -1.033308847376    -1.578163926629
    C            1.474420181564    -0.008901901133    -1.423851102158
    C            0.468564229316    -0.272974143118    -0.335216672898
    O            1.551648638677     0.968443965991    -2.084743707704
    C           -0.501261682483     0.887756389483    -0.131418740307
    H           -0.045021850876    -1.189031087587    -0.603690994528
    H            1.032550755950    -0.500905405521     0.561107364673
    C           -1.577350973097     0.691944795341     0.967854183177
    H           -0.992279713296     1.061413027310    -1.079730431057
    H            0.077670000617     1.777889385264     0.075037342588
    C           -1.451767545149    -0.526992100240     1.883336866366
    H           -2.551129873318     0.641423811730     0.490906982671
    H           -1.603317277603     1.582042738607     1.587179695224
    C           -2.574871762436    -0.584256919660     2.914178689749
    H           -1.466157293608    -1.439193862514     1.296438445316
    H           -0.498410423357    -0.510289338810     2.403043386840
    H           -2.475383824281    -1.453758719942     3.553542862553
    H           -3.545605513788    -0.636674903387     2.432608010257
    H           -2.569335683921     0.295651164307     3.548599773969

  Mulliken Charges: (a.u.)
   Center  Symbol    Alpha    Beta     Spin     Total
       1     H     0.38257  0.38257  0.00000  0.23486
       2     O     4.15941  4.15941  0.00000 -0.31882
       3     C     2.80959  2.80959  0.00000  0.38083
       4     C     3.11413  3.11413  0.00000 -0.22826
       5     O     4.19114  4.19114  0.00000 -0.38229
       6     C     3.09051  3.09051  0.00000 -0.18102
       7     H     0.43622  0.43622  0.00000  0.12756
       8     H     0.43519  0.43519  0.00000  0.12963
       9     C     3.09474  3.09474  0.00000 -0.18948
      10     H     0.44241  0.44241  0.00000  0.11519
      11     H     0.44262  0.44262  0.00000  0.11476
      12     C     3.09049  3.09049  0.00000 -0.18098
      13     H     0.45089  0.45089  0.00000  0.09822
      14     H     0.44863  0.44863  0.00000  0.10275
      15     C     3.15098  3.15098  0.00000 -0.30195
      16     H     0.45229  0.45229  0.00000  0.09542
      17     H     0.45248  0.45248  0.00000  0.09504
      18     H     0.44740  0.44740  0.00000  0.10521
      19     H     0.45440  0.45440  0.00000  0.09121
      20     H     0.45393  0.45393  0.00000  0.09214

   Total alpha = 32.00000, Total beta = 32.00000, Total charge = -0.00000

*** Psi4 exiting successfully. Buy a developer a beer!
