  ==> Input File <==

--------------------------------------------------------------------------
set {
	reference rhf
	basis 6-31G*
}

set_num_threads( 4 )
memory 2 gb

molecule MOL {
0 1

O	 0.989559	 0.273198	 0.937964
C	 1.705091	 0.115954	 0.001797
C	 1.596730	 0.840016	 -1.317998
O	 2.721346	 -0.737485	 -0.000216
C	 0.443334	 1.837351	 -1.369423
H	 2.549516	 1.330235	 -1.498547
H	 1.500522	 0.086360	 -2.094829
C	 0.357618	 2.556636	 -2.716399
H	 0.561959	 2.562704	 -0.570687
H	 -0.488201	 1.317476	 -1.168722
C	 -0.793515	 3.561635	 -2.785175
H	 1.295958	 3.073025	 -2.913516
H	 0.241126	 1.823790	 -3.513423
C	 -0.879396	 4.279118	 -4.131687
H	 -0.677214	 4.295935	 -1.991187
H	 -1.731643	 3.047143	 -2.589342
H	 0.032165	 4.831969	 -4.340559
H	 -1.704694	 4.984116	 -4.149350
H	 -1.030197	 3.573139	 -4.943575
C	 4.024888	 -0.184556	 -0.001949
H	 4.179030	 0.422472	 -0.882452
H	 4.701782	 -1.024608	 -0.003642
H	 4.181981	 0.421185	 0.878906

	symmetry c1
}
set optking {
	frozen_dihedral = ("
		1 2 4 20
	")
}

ee = optimize('scf')
oeprop('DIPOLE', 'QUADRUPOLE', 'MULLIKEN_CHARGES')
f=open( 'psi4out.xyz', 'w' )
f.write( "23  " )
f.write( str(ee) + "\n" )
f.write( MOL.save_string_xyz() )
f.close()
--------------------------------------------------------------------------

    Molecular point group: c1
  Charge       = 0
  Multiplicity = 1
  Basis Set: 6-31G*
  Basis Set:
  @DF-RHF Final Energy:  -422.95189741341045
    Total Energy =                       -422.9518974134103928
    Molecular point group: c1
  Basis Set: 6-31G*
  Basis Set:
  Basis Set: 6-31G*
  Basis Set:
  @DF-RHF Final Energy:  -422.95104309296596
    Total Energy =                       -422.9510430929660743
  Basis Set: 6-31G*
  Basis Set:
  Basis Set: 6-31G*
  Basis Set:
  @DF-RHF Final Energy:  -422.95393002352137
    Total Energy =                       -422.9539300235213659
  Basis Set: 6-31G*
  Basis Set:
  Basis Set: 6-31G*
  Basis Set:
  @DF-RHF Final Energy:  -422.95510921120234
    Total Energy =                       -422.9551092112023980
  Basis Set: 6-31G*
  Basis Set:
  Basis Set: 6-31G*
  Basis Set:
  @DF-RHF Final Energy:  -422.95517006092388
    Total Energy =                       -422.9551700609235922
  Basis Set: 6-31G*
  Basis Set:
  Basis Set: 6-31G*
  Basis Set:
  @DF-RHF Final Energy:  -422.95518285722886
    Total Energy =                       -422.9551828572280101
  Basis Set: 6-31G*
  Basis Set:
  Charge       = 0
  Multiplicity = 1
  Basis Set: 6-31G*
  Basis Set:

    Orbital Energies (a.u.)
    -----------------------

    Doubly Occupied:

       1A    -20.586943     2A    -20.555260     3A    -11.374886
       4A    -11.293767     5A    -11.241211     6A    -11.222740
       7A    -11.220918     8A    -11.218733     9A    -11.211600
      10A     -1.458507    11A     -1.367525    12A     -1.095312
      13A     -1.041495    14A     -0.981206    15A     -0.946615
      16A     -0.851826    17A     -0.798075    18A     -0.765388
      19A     -0.696575    20A     -0.677543    21A     -0.676488
      22A     -0.651324    23A     -0.620252    24A     -0.606466
      25A     -0.580106    26A     -0.568933    27A     -0.556929
      28A     -0.537905    29A     -0.510710    30A     -0.496450
      31A     -0.485062    32A     -0.480190    33A     -0.470941
      34A     -0.468212    35A     -0.449577    36A     -0.431913

  @DF-RHF Final Energy:  -422.95518376940390

   => Energetics <=

    Nuclear Repulsion Energy =            453.0516523742185200
    One-Electron Energy =               -1473.6185071421352859
    Two-Electron Energy =                 597.6116709985127500
    DFT Exchange-Correlation Energy =       0.0000000000000000
    Empirical Dispersion Energy =           0.0000000000000000
    PCM Polarization Energy =               0.0000000000000000
    EFP Energy =                            0.0000000000000000
    Total Energy =                       -422.9551837694040159
    Molecular point group: c1
  Basis Set: 6-31G*
  Basis Set:

  -Total Gradient:
     Atom            X                  Y                   Z
    ------   -----------------  -----------------  -----------------
       1        0.000388569201     0.000379321666     0.000257835666
       2       -0.000525509125    -0.000649907296    -0.000121747186
       3       -0.000007441968     0.000034556028     0.000032801170
       4        0.000216794217     0.000260532399    -0.000645912243
       5        0.000015349957    -0.000016632464    -0.000014871736
       6        0.000002722267    -0.000009983801    -0.000028680336
       7        0.000000935127    -0.000012343327    -0.000011910937
       8        0.000003593140     0.000002918761     0.000011814049
       9        0.000004530065     0.000006091687     0.000003978518
      10        0.000002224709     0.000009177774     0.000004735619
      11        0.000002123578    -0.000005894799    -0.000007606845
      12       -0.000004820541     0.000007697738     0.000003584281
      13        0.000009763149     0.000004089493    -0.000000335563
      14       -0.000013036486    -0.000001308324    -0.000003883347
      15        0.000003929885    -0.000000440507    -0.000004789860
      16       -0.000000667885     0.000002544327     0.000004361237
      17       -0.000001299702    -0.000001928964     0.000002945423
      18       -0.000002750370     0.000002616315    -0.000006065539
      19        0.000001498558     0.000001664001    -0.000000296919
      20       -0.000103893666    -0.000009934408     0.000544563977
      21       -0.000015919591    -0.000005842490    -0.000013349711
      22       -0.000002037455    -0.000008419126    -0.000010056457
      23        0.000025342936     0.000011425319     0.000002886733

  **** Optimization is complete! (in 7 steps) ****
    Final optimized geometry and variables:
    Molecular point group: c1

    Geometry (in Angstrom), charge = 0, multiplicity = 1:

    O           -0.132129793843    -1.069420750294     2.152337507564
    C            0.590830530594    -1.219235197833     1.230277202175
    C            0.465244173376    -0.480162507273    -0.083394788009
    O            1.574788706337    -2.146124398105     1.266951662210
    C           -0.716365370264     0.484423317510    -0.131050608801
    H            1.395414484206     0.049855628449    -0.272895324184
    H            0.391516225034    -1.232768062568    -0.864435136067
    C           -0.823024678662     1.207346557212    -1.474568567195
    H           -0.619061168211     1.208620652381     0.671681605814
    H           -1.631461899503    -0.064262120483     0.067021508148
    C           -2.007172250164     2.173446253442    -1.540734768405
    H            0.097686200251     1.756481801635    -1.667250093457
    H           -0.913352222168     0.475160517053    -2.275555711495
    C           -2.114350108097     2.894520541542    -2.883798838441
    H           -1.917321607050     2.907047044745    -0.742728948280
    H           -2.927643744309     1.626544409372    -1.349685502600
    H           -1.221572373505     3.479014331465    -3.087909679975
    H           -2.962889581717     3.571276583022    -2.899657763180
    H           -2.239691104330     2.188094174440    -3.699568937922
    C            2.913274307240    -1.708062676549     1.336786051211
    H            3.223655611736    -1.216000913055     0.422214948866
    H            3.514402076061    -2.591971723331     1.481886900192
    H            3.055430813969    -1.039036816657     2.177662890272

  Mulliken Charges: (a.u.)
   Center  Symbol    Alpha    Beta     Spin     Total
       1     O     4.25100  4.25100  0.00000 -0.50201
       2     C     2.61142  2.61142  0.00000  0.77717
       3     C     3.21955  3.21955  0.00000 -0.43909
       4     O     4.31384  4.31384  0.00000 -0.62768
       5     C     3.15146  3.15146  0.00000 -0.30292
       6     H     0.40746  0.40746  0.00000  0.18509
       7     H     0.39889  0.39889  0.00000  0.20221
       8     C     3.15340  3.15340  0.00000 -0.30681
       9     H     0.41174  0.41174  0.00000  0.17651
      10     H     0.40970  0.40970  0.00000  0.18060
      11     C     3.15175  3.15175  0.00000 -0.30351
      12     H     0.42512  0.42512  0.00000  0.14976
      13     H     0.42352  0.42352  0.00000  0.15296
      14     C     3.23967  3.23967  0.00000 -0.47935
      15     H     0.42121  0.42121  0.00000  0.15759
      16     H     0.42055  0.42055  0.00000  0.15889
      17     H     0.42206  0.42206  0.00000  0.15588
      18     H     0.41797  0.41797  0.00000  0.16405
      19     H     0.42157  0.42157  0.00000  0.15685
      20     C     3.09276  3.09276  0.00000 -0.18552
      21     H     0.42105  0.42105  0.00000  0.15790
      22     H     0.40094  0.40094  0.00000  0.19813
      23     H     0.41335  0.41335  0.00000  0.17330

   Total alpha = 36.00000, Total beta = 36.00000, Total charge =  0.00000
