  ==> Input File <==

--------------------------------------------------------------------------
set {
	reference rhf
	basis 6-31G*
}

set_num_threads( 1 )
memory 2 gb

molecule MOL {
0 1

H	 -3.791248	 1.168128	 -0.984978
O	 -3.452007	 0.283848	 -0.965577
C	 -3.181085	 -0.079926	 0.364119
C	 -1.765924	 0.277073	 0.805136
H	 -3.327791	 -1.152017	 0.410903
H	 -3.905698	 0.375695	 1.036898
C	 -0.677594	 -0.417312	 -0.014550
H	 -1.637766	 1.358238	 0.744969
H	 -1.659588	 0.017670	 1.857098
C	 0.738335	 -0.034840	 0.421385
H	 -0.814977	 -0.178223	 -1.064632
H	 -0.802730	 -1.495410	 0.071702
C	 1.822265	 -0.738362	 -0.399735
H	 0.853533	 1.043532	 0.342250
H	 0.871597	 -0.279636	 1.474438
C	 3.258060	 -0.455774	 0.057203
H	 1.718003	 -0.459167	 -1.447053
H	 1.651028	 -1.811884	 -0.354513
C	 3.709143	 0.994797	 -0.123830
H	 3.930637	 -1.101717	 -0.501982
H	 3.365259	 -0.739518	 1.102287
H	 3.601178	 1.310569	 -1.158127
H	 4.753787	 1.110486	 0.148516
H	 3.135362	 1.678896	 0.492569

	symmetry c1
}
set optking {
	frozen_dihedral = ("
		20 16 13 17,
		17 13 10 7,
		13 10 7 11,
		11 7 4 3,
		7 4 3 2
	")
}

ee = energy('scf')
oeprop('DIPOLE', 'QUADRUPOLE', 'MULLIKEN_CHARGES')
f=open( 'psi4out.xyz', 'w' )
f.write( "24  " )
f.write( str(ee) + "\n" )
f.write( MOL.save_string_xyz() )
f.close()
--------------------------------------------------------------------------

    Molecular point group: c1

    Geometry (in Angstrom), charge = 0, multiplicity = 1:

       Center              X                  Y                   Z               Mass
    ------------   -----------------  -----------------  -----------------  -----------------
           H         -3.788032055109     1.168642504306    -0.985492487482     1.007825032070
           O         -3.448791055109     0.284362504306    -0.966091487482    15.994914619560
           C         -3.177869055109    -0.079411495694     0.363604512518    12.000000000000
           C         -1.762708055109     0.277587504306     0.804621512518    12.000000000000
           H         -3.324575055109    -1.151502495694     0.410388512518     1.007825032070
           H         -3.902482055109     0.376209504306     1.036383512518     1.007825032070
           C         -0.674378055109    -0.416797495694    -0.015064487482    12.000000000000
           H         -1.634550055109     1.358752504306     0.744454512518     1.007825032070
           H         -1.656372055109     0.018184504306     1.856583512518     1.007825032070
           C          0.741550944891    -0.034325495694     0.420870512518    12.000000000000
           H         -0.811761055109    -0.177708495694    -1.065146487482     1.007825032070
           H         -0.799514055109    -1.494895495694     0.071187512518     1.007825032070
           C          1.825480944891    -0.737847495694    -0.400249487482    12.000000000000
           H          0.856748944891     1.044046504306     0.341735512518     1.007825032070
           H          0.874812944891    -0.279121495694     1.473923512518     1.007825032070
           C          3.261275944891    -0.455259495694     0.056688512518    12.000000000000
           H          1.721218944891    -0.458652495694    -1.447567487482     1.007825032070
           H          1.654243944891    -1.811369495694    -0.355027487482     1.007825032070
           C          3.712358944891     0.995311504306    -0.124344487482    12.000000000000
           H          3.933852944891    -1.101202495694    -0.502496487482     1.007825032070
           H          3.368474944891    -0.739003495694     1.101772512518     1.007825032070
           H          3.604393944891     1.311083504306    -1.158641487482     1.007825032070
           H          4.757002944891     1.111000504306     0.148001512518     1.007825032070
           H          3.138577944891     1.679410504306     0.492054512518     1.007825032070

  Charge       = 0
  Multiplicity = 1
  Basis Set: 6-31G*
  Basis Set:

    Orbital Energies (a.u.)
    -----------------------

    Doubly Occupied:

       1A    -20.553238     2A    -11.267833     3A    -11.214116
       4A    -11.212695     5A    -11.210342     6A    -11.209733
       7A    -11.208278     8A    -11.206086     9A     -1.359999
      10A     -1.086446    11A     -1.046564    12A     -0.984264
      13A     -0.913320    14A     -0.847581    15A     -0.797061
      16A     -0.774480    17A     -0.689036    18A     -0.651299
      19A     -0.623775    20A     -0.614931    21A     -0.589404
      22A     -0.582666    23A     -0.556933    24A     -0.539260
      25A     -0.516672    26A     -0.505122    27A     -0.497373
      28A     -0.474746    29A     -0.468000    30A     -0.454819
      31A     -0.453912    32A     -0.445929    33A     -0.418705

  @DF-RHF Final Energy:  -349.24677614035744

   => Energetics <=

    Nuclear Repulsion Energy =            384.1423881200641404
    One-Electron Energy =               -1234.8288830706114823
    Two-Electron Energy =                 501.4397188101913230
    DFT Exchange-Correlation Energy =       0.0000000000000000
    Empirical Dispersion Energy =           0.0000000000000000
    PCM Polarization Energy =               0.0000000000000000
    EFP Energy =                            0.0000000000000000
    Total Energy =                       -349.2467761403559621

  Mulliken Charges: (a.u.)
   Center  Symbol    Alpha    Beta     Spin     Total
       1     H     0.28158  0.28158  0.00000  0.43684
       2     O     4.36892  4.36892  0.00000 -0.73784
       3     C     3.00105  3.00105  0.00000 -0.00210
       4     C     3.16100  3.16100  0.00000 -0.32201
       5     H     0.41788  0.41788  0.00000  0.16423
       6     H     0.42880  0.42880  0.00000  0.14239
       7     C     3.15333  3.15333  0.00000 -0.30666
       8     H     0.42680  0.42680  0.00000  0.14639
       9     H     0.42470  0.42470  0.00000  0.15060
      10     C     3.15359  3.15359  0.00000 -0.30719
      11     H     0.40971  0.40971  0.00000  0.18058
      12     H     0.42482  0.42482  0.00000  0.15037
      13     C     3.15221  3.15221  0.00000 -0.30442
      14     H     0.42257  0.42257  0.00000  0.15486
      15     H     0.42601  0.42601  0.00000  0.14798
      16     C     3.15222  3.15222  0.00000 -0.30444
      17     H     0.42351  0.42351  0.00000  0.15299
      18     H     0.42240  0.42240  0.00000  0.15519
      19     C     3.24096  3.24096  0.00000 -0.48192
      20     H     0.42135  0.42135  0.00000  0.15731
      21     H     0.42399  0.42399  0.00000  0.15202
      22     H     0.42224  0.42224  0.00000  0.15552
      23     H     0.41985  0.41985  0.00000  0.16029
      24     H     0.42049  0.42049  0.00000  0.15901

   Total alpha = 33.00000, Total beta = 33.00000, Total charge = -0.00000
