  ==> Input File <==

--------------------------------------------------------------------------
set {
	reference rhf
	basis 6-31G*
}

set_num_threads( 4 )
memory 2 gb

molecule MOL {
0 1

H	 -2.698709	 -0.000305	 0.034435
C	 -1.693833	 0.000034	 0.434417
O	 -0.828952	 -0.000968	 -0.659236
H	 -1.574200	 0.882896	 1.055746
H	 -1.574147	 -0.881698	 1.057355
C	 0.074373	 1.070079	 -0.805401
C	 -0.632441	 2.405231	 -1.030568
C	 1.092441	 1.136612	 0.331292
H	 0.608093	 0.819792	 -1.714539
H	 -1.381816	 2.307632	 -1.808681
H	 0.085652	 3.157383	 -1.341768
H	 -1.117652	 2.770274	 -0.130858
H	 1.536390	 0.160832	 0.496281
H	 1.885728	 1.833265	 0.078637
H	 0.647580	 1.472959	 1.262318

	symmetry c1
}
set optking {
	frozen_dihedral = ("
		6 3 2 1
	")
}

ee = optimize('scf')
oeprop('DIPOLE', 'QUADRUPOLE', 'MULLIKEN_CHARGES')
f=open( 'psi4out.xyz', 'w' )
f.write( "15  " )
f.write( str(ee) + "\n" )
f.write( MOL.save_string_xyz() )
f.close()
--------------------------------------------------------------------------

    Molecular point group: c1
  Charge       = 0
  Multiplicity = 1
  Basis Set: 6-31G*
  Basis Set:
  @DF-RHF Final Energy:  -232.13456680691914
    Total Energy =                       -232.1345668069189969
    Molecular point group: c1
  Basis Set: 6-31G*
  Basis Set:
  Basis Set: 6-31G*
  Basis Set:
  @DF-RHF Final Energy:  -232.13518017748009
    Total Energy =                       -232.1351801774803221
  Basis Set: 6-31G*
  Basis Set:
  Basis Set: 6-31G*
  Basis Set:
  @DF-RHF Final Energy:  -232.13530803515775
    Total Energy =                       -232.1353080351576637
  Basis Set: 6-31G*
  Basis Set:
  Basis Set: 6-31G*
  Basis Set:
  @DF-RHF Final Energy:  -232.13529513752388
    Total Energy =                       -232.1352951375238263
  Basis Set: 6-31G*
  Basis Set:
  Basis Set: 6-31G*
  Basis Set:
  @DF-RHF Final Energy:  -232.13534736986816
    Total Energy =                       -232.1353473698681569
  Basis Set: 6-31G*
  Basis Set:
  Basis Set: 6-31G*
  Basis Set:
  @DF-RHF Final Energy:  -232.13534887452121
    Total Energy =                       -232.1353488745209006
  Basis Set: 6-31G*
  Basis Set:
  Charge       = 0
  Multiplicity = 1
  Basis Set: 6-31G*
  Basis Set:

    Orbital Energies (a.u.)
    -----------------------

    Doubly Occupied:

       1A    -20.545731     2A    -11.275011     3A    -11.261464
       4A    -11.210463     5A    -11.210423     6A     -1.367798
       7A     -1.049923     8A     -0.939755     9A     -0.931500
      10A     -0.781608    11A     -0.675719    12A     -0.638112
      13A     -0.631921    14A     -0.569016    15A     -0.563538
      16A     -0.552371    17A     -0.538587    18A     -0.500856
      19A     -0.497939    20A     -0.441674    21A     -0.402698

  @DF-RHF Final Energy:  -232.13534926115577

   => Energetics <=

    Nuclear Repulsion Energy =            198.5980872724777271
    One-Electron Energy =                -708.2946599064725888
    Two-Electron Energy =                 277.5612233728390379
    DFT Exchange-Correlation Energy =       0.0000000000000000
    Empirical Dispersion Energy =           0.0000000000000000
    PCM Polarization Energy =               0.0000000000000000
    EFP Energy =                            0.0000000000000000
    Total Energy =                       -232.1353492611557954
    Molecular point group: c1
  Basis Set: 6-31G*
  Basis Set:

  -Total Gradient:
     Atom            X                  Y                   Z
    ------   -----------------  -----------------  -----------------
       1        0.000003922014    -0.000075806376     0.000002457220
       2        0.000035809702     0.000127622778     0.000008971039
       3       -0.000061946731    -0.000010698310    -0.000078306449
       4       -0.000027786262    -0.000011414951     0.000017901693
       5        0.000013346554    -0.000000161208    -0.000012855159
       6        0.000017900035    -0.000039815278     0.000070062280
       7       -0.000001740468     0.000010031561    -0.000009279096
       8        0.000018038060     0.000003376310     0.000000020760
       9       -0.000012934068    -0.000012573290     0.000007477287
      10        0.000003399599     0.000003021924    -0.000003952130
      11        0.000001251609     0.000004482899     0.000001118481
      12       -0.000000573855    -0.000001274106    -0.000000436506
      13        0.000007459208     0.000000640594    -0.000002655631
      14        0.000000128490     0.000002009107     0.000002991810
      15        0.000003726116     0.000000558348    -0.000003515600

  **** Optimization is complete! (in 7 steps) ****
    Final optimized geometry and variables:
    Molecular point group: c1

    Geometry (in Angstrom), charge = 0, multiplicity = 1:

    H           -2.315197233687    -0.910502246659     0.412535224663
    C           -1.291206350235    -0.909226963289     0.770592394377
    O           -0.416203441778    -0.912233992059    -0.320533416764
    H           -1.161621338209    -0.050875152078     1.418550930778
    H           -1.131931897306    -1.804831585612     1.361425773924
    C            0.493641806190     0.150812063198    -0.477243545601
    C           -0.209960662690     1.485021847300    -0.716599622902
    C            1.512428880977     0.213469815286     0.658814398600
    H            1.025636211115    -0.109916700569    -1.384320527324
    H           -0.927958107808     1.388277372326    -1.523615163517
    H            0.512460330496     2.247258673882    -0.991958710977
    H           -0.735040272231     1.835814378328     0.166338392301
    H            1.976948843889    -0.756754939798     0.796728202391
    H            2.290275825462     0.934569734592     0.427093522771
    H            1.060076739727     0.511442950899     1.599504563680

  Mulliken Charges: (a.u.)
   Center  Symbol    Alpha    Beta     Spin     Total
       1     H     0.42060  0.42060  0.00000  0.15881
       2     C     3.07869  3.07869  0.00000 -0.15738
       3     O     4.31557  4.31557  0.00000 -0.63114
       4     H     0.42963  0.42963  0.00000  0.14075
       5     H     0.42033  0.42033  0.00000  0.15935
       6     C     2.90995  2.90995  0.00000  0.18009
       7     C     3.25109  3.25109  0.00000 -0.50219
       8     C     3.25100  3.25100  0.00000 -0.50201
       9     H     0.41548  0.41548  0.00000  0.16904
      10     H     0.41164  0.41164  0.00000  0.17671
      11     H     0.42002  0.42002  0.00000  0.15995
      12     H     0.42214  0.42214  0.00000  0.15572
      13     H     0.41163  0.41163  0.00000  0.17673
      14     H     0.42007  0.42007  0.00000  0.15986
      15     H     0.42215  0.42215  0.00000  0.15570

   Total alpha = 21.00000, Total beta = 21.00000, Total charge = -0.00000
