  ==> Input File <==

--------------------------------------------------------------------------
set {
	reference rhf
	basis 6-31G*
}

set_num_threads( 4 )
memory 2 gb

molecule MOL {
0 1

O	 -2.324811	 1.361668	 -0.277141
C	 -2.105949	 0.203097	 -0.092081
C	 -0.889235	 -0.467034	 -0.705952
C	 -3.002726	 -0.644460	 0.782455
C	 -0.360270	 0.344647	 -1.899480
H	 -1.191885	 -1.452142	 -1.043988
H	 -0.105456	 -0.589972	 0.036075
C	 0.847873	 -0.320785	 -2.562961
H	 -1.168860	 0.464818	 -2.611608
H	 -0.081814	 1.343943	 -1.568396
C	 1.459092	 0.482481	 -3.716751
H	 0.560028	 -1.306297	 -2.924400
H	 1.615721	 -0.484484	 -1.809661
C	 0.550125	 0.630391	 -4.938184
H	 2.379986	 -0.006914	 -4.023570
H	 1.745704	 1.468353	 -3.356198
H	 0.239669	 -0.340969	 -5.313419
H	 1.067745	 1.144221	 -5.742204
H	 -0.345524	 1.199442	 -4.712832
H	 -3.496582	 -1.399307	 0.176174
H	 -3.747939	 -0.023774	 1.260148
H	 -2.421318	 -1.168775	 1.535358

	symmetry c1
}
set optking {
	frozen_dihedral = ("
		6 3 2 1
	")
}

ee = optimize('scf')
oeprop('DIPOLE', 'QUADRUPOLE', 'MULLIKEN_CHARGES')
f=open( 'psi4out.xyz', 'w' )
f.write( "22  " )
f.write( str(ee) + "\n" )
f.write( MOL.save_string_xyz() )
f.close()
--------------------------------------------------------------------------

    Molecular point group: c1
  Charge       = 0
  Multiplicity = 1
  Basis Set: 6-31G*
  Basis Set:
  @DF-RHF Final Energy:  -348.09878412591053
    Total Energy =                       -348.0987841259106403
    Molecular point group: c1
  Basis Set: 6-31G*
  Basis Set:
  Basis Set: 6-31G*
  Basis Set:
  @DF-RHF Final Energy:  -348.09939788437367
    Total Energy =                       -348.0993978843736159
  Basis Set: 6-31G*
  Basis Set:
  Basis Set: 6-31G*
  Basis Set:
  @DF-RHF Final Energy:  -348.09909091632255
    Total Energy =                       -348.0990909163226661
  Basis Set: 6-31G*
  Basis Set:
  Basis Set: 6-31G*
  Basis Set:
  @DF-RHF Final Energy:  -348.10011042837829
    Total Energy =                       -348.1001104283789118
  Basis Set: 6-31G*
  Basis Set:
  @DF-RHF Final Energy:  -348.09983036686594
    Total Energy =                       -348.0998303668658309
  @DF-RHF Final Energy:  -348.09998306336655
    Total Energy =                       -348.0999830633665511
  Basis Set: 6-31G*
  Basis Set:
  @DF-RHF Final Energy:  -348.10012445463099
    Total Energy =                       -348.1001244546309294
  Basis Set: 6-31G*
  Basis Set:
  Basis Set: 6-31G*
  Basis Set:
  @DF-RHF Final Energy:  -348.10012242226946
    Total Energy =                       -348.1001224222693509
  Basis Set: 6-31G*
  Basis Set:
  Basis Set: 6-31G*
  Basis Set:
  @DF-RHF Final Energy:  -348.10012551677050
    Total Energy =                       -348.1001255167702766
  Basis Set: 6-31G*
  Basis Set:
  Charge       = 0
  Multiplicity = 1
  Basis Set: 6-31G*
  Basis Set:

    Orbital Energies (a.u.)
    -----------------------

    Doubly Occupied:

       1A    -20.549909     2A    -11.326362     3A    -11.231965
       4A    -11.228537     5A    -11.217742     6A    -11.217055
       7A    -11.216335     8A    -11.208144     9A     -1.395460
      10A     -1.090700    11A     -1.042982    12A     -1.000977
      13A     -0.935057    14A     -0.854489    15A     -0.781555
      16A     -0.730936    17A     -0.654374    18A     -0.651000
      19A     -0.629993    20A     -0.611352    21A     -0.602790
      22A     -0.580189    23A     -0.558800    24A     -0.548458
      25A     -0.522119    26A     -0.514147    27A     -0.497670
      28A     -0.482760    29A     -0.464380    30A     -0.462093
      31A     -0.458440    32A     -0.399319

  @DF-RHF Final Energy:  -348.10012583115252

   => Energetics <=

    Nuclear Repulsion Energy =            372.2957540444297706
    One-Electron Energy =               -1209.4595867851708135
    Two-Electron Energy =                 489.0637069095884044
    DFT Exchange-Correlation Energy =       0.0000000000000000
    Empirical Dispersion Energy =           0.0000000000000000
    PCM Polarization Energy =               0.0000000000000000
    EFP Energy =                            0.0000000000000000
    Total Energy =                       -348.1001258311526954
    Molecular point group: c1
  Basis Set: 6-31G*
  Basis Set:

  -Total Gradient:
     Atom            X                  Y                   Z
    ------   -----------------  -----------------  -----------------
       1        0.000478721707     0.000216157855     0.000615295105
       2       -0.000625253062    -0.000324086459    -0.000698393668
       3       -0.000056352922     0.000439268196    -0.000645115658
       4        0.000023795421    -0.000011720165     0.000024638069
       5       -0.000033493858    -0.000004039730    -0.000002794690
       6        0.000265002616    -0.000296492681     0.000711044825
       7       -0.000042564147     0.000004083817    -0.000021234280
       8        0.000000830204    -0.000005946204     0.000008704449
       9       -0.000008576658     0.000011850506     0.000003199479
      10       -0.000002092593    -0.000010811129     0.000024803760
      11       -0.000016036298     0.000000989011     0.000000620600
      12       -0.000003124608    -0.000000191330     0.000009696403
      13        0.000031205864    -0.000004379104    -0.000015437782
      14        0.000000727704    -0.000000659436    -0.000002158309
      15        0.000007148099     0.000001473741     0.000006147949
      16       -0.000011622928     0.000000714968     0.000001757047
      17       -0.000004730042    -0.000002053320     0.000001677272
      18        0.000005317439    -0.000005995621     0.000001116510
      19        0.000009332534     0.000002851025    -0.000004156587
      20       -0.000008753085     0.000000185131    -0.000002272003
      21       -0.000002858918    -0.000000889449    -0.000016162092
      22       -0.000006622466    -0.000010309623    -0.000000976400

  **** Optimization is complete! (in 10 steps) ****
    Final optimized geometry and variables:
    Molecular point group: c1

    Geometry (in Angstrom), charge = 0, multiplicity = 1:

    O           -1.678352527670     1.151500705632     1.414834799831
    C           -1.393434114770     0.007727488873     1.598093702894
    C           -0.200022080456    -0.645308727901     0.924269826464
    C           -2.199573989256    -0.866611250006     2.535465226136
    C            0.363017678955     0.149767131131    -0.250671503779
    H           -0.474759616483    -1.654049211721     0.622251308668
    H            0.561082726984    -0.774198583779     1.694224093820
    C            1.579335105077    -0.532633494990    -0.881585028931
    H           -0.420738716443     0.286396312372    -0.988333199487
    H            0.632798431363     1.143096240001     0.091924106738
    C            2.235006725456     0.264076791238    -2.015319662820
    H            1.293735596694    -1.515419945638    -1.254509631099
    H            2.324964319576    -0.707501297141    -0.108107853986
    C            1.363196213849     0.430077437429    -3.261288287945
    H            3.157154680631    -0.237390856865    -2.298605239521
    H            2.524430416686     1.244557528018    -1.643365102756
    H            1.046305881254    -0.535231435061    -3.647387166099
    H            1.912037551430     0.935735394839    -4.049721563978
    H            0.472474740642     1.015187672792    -3.059109599348
    H           -2.746935597094    -1.608754898440     1.960463550395
    H           -2.901425267396    -0.260056887321     3.090800876714
    H           -1.551939794826    -1.403810857254     3.221571384923

  Mulliken Charges: (a.u.)
   Center  Symbol    Alpha    Beta     Spin     Total
       1     O     4.26210  4.26210  0.00000 -0.52419
       2     C     2.73454  2.73454  0.00000  0.53093
       3     C     3.21090  3.21090  0.00000 -0.42180
       4     C     3.28725  3.28725  0.00000 -0.57451
       5     C     3.15086  3.15086  0.00000 -0.30172
       6     H     0.41233  0.41233  0.00000  0.17534
       7     H     0.40713  0.40713  0.00000  0.18573
       8     C     3.15440  3.15440  0.00000 -0.30881
       9     H     0.41383  0.41383  0.00000  0.17234
      10     H     0.40855  0.40855  0.00000  0.18290
      11     C     3.15231  3.15231  0.00000 -0.30462
      12     H     0.42536  0.42536  0.00000  0.14928
      13     H     0.42316  0.42316  0.00000  0.15368
      14     C     3.24210  3.24210  0.00000 -0.48419
      15     H     0.42102  0.42102  0.00000  0.15797
      16     H     0.42137  0.42137  0.00000  0.15725
      17     H     0.42307  0.42307  0.00000  0.15385
      18     H     0.41869  0.41869  0.00000  0.16263
      19     H     0.41745  0.41745  0.00000  0.16510
      20     H     0.40653  0.40653  0.00000  0.18694
      21     H     0.39674  0.39674  0.00000  0.20652
      22     H     0.41032  0.41032  0.00000  0.17937

   Total alpha = 32.00000, Total beta = 32.00000, Total charge =  0.00000
