  ==> Input File <==

--------------------------------------------------------------------------
set {
	reference rhf
	basis 6-31G*
}

set_num_threads( 1 )
memory 2 gb

molecule MOL {
0 1

H	 0.044964	 -1.737361	 -0.081435
C	 -1.010097	 -1.547085	 0.105060
O	 -1.392607	 -0.295399	 -0.366433
H	 -1.597512	 -2.287097	 -0.420741
H	 -1.194879	 -1.646309	 1.173909
C	 -0.719715	 0.768384	 0.229244
C	 0.719720	 0.768376	 -0.229267
H	 -1.185038	 1.714362	 -0.050570
H	 -0.750528	 0.687237	 1.313896
O	 1.392611	 -0.295398	 0.366430
H	 0.750534	 0.687200	 -1.313918
H	 1.185043	 1.714359	 0.050526
C	 2.706965	 -0.449871	 -0.062409
H	 2.756559	 -0.644779	 -1.131878
H	 3.305899	 0.433456	 0.155466
H	 3.125548	 -1.294566	 0.467107

	symmetry c1
}
set optking {
	frozen_dihedral = ("
		3 6 7 11,
		7 10 13 14
	")
}

ee = energy('scf')
oeprop('DIPOLE', 'QUADRUPOLE', 'MULLIKEN_CHARGES')
f=open( 'psi4out.xyz', 'w' )
f.write( "16  " )
f.write( str(ee) + "\n" )
f.write( MOL.save_string_xyz() )
f.close()
--------------------------------------------------------------------------

    Molecular point group: c1

    Geometry (in Angstrom), charge = 0, multiplicity = 1:

       Center              X                  Y                   Z               Mass
    ------------   -----------------  -----------------  -----------------  -----------------
           H         -0.253183000960    -1.544571608294    -0.088930668903     1.007825032070
           C         -1.308244000960    -1.354295608294     0.097564331097    12.000000000000
           O         -1.690754000960    -0.102609608294    -0.373928668903    15.994914619560
           H         -1.895659000960    -2.094307608294    -0.428236668903     1.007825032070
           H         -1.493026000960    -1.453519608294     1.166413331097     1.007825032070
           C         -1.017862000960     0.961173391706     0.221748331097    12.000000000000
           C          0.421572999040     0.961165391706    -0.236762668903    12.000000000000
           H         -1.483185000960     1.907151391706    -0.058065668903     1.007825032070
           H         -1.048675000960     0.880026391706     1.306400331097     1.007825032070
           O          1.094463999040    -0.102608608294     0.358934331097    15.994914619560
           H          0.452386999040     0.879989391706    -1.321413668903     1.007825032070
           H          0.886895999040     1.907148391706     0.043030331097     1.007825032070
           C          2.408817999040    -0.257081608294    -0.069904668903    12.000000000000
           H          2.458411999040    -0.451989608294    -1.139373668903     1.007825032070
           H          3.007751999040     0.626245391706     0.147970331097     1.007825032070
           H          2.827400999040    -1.101776608294     0.459611331097     1.007825032070

  Charge       = 0
  Multiplicity = 1
  Basis Set: 6-31G*
  Basis Set:

    Orbital Energies (a.u.)
    -----------------------

    Doubly Occupied:

       1A    -20.563978     2A    -20.547450     3A    -11.272374
       4A    -11.270116     5A    -11.268312     6A    -11.243785
       7A     -1.398189     8A     -1.369029     9A     -1.028844
      10A     -0.945230    11A     -0.886467    12A     -0.823222
      13A     -0.699767    14A     -0.683215    15A     -0.657822
      16A     -0.628512    17A     -0.623864    18A     -0.593048
      19A     -0.552885    20A     -0.527833    21A     -0.524300
      22A     -0.490374    23A     -0.457386    24A     -0.430092
      25A     -0.391298

  @DF-RHF Final Energy:  -306.96921200268054

   => Energetics <=

    Nuclear Repulsion Energy =            269.1787923352258645
    One-Electron Energy =                -952.5411909395588737
    Two-Electron Energy =                 376.3931866016528716
    DFT Exchange-Correlation Energy =       0.0000000000000000
    Empirical Dispersion Energy =           0.0000000000000000
    PCM Polarization Energy =               0.0000000000000000
    EFP Energy =                            0.0000000000000000
    Total Energy =                       -306.9692120026801945

  Mulliken Charges: (a.u.)
   Center  Symbol    Alpha    Beta     Spin     Total
       1     H     0.40592  0.40592  0.00000  0.18816
       2     C     3.08646  3.08646  0.00000 -0.17292
       3     O     4.30498  4.30498  0.00000 -0.60997
       4     H     0.42033  0.42033  0.00000  0.15934
       5     H     0.43334  0.43334  0.00000  0.13331
       6     C     3.00452  3.00452  0.00000 -0.00903
       7     C     3.00107  3.00107  0.00000 -0.00215
       8     H     0.41404  0.41404  0.00000  0.17193
       9     H     0.42248  0.42248  0.00000  0.15503
      10     O     4.30576  4.30576  0.00000 -0.61151
      11     H     0.42228  0.42228  0.00000  0.15545
      12     H     0.43152  0.43152  0.00000  0.13695
      13     C     3.08187  3.08187  0.00000 -0.16374
      14     H     0.42700  0.42700  0.00000  0.14599
      15     H     0.42746  0.42746  0.00000  0.14508
      16     H     0.41096  0.41096  0.00000  0.17808

   Total alpha = 25.00000, Total beta = 25.00000, Total charge =  0.00000
