  ==> Input File <==

--------------------------------------------------------------------------
set {
	reference rhf
	basis 6-31G*
}

set_num_threads( 1 )
memory 2 gb

molecule MOL {
0 1

O	 0.873565	 -3.574119	 -3.959254
C	 0.772686	 -2.384988	 -3.944267
C	 0.534593	 -1.640282	 -2.642334
C	 0.907855	 -1.560808	 -5.205152
C	 1.841928	 -1.495683	 -1.846654
H	 -0.180733	 -2.212871	 -2.062028
H	 0.106911	 -0.660508	 -2.835095
C	 1.631333	 -0.777471	 -0.511575
H	 2.251734	 -2.486566	 -1.686669
H	 2.571924	 -0.945304	 -2.438208
C	 2.915987	 -0.544314	 0.291766
H	 0.927537	 -1.345968	 0.093578
H	 1.161796	 0.185481	 -0.701590
C	 3.373361	 0.914346	 0.347591
H	 3.708709	 -1.142521	 -0.150311
H	 2.780642	 -0.921148	 1.303579
H	 3.506512	 1.320010	 -0.651625
H	 4.322697	 0.999599	 0.867103
H	 2.660624	 1.545032	 0.868198
H	 -0.043239	 -1.088379	 -5.436444
H	 1.204836	 -2.192762	 -6.030513
H	 1.635268	 -0.765798	 -5.068644

	symmetry c1
}
set optking {
	frozen_dihedral = ("
		6 3 2 1,
		6 3 5 8,
		3 5 8 12
	")
}

ee = energy('scf')
oeprop('DIPOLE', 'QUADRUPOLE', 'MULLIKEN_CHARGES')
f=open( 'psi4out.xyz', 'w' )
f.write( "22  " )
f.write( str(ee) + "\n" )
f.write( MOL.save_string_xyz() )
f.close()
--------------------------------------------------------------------------

    Molecular point group: c1

    Geometry (in Angstrom), charge = 0, multiplicity = 1:

       Center              X                  Y                   Z               Mass
    ------------   -----------------  -----------------  -----------------  -----------------
           O         -0.743628476287    -2.199713313611    -1.772035987633    15.994914619560
           C         -0.844507476287    -1.010582313611    -1.757048987633    12.000000000000
           C         -1.082600476287    -0.265876313611    -0.455115987633    12.000000000000
           C         -0.709338476287    -0.186402313611    -3.017933987633    12.000000000000
           C          0.224734523713    -0.121277313611     0.340564012367    12.000000000000
           H         -1.797926476287    -0.838465313611     0.125190012367     1.007825032070
           H         -1.510282476287     0.713897686389    -0.647876987633     1.007825032070
           C          0.014139523713     0.596934686389     1.675643012367    12.000000000000
           H          0.634540523713    -1.112160313611     0.500549012367     1.007825032070
           H          0.954730523713     0.429101686389    -0.250989987633     1.007825032070
           C          1.298793523713     0.830091686389     2.478984012367    12.000000000000
           H         -0.689656476287     0.028437686389     2.280796012367     1.007825032070
           H         -0.455397476287     1.559886686389     1.485628012367     1.007825032070
           C          1.756167523713     2.288751686389     2.534809012367    12.000000000000
           H          2.091515523713     0.231884686389     2.036907012367     1.007825032070
           H          1.163448523713     0.453257686389     3.490797012367     1.007825032070
           H          1.889318523713     2.694415686389     1.535593012367     1.007825032070
           H          2.705503523713     2.374004686389     3.054321012367     1.007825032070
           H          1.043430523713     2.919437686389     3.055416012367     1.007825032070
           H         -1.660432476287     0.286026686389    -3.249225987633     1.007825032070
           H         -0.412357476287    -0.818356313611    -3.843294987633     1.007825032070
           H          0.018074523713     0.608607686389    -2.881425987633     1.007825032070

  Charge       = 0
  Multiplicity = 1
  Basis Set: 6-31G*
  Basis Set:

    Orbital Energies (a.u.)
    -----------------------

    Doubly Occupied:

       1A    -20.547386     2A    -11.324578     3A    -11.230514
       4A    -11.229038     5A    -11.228291     6A    -11.221062
       7A    -11.219393     8A    -11.213767     9A     -1.393145
      10A     -1.095365    11A     -1.044974    12A     -1.000687
      13A     -0.938820    14A     -0.851020    15A     -0.794849
      16A     -0.732615    17A     -0.661480    18A     -0.646564
      19A     -0.627187    20A     -0.614938    21A     -0.597261
      22A     -0.585378    23A     -0.557559    24A     -0.546168
      25A     -0.540482    26A     -0.511693    27A     -0.500814
      28A     -0.490364    29A     -0.470472    30A     -0.462141
      31A     -0.459506    32A     -0.396292

  @DF-RHF Final Energy:  -348.09420886028369

   => Energetics <=

    Nuclear Repulsion Energy =            370.3144204332873528
    One-Electron Energy =               -1205.3499162666562370
    Two-Electron Energy =                 486.9412869730861644
    DFT Exchange-Correlation Energy =       0.0000000000000000
    Empirical Dispersion Energy =           0.0000000000000000
    PCM Polarization Energy =               0.0000000000000000
    EFP Energy =                            0.0000000000000000
    Total Energy =                       -348.0942088602827766

  Mulliken Charges: (a.u.)
   Center  Symbol    Alpha    Beta     Spin     Total
       1     O     4.26237  4.26237  0.00000 -0.52474
       2     C     2.73728  2.73728  0.00000  0.52545
       3     C     3.20067  3.20067  0.00000 -0.40133
       4     C     3.28953  3.28953  0.00000 -0.57905
       5     C     3.16420  3.16420  0.00000 -0.32840
       6     H     0.40108  0.40108  0.00000  0.19784
       7     H     0.41675  0.41675  0.00000  0.16650
       8     C     3.15444  3.15444  0.00000 -0.30888
       9     H     0.40472  0.40472  0.00000  0.19055
      10     H     0.42080  0.42080  0.00000  0.15839
      11     C     3.15616  3.15616  0.00000 -0.31232
      12     H     0.41756  0.41756  0.00000  0.16488
      13     H     0.42127  0.42127  0.00000  0.15746
      14     C     3.24038  3.24038  0.00000 -0.48075
      15     H     0.41893  0.41893  0.00000  0.16214
      16     H     0.41817  0.41817  0.00000  0.16367
      17     H     0.42298  0.42298  0.00000  0.15405
      18     H     0.41870  0.41870  0.00000  0.16261
      19     H     0.42031  0.42031  0.00000  0.15938
      20     H     0.40689  0.40689  0.00000  0.18623
      21     H     0.39706  0.39706  0.00000  0.20589
      22     H     0.40977  0.40977  0.00000  0.18046

   Total alpha = 32.00000, Total beta = 32.00000, Total charge =  0.00000
