  ==> Input File <==

--------------------------------------------------------------------------
set {
	reference rhf
	basis 6-31G*
}

set_num_threads( 1 )
memory 2 gb

molecule MOL {
0 1

H	 -2.646374	 -0.642757	 1.268656
C	 -2.083525	 -0.384536	 0.393091
O	 -0.807605	 -0.127164	 0.768327
F	 -2.118945	 -1.383102	 -0.486752
F	 -2.621877	 0.670592	 -0.209486
C	 0.084052	 0.273579	 -0.209957
C	 -0.231388	 -0.539104	 -1.459038
Cl	 1.755285	 -0.001945	 0.308003
H	 -0.014927	 1.317419	 -0.451566
F	 0.574185	 -0.200490	 -2.443178
F	 -1.467792	 -0.278124	 -1.834046
F	 -0.124272	 -1.828664	 -1.250388

	symmetry c1
}
set optking {
	frozen_dihedral = ("
		10 7 6 9,
		6 3 2 4
	")
}

ee = energy('scf')
oeprop('DIPOLE', 'QUADRUPOLE', 'MULLIKEN_CHARGES')
f=open( 'psi4out.xyz', 'w' )
f.write( "12  " )
f.write( str(ee) + "\n" )
f.write( MOL.save_string_xyz() )
f.close()
--------------------------------------------------------------------------

    Molecular point group: c1

    Geometry (in Angstrom), charge = 0, multiplicity = 1:

       Center              X                  Y                   Z               Mass
    ------------   -----------------  -----------------  -----------------  -----------------
           H         -2.155015911742    -0.280777255087     1.864785180356     1.007825032070
           C         -1.592166911742    -0.022556255087     0.989220180356    12.000000000000
           O         -0.316246911742     0.234815744913     1.364456180356    15.994914619560
           F         -1.627586911742    -1.021122255087     0.109377180356    18.998403224000
           F         -2.130518911742     1.032571744913     0.386643180356    18.998403224000
           C          0.575410088258     0.635558744913     0.386172180356    12.000000000000
           C          0.259970088258    -0.177124255087    -0.862908819644    12.000000000000
          CL          2.246643088258     0.360034744913     0.904132180356    34.968852682000
           H          0.476431088258     1.679398744913     0.144563180356     1.007825032070
           F          1.065543088258     0.161489744913    -1.847048819644    18.998403224000
           F         -0.976433911742     0.083855744913    -1.237916819644    18.998403224000
           F          0.367086088258    -1.466684255087    -0.654258819644    18.998403224000

  Charge       = 0
  Multiplicity = 1
  Basis Set: 6-31G*
  Basis Set:

    Orbital Energies (a.u.)
    -----------------------

    Doubly Occupied:

       1A   -104.851053     2A    -26.354764     3A    -26.348030
       4A    -26.337107     5A    -26.336797     6A    -26.319513
       7A    -20.644575     8A    -11.520198     9A    -11.483749
      10A    -11.400131    11A    -10.585296    12A     -8.054687
      13A     -8.051096    14A     -8.050995    15A     -1.766966
      16A     -1.711687    17A     -1.654209    18A     -1.649705
      19A     -1.625158    20A     -1.484823    21A     -1.181260
      22A     -1.043057    23A     -0.993582    24A     -0.918289
      25A     -0.875551    26A     -0.851751    27A     -0.839775
      28A     -0.817824    29A     -0.814222    30A     -0.767369
      31A     -0.740779    32A     -0.725142    33A     -0.702673
      34A     -0.688326    35A     -0.675562    36A     -0.658069
      37A     -0.656226    38A     -0.649387    39A     -0.640990
      40A     -0.618044    41A     -0.564653    42A     -0.548479
      43A     -0.535873    44A     -0.483278    45A     -0.470650

  @DF-RHF Final Energy: -1146.23261991173285

   => Energetics <=

    Nuclear Repulsion Energy =            784.8751281107694240
    One-Electron Energy =               -3152.8325678404489736
    Two-Electron Energy =                1221.7248198179465817
    DFT Exchange-Correlation Energy =       0.0000000000000000
    Empirical Dispersion Energy =           0.0000000000000000
    PCM Polarization Energy =               0.0000000000000000
    EFP Energy =                            0.0000000000000000
    Total Energy =                      -1146.2326199117330816

  Mulliken Charges: (a.u.)
   Center  Symbol    Alpha    Beta     Spin     Total
       1     H     0.39402  0.39402  0.00000  0.21197
       2     C     2.55915  2.55915  0.00000  0.88170
       3     O     4.30932  4.30932  0.00000 -0.61863
       4     F     4.68644  4.68644  0.00000 -0.37287
       5     F     4.69174  4.69174  0.00000 -0.38348
       6     C     3.02029  3.02029  0.00000 -0.04058
       7     C     2.45925  2.45925  0.00000  1.08151
       8    CL     8.49018  8.49018  0.00000  0.01965
       9     H     0.37004  0.37004  0.00000  0.25992
      10     F     4.67520  4.67520  0.00000 -0.35040
      11     F     4.67480  4.67480  0.00000 -0.34961
      12     F     4.66959  4.66959  0.00000 -0.33917

   Total alpha = 45.00000, Total beta = 45.00000, Total charge = -0.00000
