  ==> Input File <==

--------------------------------------------------------------------------
set {
	reference rhf
	basis 6-31G*
}

set_num_threads( 1 )
memory 2 gb

molecule MOL {
0 1

H	 -4.312274	 -1.735565	 -0.316230
C	 -3.484454	 -1.195131	 0.100070
C	 -2.263188	 -1.453616	 -0.306986
H	 -3.681702	 -0.449225	 0.846815
O	 -1.180634	 -0.819263	 0.215062
H	 -2.045132	 -2.191506	 -1.058761
C	 0.051604	 -1.018856	 -0.387932
C	 1.043764	 0.054862	 -0.001873
H	 -0.017620	 -1.041351	 -1.469781
H	 0.437898	 -1.966374	 -0.042284
F	 2.212596	 -0.199467	 -0.571921
F	 0.652529	 1.252447	 -0.405055
F	 1.230877	 0.110694	 1.300533

	symmetry c1
}
set optking {
	frozen_dihedral = ("
		11 8 7 9,
		6 3 2 1,
		6 3 5 7
	")
}

ee = energy('scf')
oeprop('DIPOLE', 'QUADRUPOLE', 'MULLIKEN_CHARGES')
f=open( 'psi4out.xyz', 'w' )
f.write( "13  " )
f.write( str(ee) + "\n" )
f.write( MOL.save_string_xyz() )
f.close()
--------------------------------------------------------------------------

    Molecular point group: c1

    Geometry (in Angstrom), charge = 0, multiplicity = 1:

       Center              X                  Y                   Z               Mass
    ------------   -----------------  -----------------  -----------------  -----------------
           H         -4.260000197637    -1.403969062981    -0.319166673274     1.007825032070
           C         -3.432180197637    -0.863535062981     0.097133326726    12.000000000000
           C         -2.210914197637    -1.122020062981    -0.309922673274    12.000000000000
           H         -3.629428197637    -0.117629062981     0.843878326726     1.007825032070
           O         -1.128360197637    -0.487667062981     0.212125326726    15.994914619560
           H         -1.992858197637    -1.859910062981    -1.061697673274     1.007825032070
           C          0.103877802363    -0.687260062981    -0.390868673274    12.000000000000
           C          1.096037802363     0.386457937019    -0.004809673274    12.000000000000
           H          0.034653802363    -0.709755062981    -1.472717673274     1.007825032070
           H          0.490171802363    -1.634778062981    -0.045220673274     1.007825032070
           F          2.264869802363     0.132128937019    -0.574857673274    18.998403224000
           F          0.704802802363     1.584042937019    -0.407991673274    18.998403224000
           F          1.283150802363     0.442289937019     1.297596326726    18.998403224000

  Charge       = 0
  Multiplicity = 1
  Basis Set: 6-31G*
  Basis Set:

    Orbital Energies (a.u.)
    -----------------------

    Doubly Occupied:

       1A    -26.345548     2A    -26.340061     3A    -26.337998
       4A    -20.605053     5A    -11.506744     6A    -11.318463
       7A    -11.303193     8A    -11.219651     9A     -1.740141
      10A     -1.639323    11A     -1.634965    12A     -1.436405
      13A     -1.086918    14A     -1.016463    15A     -0.923182
      16A     -0.836817    17A     -0.829472    18A     -0.807091
      19A     -0.799655    20A     -0.718298    21A     -0.714909
      22A     -0.697244    23A     -0.680500    24A     -0.658459
      25A     -0.650843    26A     -0.646178    27A     -0.640892
      28A     -0.574852    29A     -0.559717    30A     -0.527969
      31A     -0.511213    32A     -0.353653

  @DF-RHF Final Energy:  -527.53293225026505

   => Energetics <=

    Nuclear Repulsion Energy =            405.0964614306961380
    One-Electron Energy =               -1533.9349926728025366
    Two-Electron Energy =                 601.3055989918418618
    DFT Exchange-Correlation Energy =       0.0000000000000000
    Empirical Dispersion Energy =           0.0000000000000000
    PCM Polarization Energy =               0.0000000000000000
    EFP Energy =                            0.0000000000000000
    Total Energy =                       -527.5329322502645937

  Mulliken Charges: (a.u.)
   Center  Symbol    Alpha    Beta     Spin     Total
       1     H     0.40693  0.40693  0.00000  0.18615
       2     C     3.23359  3.23359  0.00000 -0.46717
       3     C     2.89539  2.89539  0.00000  0.20922
       4     H     0.40008  0.40008  0.00000  0.19984
       5     O     4.30604  4.30604  0.00000 -0.61207
       6     H     0.40867  0.40867  0.00000  0.18266
       7     C     3.05039  3.05039  0.00000 -0.10077
       8     C     2.45112  2.45112  0.00000  1.09776
       9     H     0.40634  0.40634  0.00000  0.18733
      10     H     0.40545  0.40545  0.00000  0.18909
      11     F     4.68355  4.68355  0.00000 -0.36709
      12     F     4.67743  4.67743  0.00000 -0.35486
      13     F     4.67504  4.67504  0.00000 -0.35008

   Total alpha = 32.00000, Total beta = 32.00000, Total charge =  0.00000
