  ==> Input File <==

--------------------------------------------------------------------------
set {
	reference rhf
	basis 6-31G*
}

set_num_threads( 4 )
memory 2 gb

molecule MOL {
0 1

H	 -0.944757	 -0.000069	 1.678017
O	 -0.042387	 -0.000390	 1.388199
C	 -0.001487	 0.000018	 -0.026623
C	 0.506802	 1.354681	 -0.523785
C	 0.903895	 -1.133250	 -0.513070
C	 -1.442501	 -0.231870	 -0.467223
H	 0.510569	 1.402657	 -1.608028
H	 1.523350	 1.535067	 -0.181738
H	 -0.121577	 2.153208	 -0.144956
H	 0.925558	 -1.185340	 -1.597001
H	 1.925175	 -0.986402	 -0.169044
H	 0.553554	 -2.084727	 -0.128584
H	 -1.520355	 -0.248410	 -1.549540
H	 -2.082109	 0.556322	 -0.086248
H	 -1.805113	 -1.177245	 -0.079702

	symmetry c1
}
set optking {
	frozen_dihedral = ("
		4 3 2 1
	")
}

ee = optimize('scf')
oeprop('DIPOLE', 'QUADRUPOLE', 'MULLIKEN_CHARGES')
f=open( 'psi4out.xyz', 'w' )
f.write( "15  " )
f.write( str(ee) + "\n" )
f.write( MOL.save_string_xyz() )
f.close()
--------------------------------------------------------------------------

    Molecular point group: c1
  Charge       = 0
  Multiplicity = 1
  Basis Set: 6-31G*
  Basis Set:
  @DF-RHF Final Energy:  -232.14877653150000
    Total Energy =                       -232.1487765314998910
    Molecular point group: c1
  Basis Set: 6-31G*
  Basis Set:
  Basis Set: 6-31G*
  Basis Set:
  @DF-RHF Final Energy:  -232.15051681107340
    Total Energy =                       -232.1505168110734871
  Basis Set: 6-31G*
  Basis Set:
  Basis Set: 6-31G*
  Basis Set:
  @DF-RHF Final Energy:  -232.15103007152925
    Total Energy =                       -232.1510300715294193
  Basis Set: 6-31G*
  Basis Set:
  Basis Set: 6-31G*
  Basis Set:
  @DF-RHF Final Energy:  -232.15105150561413
    Total Energy =                       -232.1510515056141344
  Basis Set: 6-31G*
  Basis Set:
  Basis Set: 6-31G*
  Basis Set:
  @DF-RHF Final Energy:  -232.15105559338124
    Total Energy =                       -232.1510555933813293
  Basis Set: 6-31G*
  Basis Set:
  Charge       = 0
  Multiplicity = 1
  Basis Set: 6-31G*
  Basis Set:

    Orbital Energies (a.u.)
    -----------------------

    Doubly Occupied:

       1A    -20.546790     2A    -11.282024     3A    -11.218624
       4A    -11.204705     5A    -11.204252     6A     -1.358107
       7A     -1.063777     8A     -0.945781     9A     -0.935138
      10A     -0.775640    11A     -0.669246    12A     -0.622603
      13A     -0.620960    14A     -0.575173    15A     -0.556298
      16A     -0.533261    17A     -0.516724    18A     -0.508704
      19A     -0.501457    20A     -0.456960    21A     -0.422442

  @DF-RHF Final Energy:  -232.15105602070574

   => Energetics <=

    Nuclear Repulsion Energy =            200.2447287702299548
    One-Electron Energy =                -711.7542351825615015
    Two-Electron Energy =                 279.3584503916258654
    DFT Exchange-Correlation Energy =       0.0000000000000000
    Empirical Dispersion Energy =           0.0000000000000000
    PCM Polarization Energy =               0.0000000000000000
    EFP Energy =                            0.0000000000000000
    Total Energy =                       -232.1510560207057097
    Molecular point group: c1
  Basis Set: 6-31G*
  Basis Set:

  -Total Gradient:
     Atom            X                  Y                   Z
    ------   -----------------  -----------------  -----------------
       1       -0.000034300726    -0.001237085055     0.000001378437
       2        0.000251323227     0.001415768472    -0.000010868827
       3       -0.000934051653     0.000093491862     0.000060278753
       4        0.000690935489    -0.000256108556    -0.000057417633
       5       -0.000001946188    -0.000014900643    -0.000007741280
       6        0.000001674276    -0.000022158510     0.000009457245
       7       -0.000000573245     0.000010516908     0.000005095145
       8        0.000002884944    -0.000003530511    -0.000008157682
       9        0.000005572330     0.000012611688     0.000001641695
      10        0.000001782816     0.000009877513     0.000018370133
      11        0.000018540054    -0.000008691760    -0.000002897520
      12       -0.000005583786    -0.000002600371    -0.000001521707
      13       -0.000006168228    -0.000001284346    -0.000010391753
      14        0.000016405427    -0.000007243396    -0.000000910578
      15       -0.000006494738     0.000011336705     0.000003685568

  **** Optimization is complete! (in 6 steps) ****
    Final optimized geometry and variables:
    Molecular point group: c1

    Geometry (in Angstrom), charge = 0, multiplicity = 1:

    H           -0.808383264851     0.027073517888     1.761478098764
    O            0.061803645111     0.001653075589     1.392238347204
    C           -0.000355616861     0.002274353666    -0.026096262563
    C            0.515457299257     1.354647198405    -0.517353834226
    C            0.911549939193    -1.126150605142    -0.502923068276
    C           -1.437711900200    -0.233724786852    -0.489796125374
    H            0.536202441561     1.401722916582    -1.602095248588
    H            1.519694836163     1.525154131051    -0.145980541839
    H           -0.116738625232     2.157923345551    -0.151997462570
    H            0.961670265872    -1.161352048930    -1.586954834989
    H            1.914557513084    -0.980963754604    -0.117305249762
    H            0.549200786200    -2.082659014128    -0.141760387216
    H           -1.501472052924    -0.254594894854    -1.572165674446
    H           -2.092973387055     0.558392091532    -0.135243223053
    H           -1.810934367922    -1.181760933373    -0.112903798492

  Mulliken Charges: (a.u.)
   Center  Symbol    Alpha    Beta     Spin     Total
       1     H     0.27967  0.27967  0.00000  0.44067
       2     O     4.38343  4.38343  0.00000 -0.76686
       3     C     2.84470  2.84470  0.00000  0.31060
       4     C     3.23181  3.23181  0.00000 -0.46363
       5     C     3.23177  3.23177  0.00000 -0.46355
       6     C     3.26015  3.26015  0.00000 -0.52030
       7     H     0.42582  0.42582  0.00000  0.14836
       8     H     0.41312  0.41312  0.00000  0.17376
       9     H     0.42174  0.42174  0.00000  0.15652
      10     H     0.42573  0.42573  0.00000  0.14854
      11     H     0.41300  0.41300  0.00000  0.17400
      12     H     0.41860  0.41860  0.00000  0.16281
      13     H     0.41429  0.41429  0.00000  0.17142
      14     H     0.42024  0.42024  0.00000  0.15951
      15     H     0.41592  0.41592  0.00000  0.16817

   Total alpha = 21.00000, Total beta = 21.00000, Total charge = -0.00000
