                              Psi4 1.0.54 Driver

  ==> Input File <==

--------------------------------------------------------------------------
set {
	reference rhf
	basis cc-pvtz
}

set_num_threads( 4 )
memory 2 gb

molecule MOL {
0 1

H	 -3.554338	 2.348599	 1.138798
C	 -3.680045	 1.330830	 0.744808
C	 -2.653809	 0.914422	 -0.273689
O	 -4.577580	 0.658564	 1.118704
C	 -1.216901	 1.136108	 0.207794
H	 -2.830971	 -0.120001	 -0.538107
H	 -2.831544	 1.520941	 -1.159041
C	 -0.247837	 0.040196	 -0.230469
H	 -0.872882	 2.093195	 -0.169002
H	 -1.209325	 1.218376	 1.291938
C	 1.181757	 0.280428	 0.247371
H	 -0.259600	 -0.030819	 -1.314870
H	 -0.591284	 -0.923375	 0.136958
C	 2.151032	 -0.811012	 -0.202643
H	 1.515939	 1.247397	 -0.115449
H	 1.191514	 0.341223	 1.333422
C	 3.580021	 -0.656538	 0.320835
H	 2.170545	 -0.847575	 -1.289412
H	 1.766632	 -1.772905	 0.124928
C	 4.327657	 0.562694	 -0.213579
H	 4.138806	 -1.549270	 0.057813
H	 3.561991	 -0.620783	 1.406976
H	 4.355973	 0.557257	 -1.298551
H	 3.867136	 1.491650	 0.100501
H	 5.351524	 0.571613	 0.142204

	symmetry c1
}
set optking {
	frozen_dihedral = ("
		6 3 5 8
	")
}

ee,wfn = optimize('scf', return_wfn=True)
oeprop( wfn, 'DIPOLE', 'QUADRUPOLE', 'MULLIKEN_CHARGES')
f=open( 'psi4out.xyz', 'w' )
f.write( "25  " )
f.write( str(ee) + "\n" )
f.write( MOL.save_string_xyz() )
f.close()
--------------------------------------------------------------------------

    Molecular point group: c1
  Charge       = 0
  Multiplicity = 1
  Basis Set: CC-PVTZ
  Basis Set:
  @DF-RHF Final Energy:  -387.25689505225847
    Total Energy =                       -387.2568950522584146
    Molecular point group: c1
  Basis Set: CC-PVTZ
  Basis Set:
  Basis Set: CC-PVTZ
  Basis Set:
  @DF-RHF Final Energy:  -387.25658547389821
    Total Energy =                       -387.2565854738982125
  Basis Set: CC-PVTZ
  Basis Set:
  Basis Set: CC-PVTZ
  Basis Set:
  @DF-RHF Final Energy:  -387.25493047195999
    Total Energy =                       -387.2549304719605061
  Basis Set: CC-PVTZ
  Basis Set:
  Basis Set: CC-PVTZ
  Basis Set:
  @DF-RHF Final Energy:  -387.25724719963114
    Total Energy =                       -387.2572471996310242
  Basis Set: CC-PVTZ
  Basis Set:
  Basis Set: CC-PVTZ
  Basis Set:
  @DF-RHF Final Energy:  -387.25727219037788
    Total Energy =                       -387.2572721903778756
  Basis Set: CC-PVTZ
  Basis Set:
  Basis Set: CC-PVTZ
  Basis Set:
  @DF-RHF Final Energy:  -387.25727791681754
    Total Energy =                       -387.2572779168174293
  Basis Set: CC-PVTZ
  Basis Set:
  Basis Set: CC-PVTZ
  Basis Set:
  @DF-RHF Final Energy:  -387.25728245698014
    Total Energy =                       -387.2572824569801924
  Basis Set: CC-PVTZ
  Basis Set:
  Charge       = 0
  Multiplicity = 1
  Basis Set: CC-PVTZ
  Basis Set:

    Orbital Energies (a.u.)
    -----------------------

    Doubly Occupied:

       1A    -20.550981     2A    -11.321070     3A    -11.233657
       4A    -11.233006     5A    -11.223768     6A    -11.218387
       7A    -11.217229     8A    -11.216316     9A    -11.209714
      10A     -1.406044    11A     -1.105078    12A     -1.070801
      13A     -1.015819    14A     -0.945853    15A     -0.875862
      16A     -0.813551    17A     -0.796451    18A     -0.781665
      19A     -0.677141    20A     -0.657982    21A     -0.636816
      22A     -0.625128    23A     -0.615354    24A     -0.589069
      25A     -0.565804    26A     -0.562787    27A     -0.530140
      28A     -0.522122    29A     -0.518805    30A     -0.494597
      31A     -0.489294    32A     -0.479838    33A     -0.466261
      34A     -0.460319    35A     -0.449059    36A     -0.410495

  @DF-RHF Final Energy:  -387.25728200421571

   => Energetics <=

    Nuclear Repulsion Energy =            432.9626800012019316
    One-Electron Energy =               -1382.4673956270771669
    Two-Electron Energy =                 562.2474336216600932
    DFT Exchange-Correlation Energy =       0.0000000000000000
    Empirical Dispersion Energy =           0.0000000000000000
    PCM Polarization Energy =               0.0000000000000000
    EFP Energy =                            0.0000000000000000
    Total Energy =                       -387.2572820042150852
    Molecular point group: c1
  Basis Set: CC-PVTZ
  Basis Set:

  -Total Gradient:
     Atom            X                  Y                   Z
    ------   -----------------  -----------------  -----------------
       1       -0.000002030104    -0.000020549509     0.000009439737
       2       -0.000074039187     0.000025490872    -0.000017757138
       3       -0.001561368262    -0.001420530796     0.004871230574
       4        0.000061310477     0.000019365875     0.000012000066
       5        0.001030849977     0.002065332860    -0.003746591389
       6        0.001020331373     0.000700598582    -0.003260766671
       7        0.000039241126    -0.000033258610     0.000054807421
       8       -0.000506724167    -0.001312576957     0.002093476073
       9        0.000015032232     0.000005352486     0.000042925592
      10       -0.000013611635    -0.000029586088    -0.000058025062
      11       -0.000017087972    -0.000009356828     0.000007282507
      12       -0.000007705486     0.000013761979     0.000010329089
      13        0.000011572787    -0.000010544705    -0.000009336605
      14        0.000008241600     0.000019324465    -0.000026775378
      15       -0.000044050736    -0.000037665543    -0.000003249963
      16        0.000007096905     0.000012221196     0.000006945438
      17       -0.000019021570     0.000028745436     0.000041257569
      18        0.000000234354     0.000017438445    -0.000005690121
      19        0.000010555019    -0.000006583134    -0.000015694940
      20        0.000018761490    -0.000009269503    -0.000009896391
      21       -0.000006420369    -0.000006092382     0.000012977301
      22       -0.000003762258     0.000015670828     0.000002297443
      23       -0.000004079953     0.000008340838    -0.000006417957
      24        0.000037792035    -0.000025039902     0.000005839589
      25       -0.000001117678    -0.000010589903    -0.000010606785

  **** Optimization is complete! (in 8 steps) ****
    Final optimized geometry and variables:
    Molecular point group: c1

    Geometry (in Angstrom), charge = 0, multiplicity = 1:

    H           -3.432158323366     1.947878860624     0.944551352495
    C           -3.565478201172     0.940475278829     0.528571088533
    C           -2.523764521725     0.519837580408    -0.468840172657
    O           -4.479081717419     0.274221697489     0.873604088888
    C           -1.085997335754     0.760636190746     0.030802709925
    H           -2.687207468576    -0.514953668275    -0.737705073791
    H           -2.697463185240     1.102922599978    -1.370366677280
    C           -0.116992684297    -0.333085019147    -0.411504547523
    H           -0.731863608959     1.728920704452    -0.305064016171
    H           -1.080079816631     0.798555689774     1.117171066248
    C            1.314879800948    -0.094311150005     0.058862824078
    H           -0.131657503199    -0.411359666441    -1.496074870729
    H           -0.469224536872    -1.288200534362    -0.032564375192
    C            2.275569085432    -1.199124977676    -0.376931128772
    H            1.654902915849     0.864661961678    -0.319186994671
    H            1.327229894550    -0.017615416678     1.143810365714
    C            3.705768008505    -1.049310193392     0.144576117890
    H            2.294997178495    -1.250191230936    -1.463218207000
    H            1.883677820324    -2.153529448219    -0.036401716686
    C            4.465281662368     0.153233444275    -0.410450552787
    H            4.256042125021    -1.951783686441    -0.102739963454
    H            3.687497986501    -0.994695218332     1.229851939260
    H            4.491550004811     0.130307497544    -1.495269352440
    H            4.015426394817     1.091922181515    -0.110260107845
    H            5.489824974605     0.156743168695    -0.056612279180

  Mulliken Charges: (a.u.)
   Center  Symbol    Alpha    Beta     Spin     Total
       1     H     0.46437  0.46437  0.00000  0.07127
       2     C     2.90848  2.90848  0.00000  0.18303
       3     C     3.08212  3.08212  0.00000 -0.16425
       4     O     4.16499  4.16499  0.00000 -0.32999
       5     C     3.10425  3.10425  0.00000 -0.20850
       6     H     0.44247  0.44247  0.00000  0.11507
       7     H     0.44657  0.44657  0.00000  0.10686
       8     C     3.08949  3.08949  0.00000 -0.17898
       9     H     0.44863  0.44863  0.00000  0.10274
      10     H     0.45201  0.45201  0.00000  0.09599
      11     C     3.09333  3.09333  0.00000 -0.18666
      12     H     0.45139  0.45139  0.00000  0.09722
      13     H     0.44864  0.44864  0.00000  0.10272
      14     C     3.09571  3.09571  0.00000 -0.19142
      15     H     0.45224  0.45224  0.00000  0.09551
      16     H     0.45325  0.45325  0.00000  0.09350
      17     C     3.09071  3.09071  0.00000 -0.18142
      18     H     0.45353  0.45353  0.00000  0.09295
      19     H     0.44859  0.44859  0.00000  0.10281
      20     C     3.15258  3.15258  0.00000 -0.30517
      21     H     0.44774  0.44774  0.00000  0.10452
      22     H     0.45423  0.45423  0.00000  0.09154
      23     H     0.45475  0.45475  0.00000  0.09049
      24     H     0.45419  0.45419  0.00000  0.09161
      25     H     0.44573  0.44573  0.00000  0.10854

   Total alpha = 36.00000, Total beta = 36.00000, Total charge =  0.00000

*** Psi4 exiting successfully. Buy a developer a beer!
