  ==> Input File <==

--------------------------------------------------------------------------
set {
	reference rhf
	basis 6-31G*
}

set_num_threads( 4 )
memory 2 gb

molecule MOL {
0 1

H	 -3.301617	 0.570527	 0.000000
C	 -2.250981	 0.344174	 0.000000
C	 -1.813665	 -0.976045	 0.000000
C	 -1.315303	 1.358057	 0.000000
H	 -2.528860	 -1.779366	 0.000000
C	 -0.467298	 -1.270142	 0.000000
H	 -1.635074	 2.385107	 0.000000
C	 0.047081	 1.078114	 0.000000
H	 -0.115948	 -2.285222	 0.000000
C	 0.472063	 -0.241155	 0.000000
H	 0.749976	 1.888426	 0.000000
O	 1.765256	 -0.628444	 0.000000
C	 2.490661	 -0.625669	 1.195346
H	 2.554585	 0.371222	 1.618966
H	 3.483776	 -0.968837	 0.946809
H	 2.054512	 -1.298566	 1.926315

	symmetry c1
}
set optking {
	frozen_dihedral = ("
		13 12 10 8
	")
}

ee = optimize('scf')
oeprop('DIPOLE', 'QUADRUPOLE', 'MULLIKEN_CHARGES')
f=open( 'psi4out.xyz', 'w' )
f.write( "16  " )
f.write( str(ee) + "\n" )
f.write( MOL.save_string_xyz() )
f.close()
--------------------------------------------------------------------------

    Molecular point group: c1
  Charge       = 0
  Multiplicity = 1
  Basis Set: 6-31G*
  Basis Set:
  @DF-RHF Final Energy:  -344.57845543155662
    Total Energy =                       -344.5784554315563923
    Molecular point group: c1
  Basis Set: 6-31G*
  Basis Set:
  Basis Set: 6-31G*
  Basis Set:
  @DF-RHF Final Energy:  -344.58031437545725
    Total Energy =                       -344.5803143754569078
  Basis Set: 6-31G*
  Basis Set:
  Basis Set: 6-31G*
  Basis Set:
  @DF-RHF Final Energy:  -344.58049929988573
    Total Energy =                       -344.5804992998855596
  Basis Set: 6-31G*
  Basis Set:
  Basis Set: 6-31G*
  Basis Set:
  @DF-RHF Final Energy:  -344.58052611594167
    Total Energy =                       -344.5805261159419501
  Basis Set: 6-31G*
  Basis Set:
  Basis Set: 6-31G*
  Basis Set:
  @DF-RHF Final Energy:  -344.58052977692387
    Total Energy =                       -344.5805297769238678
  Basis Set: 6-31G*
  Basis Set:
  Charge       = 0
  Multiplicity = 1
  Basis Set: 6-31G*
  Basis Set:

    Orbital Energies (a.u.)
    -----------------------

    Doubly Occupied:

       1A    -20.571697     2A    -11.285562     3A    -11.275149
       4A    -11.233612     5A    -11.233135     6A    -11.226407
       7A    -11.226137     8A    -11.224946     9A     -1.400186
      10A     -1.147676    11A     -1.017103    12A     -1.014896
      13A     -0.933034    14A     -0.834706    15A     -0.806368
      16A     -0.713774    17A     -0.666315    18A     -0.662776
      19A     -0.634860    20A     -0.611680    21A     -0.598078
      22A     -0.585381    23A     -0.530168    24A     -0.505488
      25A     -0.504576    26A     -0.483445    27A     -0.436080
      28A     -0.335226    29A     -0.321060

  @DF-RHF Final Energy:  -344.58053031251609

   => Energetics <=

    Nuclear Repulsion Energy =            348.1099964644232614
    One-Electron Energy =               -1157.3420179783217918
    Two-Electron Energy =                 464.6514912013824414
    DFT Exchange-Correlation Energy =       0.0000000000000000
    Empirical Dispersion Energy =           0.0000000000000000
    PCM Polarization Energy =               0.0000000000000000
    EFP Energy =                            0.0000000000000000
    Total Energy =                       -344.5805303125160890
    Molecular point group: c1
  Basis Set: 6-31G*
  Basis Set:

  -Total Gradient:
     Atom            X                  Y                   Z
    ------   -----------------  -----------------  -----------------
       1       -0.000000395902    -0.000014167083     0.000002217930
       2       -0.000001636172     0.000031452560     0.000031107427
       3       -0.000001935074    -0.000021340197    -0.000017270834
       4       -0.000002570124    -0.000037970043    -0.000037943967
       5       -0.000022429092     0.000003466297     0.000001156471
       6        0.000011540269    -0.000067571091     0.000000634427
       7        0.000007967442     0.000003356518     0.000002757121
       8        0.000053996905    -0.000033740744     0.000287081454
       9       -0.000005758539     0.000023463947     0.000007594524
      10       -0.000089564785     0.000252215158    -0.000449946468
      11        0.000002795868    -0.000001996107     0.000011767243
      12       -0.000026701151    -0.000387832378     0.000161698162
      13        0.000074767482     0.000260003184     0.000032011341
      14        0.000002494699    -0.000009387188    -0.000015044949
      15       -0.000006276384     0.000000479395    -0.000010053114
      16        0.000003704558    -0.000000432229    -0.000007766767

  **** Optimization is complete! (in 6 steps) ****
    Final optimized geometry and variables:
    Molecular point group: c1

    Geometry (in Angstrom), charge = 0, multiplicity = 1:

    H           -3.239799706785     0.747395596996    -0.143794351027
    C           -2.194366507405     0.496801336243    -0.151160964294
    C           -1.795246643319    -0.829879187019    -0.175707514729
    C           -1.236827502828     1.499197672021    -0.143735671918
    H           -2.531897118561    -1.613382133253    -0.187983455458
    C           -0.448551219918    -1.156125824724    -0.185511483441
    H           -1.538552933375     2.531443970518    -0.133454230820
    C            0.111053491176     1.181013115581    -0.157009321049
    H           -0.123799076104    -2.180220364882    -0.211872204835
    C            0.502004813884    -0.148810602793    -0.175584329731
    H            0.860288715134     1.951870580696    -0.167912105075
    O            1.823938763082    -0.479222864647    -0.215320700488
    C            2.504153202872    -0.420624288442     1.012705754195
    H            2.487110602104     0.582136753963     1.426751676303
    H            3.527075856163    -0.708599851342     0.817500403057
    H            2.067394514550    -1.105983875695     1.732338193180

  Mulliken Charges: (a.u.)
   Center  Symbol    Alpha    Beta     Spin     Total
       1     H     0.39986  0.39986  0.00000  0.20027
       2     C     3.10580  3.10580  0.00000 -0.21160
       3     C     3.09696  3.09696  0.00000 -0.19392
       4     C     3.09675  3.09675  0.00000 -0.19349
       5     H     0.39832  0.39832  0.00000  0.20337
       6     C     3.12032  3.12032  0.00000 -0.24065
       7     H     0.39845  0.39845  0.00000  0.20311
       8     C     3.12104  3.12104  0.00000 -0.24208
       9     H     0.39408  0.39408  0.00000  0.21183
      10     C     2.80205  2.80205  0.00000  0.39589
      11     H     0.39550  0.39550  0.00000  0.20899
      12     O     4.33214  4.33214  0.00000 -0.66428
      13     C     3.08222  3.08222  0.00000 -0.16444
      14     H     0.42377  0.42377  0.00000  0.15247
      15     H     0.41021  0.41021  0.00000  0.17958
      16     H     0.42252  0.42252  0.00000  0.15496

   Total alpha = 29.00000, Total beta = 29.00000, Total charge =  0.00000
