                              Psi4 1.0.54 Driver

  ==> Input File <==

--------------------------------------------------------------------------
set {
	reference rhf
	basis cc-pvtz
}

set_num_threads( 4 )
memory 2 gb

molecule MOL {
0 1

O	 1.614899	 -0.388702	 0.216882
C	 0.576499	 0.134701	 -0.003900
C	 -0.765656	 -0.550508	 -0.002152
O	 0.459615	 1.419447	 -0.296711
C	 -1.945526	 0.411052	 0.000603
H	 -0.794329	 -1.203792	 -0.868145
H	 -0.791555	 -1.205429	 0.862701
C	 -3.282915	 -0.321280	 0.002596
H	 -1.880300	 1.059126	 -0.864925
H	 -1.877207	 1.057892	 0.866807
H	 -3.388495	 -0.952755	 -0.873419
H	 -4.107811	 0.380864	 0.004116
H	 -3.385717	 -0.953283	 0.878571
C	 1.646382	 2.186181	 -0.338129
H	 2.140953	 2.174951	 0.621729
H	 1.343097	 3.189541	 -0.589083
H	 2.322255	 1.802222	 -1.087671

	symmetry c1
}
set optking {
	frozen_dihedral = ("
		1 2 3 6
	")
}

ee,wfn = optimize('scf', return_wfn=True)
oeprop( wfn, 'DIPOLE', 'QUADRUPOLE', 'MULLIKEN_CHARGES')
f=open( 'psi4out.xyz', 'w' )
f.write( "17  " )
f.write( str(ee) + "\n" )
f.write( MOL.save_string_xyz() )
f.close()
--------------------------------------------------------------------------

    Molecular point group: c1
  Charge       = 0
  Multiplicity = 1
  Basis Set: CC-PVTZ
  Basis Set:
  @DF-RHF Final Energy:  -345.03161672802719
    Total Energy =                       -345.0316167280269610
    Molecular point group: c1
  Basis Set: CC-PVTZ
  Basis Set:
  Basis Set: CC-PVTZ
  Basis Set:
  @DF-RHF Final Energy:  -345.03229661951286
    Total Energy =                       -345.0322966195130903
  Basis Set: CC-PVTZ
  Basis Set:
  Basis Set: CC-PVTZ
  Basis Set:
  @DF-RHF Final Energy:  -345.03286782317133
    Total Energy =                       -345.0328678231711024
  Basis Set: CC-PVTZ
  Basis Set:
  Basis Set: CC-PVTZ
  Basis Set:
  @DF-RHF Final Energy:  -345.03280460111176
    Total Energy =                       -345.0328046011122751
  Basis Set: CC-PVTZ
  Basis Set:
  Basis Set: CC-PVTZ
  Basis Set:
  @DF-RHF Final Energy:  -345.03293837140956
    Total Energy =                       -345.0329383714096139
  Basis Set: CC-PVTZ
  Basis Set:
  Charge       = 0
  Multiplicity = 1
  Basis Set: CC-PVTZ
  Basis Set:

    Orbital Energies (a.u.)
    -----------------------

    Doubly Occupied:

       1A    -20.599541     2A    -20.530025     3A    -11.365227
       4A    -11.279679     5A    -11.234526     6A    -11.224773
       7A    -11.215193     8A     -1.473641     9A     -1.364530
      10A     -1.084163    11A     -0.998549    12A     -0.944118
      13A     -0.832372    14A     -0.777187    15A     -0.698872
      16A     -0.686914    17A     -0.674561    18A     -0.638993
      19A     -0.597368    20A     -0.573280    21A     -0.559440
      22A     -0.532527    23A     -0.524239    24A     -0.518422
      25A     -0.490609    26A     -0.484494    27A     -0.456374
      28A     -0.434060

  @DF-RHF Final Energy:  -345.03294314379980

   => Energetics <=

    Nuclear Repulsion Energy =            314.8071204118228934
    One-Electron Energy =               -1094.0927651442170827
    Two-Electron Energy =                 434.2527015885945048
    DFT Exchange-Correlation Energy =       0.0000000000000000
    Empirical Dispersion Energy =           0.0000000000000000
    PCM Polarization Energy =               0.0000000000000000
    EFP Energy =                            0.0000000000000000
    Total Energy =                       -345.0329431437996845
    Molecular point group: c1
  Basis Set: CC-PVTZ
  Basis Set:

  -Total Gradient:
     Atom            X                  Y                   Z
    ------   -----------------  -----------------  -----------------
       1       -0.000008914924    -0.000147445323    -0.000559574499
       2        0.000087536371    -0.000126363621     0.000946084051
       3       -0.000171615115     0.000465028756    -0.000617653405
       4       -0.000054537693     0.000243348620    -0.000071501417
       5        0.000057865680    -0.000005636881     0.000014613635
       6        0.000198562232    -0.000425469475     0.000283344422
       7        0.000005387097    -0.000004072917     0.000001452602
       8       -0.000033031616     0.000012085288     0.000019253300
       9        0.000004055009     0.000015438067     0.000005396091
      10       -0.000038282282     0.000021028453    -0.000014971599
      11        0.000008048414     0.000007940225    -0.000001206251
      12       -0.000021718040    -0.000005278097    -0.000002582068
      13       -0.000001981942    -0.000007735392    -0.000000933254
      14       -0.000032526211    -0.000080899787     0.000009315093
      15        0.000007619342     0.000013539778    -0.000001120140
      16       -0.000025591644     0.000007480274    -0.000003607479
      17        0.000019125319     0.000017012030    -0.000006309083

  **** Optimization is complete! (in 6 steps) ****
    Final optimized geometry and variables:
    Molecular point group: c1

    Geometry (in Angstrom), charge = 0, multiplicity = 1:

    O            1.775978759866    -0.860163595037     0.322959577037
    C            0.779618071553    -0.271246175548     0.070627329415
    C           -0.586867845873    -0.915859059338     0.083588710776
    O            0.763055668609     1.002828153377    -0.274795616163
    C           -1.794696020334     0.014141578920     0.055557582221
    H           -0.603410948022    -1.587851389850    -0.769482139581
    H           -0.607211895868    -1.552912880780     0.959275391719
    C           -3.106970474526    -0.761502605381     0.104226123507
    H           -1.763919249554     0.625486116016    -0.837460682838
    H           -1.745394610455     0.698388102527     0.895391141415
    H           -3.198122014157    -1.432853084775    -0.743195279435
    H           -3.955532515406    -0.088233870155     0.084759958434
    H           -3.178931764840    -1.358697819155     1.006990290611
    C            2.006681984947     1.672459243070    -0.338185754025
    H            2.494782249665     1.659923849323     0.624781704826
    H            1.783574033997     2.685706787053    -0.630496006059
    H            2.652888488420     1.206526800367    -1.066982734845

  Mulliken Charges: (a.u.)
   Center  Symbol    Alpha    Beta     Spin     Total
       1     O     4.20405  4.20405  0.00000 -0.40811
       2     C     2.81287  2.81287  0.00000  0.37426
       3     C     3.08760  3.08760  0.00000 -0.17520
       4     O     4.14130  4.14130  0.00000 -0.28261
       5     C     3.08012  3.08012  0.00000 -0.16023
       6     H     0.44212  0.44212  0.00000  0.11576
       7     H     0.43722  0.43722  0.00000  0.12557
       8     C     3.15248  3.15248  0.00000 -0.30496
       9     H     0.44702  0.44702  0.00000  0.10596
      10     H     0.44981  0.44981  0.00000  0.10037
      11     H     0.45478  0.45478  0.00000  0.09044
      12     H     0.44605  0.44605  0.00000  0.10790
      13     H     0.45436  0.45436  0.00000  0.09128
      14     C     3.03664  3.03664  0.00000 -0.07329
      15     H     0.45330  0.45330  0.00000  0.09340
      16     H     0.44686  0.44686  0.00000  0.10627
      17     H     0.45340  0.45340  0.00000  0.09319

   Total alpha = 28.00000, Total beta = 28.00000, Total charge =  0.00000

*** Psi4 exiting successfully. Buy a developer a beer!
