  ==> Input File <==

--------------------------------------------------------------------------
set {
	reference rhf
	basis 6-31G*
}

set_num_threads( 1 )
memory 2 gb

molecule MOL {
0 1

H	 1.740954	 -0.975837	 -0.891615
O	 1.586534	 -0.678666	 -0.000226
C	 0.489431	 0.077273	 0.000046
C	 -0.764129	 -0.759190	 0.000191
O	 0.537743	 1.263962	 0.000257
C	 -2.038368	 0.075731	 -0.000248
H	 -0.717284	 -1.412404	 -0.866059
H	 -0.717458	 -1.411724	 0.866967
H	 -2.086483	 0.712501	 -0.875098
H	 -2.908485	 -0.571682	 -0.000042
H	 -2.086576	 0.713280	 0.874068

	symmetry c1
}
set optking {
	frozen_dihedral = ("
		2 3 4 7
	")
}

ee = energy('scf')
oeprop('DIPOLE', 'QUADRUPOLE', 'MULLIKEN_CHARGES')
f=open( 'psi4out.xyz', 'w' )
f.write( "11  " )
f.write( str(ee) + "\n" )
f.write( MOL.save_string_xyz() )
f.close()
--------------------------------------------------------------------------

    Molecular point group: c1

    Geometry (in Angstrom), charge = 0, multiplicity = 1:

       Center              X                  Y                   Z               Mass
    ------------   -----------------  -----------------  -----------------  -----------------
           H          1.749159542591    -0.963932241912    -0.879480580272     1.007825032070
           O          1.594739542591    -0.666761241912     0.011908419728    15.994914619560
           C          0.497636542591     0.089177758088     0.012180419728    12.000000000000
           C         -0.755923457409    -0.747285241912     0.012325419728    12.000000000000
           O          0.545948542591     1.275866758088     0.012391419728    15.994914619560
           C         -2.030162457409     0.087635758088     0.011886419728    12.000000000000
           H         -0.709078457409    -1.400499241912    -0.853924580272     1.007825032070
           H         -0.709252457409    -1.399819241912     0.879101419728     1.007825032070
           H         -2.078277457409     0.724405758088    -0.862963580272     1.007825032070
           H         -2.900279457409    -0.559777241912     0.012092419728     1.007825032070
           H         -2.078370457409     0.725184758088     0.886202419728     1.007825032070

  Charge       = 0
  Multiplicity = 1
  Basis Set: 6-31G*
  Basis Set:

    Orbital Energies (a.u.)
    -----------------------

    Doubly Occupied:

       1A    -20.599952     2A    -20.561268     3A    -11.380861
       4A    -11.246733     5A    -11.221740     6A     -1.469809
       7A     -1.370869     8A     -1.065469     9A     -0.909498
      10A     -0.813779    11A     -0.714806    12A     -0.677670
      13A     -0.661701    14A     -0.618762    15A     -0.570789
      16A     -0.529707    17A     -0.519436    18A     -0.498283
      19A     -0.491362    20A     -0.446298

  @DF-RHF Final Energy:  -266.82271030470110

   => Energetics <=

    Nuclear Repulsion Energy =            179.8435508656247066
    One-Electron Energy =                -720.5949599089850608
    Two-Electron Energy =                 273.9286987386596479
    DFT Exchange-Correlation Energy =       0.0000000000000000
    Empirical Dispersion Energy =           0.0000000000000000
    PCM Polarization Energy =               0.0000000000000000
    EFP Energy =                            0.0000000000000000
    Total Energy =                       -266.8227103047007063

  Mulliken Charges: (a.u.)
   Center  Symbol    Alpha    Beta     Spin     Total
       1     H     0.26597  0.26597  0.00000  0.46806
       2     O     4.35530  4.35530  0.00000 -0.71059
       3     C     2.63642  2.63642  0.00000  0.72716
       4     C     3.20890  3.20890  0.00000 -0.41780
       5     O     4.25075  4.25075  0.00000 -0.50151
       6     C     3.23990  3.23990  0.00000 -0.47980
       7     H     0.41158  0.41158  0.00000  0.17684
       8     H     0.39598  0.39598  0.00000  0.20803
       9     H     0.41045  0.41045  0.00000  0.17910
      10     H     0.41747  0.41747  0.00000  0.16505
      11     H     0.40728  0.40728  0.00000  0.18544

   Total alpha = 20.00000, Total beta = 20.00000, Total charge = -0.00000
