  ==> Input File <==

--------------------------------------------------------------------------
set {
	reference rhf
	basis cc-pvtz
}

set_num_threads( 4 )
memory 2 gb

molecule MOL {
0 1

H	 -2.498963	 -0.741158	 -0.729149
O	 -2.346257	 -0.289210	 0.080372
C	 -1.183935	 0.486039	 -0.009831
C	 0.062853	 -0.375310	 0.027457
H	 -1.178881	 1.094526	 -0.908634
H	 -1.184406	 1.155156	 0.838676
O	 -0.172303	 -1.447594	 0.879724
H	 0.911700	 0.213645	 0.378863
H	 0.297735	 -0.718519	 -0.977836
C	 0.883781	 -2.344418	 0.987497
H	 1.777074	 -1.861466	 1.377444
H	 0.585365	 -3.126866	 1.669706
H	 1.125735	 -2.790665	 0.025809

	symmetry c1
}
set optking {
	frozen_dihedral = ("
		8 4 3 5
	")
}

ee = optimize('scf')
oeprop('DIPOLE', 'QUADRUPOLE', 'MULLIKEN_CHARGES')
f=open( 'psi4out.xyz', 'w' )
f.write( "13  " )
f.write( str(ee) + "\n" )
f.write( MOL.save_string_xyz() )
f.close()
--------------------------------------------------------------------------

    Molecular point group: c1
  Charge       = 0
  Multiplicity = 1
  Basis Set: CC-PVTZ
  Basis Set:
  @DF-RHF Final Energy:  -268.05469429969031
    Total Energy =                       -268.0546942996903113
    Molecular point group: c1
  Basis Set: CC-PVTZ
  Basis Set:
  Basis Set: CC-PVTZ
  Basis Set:
  @DF-RHF Final Energy:  -268.05589633566876
    Total Energy =                       -268.0558963356686490
  Basis Set: CC-PVTZ
  Basis Set:
  Basis Set: CC-PVTZ
  Basis Set:
  @DF-RHF Final Energy:  -268.05645651479438
    Total Energy =                       -268.0564565147943767
  Basis Set: CC-PVTZ
  Basis Set:
  Basis Set: CC-PVTZ
  Basis Set:
  @DF-RHF Final Energy:  -268.05660833307405
    Total Energy =                       -268.0566083330741094
  Basis Set: CC-PVTZ
  Basis Set:
  @DF-RHF Final Energy:  -268.05694391416409
    Total Energy =                       -268.0569439141643784
  @DF-RHF Final Energy:  -268.05725502147430
    Total Energy =                       -268.0572550214743615
  @DF-RHF Final Energy:  -268.05774323235346
    Total Energy =                       -268.0577432323536868
  @DF-RHF Final Energy:  -268.06062751254012
    Total Energy =                       -268.0606275125402362
  @DF-RHF Final Energy:  -267.96386595864698
    Total Energy =                       -267.9638659586469771
  @DF-RHF Final Energy:  -268.05618534760345
    Total Energy =                       -268.0561853476036163
  @DF-RHF Final Energy:  -268.06289194222757
    Total Energy =                       -268.0628919422275658
  @DF-RHF Final Energy:  -268.06311623506343
    Total Energy =                       -268.0631162350633758
  Basis Set: CC-PVTZ
  Basis Set:
  @DF-RHF Final Energy:  -268.06321021571631
    Total Energy =                       -268.0632102157161398
  Basis Set: CC-PVTZ
  Basis Set:
  Basis Set: CC-PVTZ
  Basis Set:
  @DF-RHF Final Energy:  -268.06326912086564
    Total Energy =                       -268.0632691208657548
  Basis Set: CC-PVTZ
  Basis Set:
  Basis Set: CC-PVTZ
  Basis Set:
  @DF-RHF Final Energy:  -268.06329260651160
    Total Energy =                       -268.0632926065117090
  Basis Set: CC-PVTZ
  Basis Set:
  Charge       = 0
  Multiplicity = 1
  Basis Set: CC-PVTZ
  Basis Set:

    Orbital Energies (a.u.)
    -----------------------

    Doubly Occupied:

       1A    -20.562332     2A    -20.538281     3A    -11.274216
       4A    -11.272534     5A    -11.267011     6A     -1.399563
       7A     -1.355126     8A     -1.020027     9A     -0.923675
      10A     -0.836243    11A     -0.705032    12A     -0.685725
      13A     -0.667033    14A     -0.636024    15A     -0.587855
      16A     -0.578647    17A     -0.547500    18A     -0.494574
      19A     -0.483066    20A     -0.440497    21A     -0.427001

  @DF-RHF Final Energy:  -268.06329398789518

   => Energetics <=

    Nuclear Repulsion Energy =            195.3544898787150146
    One-Electron Energy =                -753.4316406664672741
    Two-Electron Energy =                 290.0138567998569670
    DFT Exchange-Correlation Energy =       0.0000000000000000
    Empirical Dispersion Energy =           0.0000000000000000
    PCM Polarization Energy =               0.0000000000000000
    EFP Energy =                            0.0000000000000000
    Total Energy =                       -268.0632939878953493
    Molecular point group: c1
  Basis Set: CC-PVTZ
  Basis Set:

  -Total Gradient:
     Atom            X                  Y                   Z
    ------   -----------------  -----------------  -----------------
       1        0.000021880558    -0.000023663880     0.000030514092
       2       -0.000098839947     0.000018476050    -0.000065719427
       3        0.002940116471     0.004566446636     0.005771274403
       4        0.001617462520     0.001762099760    -0.007557872835
       5       -0.002679899724    -0.004144645314    -0.003606833554
       6        0.000003311296    -0.000002804608    -0.000004285827
       7        0.000045470718    -0.000160849223     0.000012096666
       8       -0.001729182429    -0.002057845842     0.005417302380
       9       -0.000030537110    -0.000039340394     0.000032218623
      10       -0.000125406565     0.000105694644    -0.000033223921
      11        0.000011488055     0.000004020576     0.000005319277
      12        0.000001726251    -0.000007631751     0.000004666587
      13        0.000022409907    -0.000019956655    -0.000005456464

  **** Optimization is complete! (in 16 steps) ****
    Final optimized geometry and variables:
    Molecular point group: c1

    Geometry (in Angstrom), charge = 0, multiplicity = 1:

    H           -1.727793982100    -0.195195794120    -0.031971803613
    O           -1.735879003435     0.555467014103    -0.599769226959
    C           -0.591541113234     1.314866963036    -0.346844040671
    C            0.654628859861     0.447869399420    -0.270693174096
    H           -0.502950970224     1.990795922712    -1.187245142527
    H           -0.702330068980     1.888808656951     0.568198055721
    O            0.355566383706    -0.660702204950     0.527274061490
    H            1.460028360936     1.007005984707     0.201573774768
    H            0.965426394389     0.123353799109    -1.260024594834
    C            1.398062228752    -1.568368364743     0.675671368631
    H            2.260801812177    -1.106908452339     1.150055235517
    H            1.047871395514    -2.376313723648     1.301256792296
    H            1.707847563550    -1.975693997700    -0.283484843627

  Mulliken Charges: (a.u.)
   Center  Symbol    Alpha    Beta     Spin     Total
       1     H     0.38405  0.38405  0.00000  0.23191
       2     O     4.20964  4.20964  0.00000 -0.41927
       3     C     2.95957  2.95957  0.00000  0.08087
       4     C     2.97373  2.97373  0.00000  0.05255
       5     H     0.46153  0.46153  0.00000  0.07695
       6     H     0.47125  0.47125  0.00000  0.05750
       7     O     4.18571  4.18571  0.00000 -0.37142
       8     H     0.47115  0.47115  0.00000  0.05770
       9     H     0.46936  0.46936  0.00000  0.06128
      10     C     3.02954  3.02954  0.00000 -0.05909
      11     H     0.46919  0.46919  0.00000  0.06162
      12     H     0.44644  0.44644  0.00000  0.10711
      13     H     0.46886  0.46886  0.00000  0.06229

   Total alpha = 21.00000, Total beta = 21.00000, Total charge = -0.00000
