  ==> Input File <==

--------------------------------------------------------------------------
set {
	reference rhf
	basis cc-pvtz
}

set_num_threads( 4 )
memory 2 gb

molecule MOL {
0 1

H	 -1.835082	 1.385983	 0.000069
C	 -1.300516	 0.441153	 -0.000028
O	 -0.006604	 0.654344	 -0.000106
O	 -1.828920	 -0.612308	 0.000113
C	 0.852093	 -0.482521	 -0.000161
C	 1.681400	 -0.434032	 1.261029
H	 1.470580	 -0.452987	 -0.885915
H	 0.247323	 -1.377010	 -0.046028
H	 2.278563	 0.468294	 1.295288
H	 2.347601	 -1.287891	 1.291947
H	 1.049153	 -0.460347	 2.139403

	symmetry c1
}
set optking {
	frozen_dihedral = ("
		7 5 3 2
	")
}

ee = optimize('scf')
oeprop('DIPOLE', 'QUADRUPOLE', 'MULLIKEN_CHARGES')
f=open( 'psi4out.xyz', 'w' )
f.write( "11  " )
f.write( str(ee) + "\n" )
f.write( MOL.save_string_xyz() )
f.close()
--------------------------------------------------------------------------

    Molecular point group: c1
  Charge       = 0
  Multiplicity = 1
  Basis Set: CC-PVTZ
  Basis Set:
  @DF-RHF Final Energy:  -266.92906259729870
    Total Energy =                       -266.9290625972986959
    Molecular point group: c1
  Basis Set: CC-PVTZ
  Basis Set:
  Basis Set: CC-PVTZ
  Basis Set:
  @DF-RHF Final Energy:  -266.92950855322277
    Total Energy =                       -266.9295085532226608
  Basis Set: CC-PVTZ
  Basis Set:
  Basis Set: CC-PVTZ
  Basis Set:
  @DF-RHF Final Energy:  -266.92891985069980
    Total Energy =                       -266.9289198506998559
  Basis Set: CC-PVTZ
  Basis Set:
  Basis Set: CC-PVTZ
  Basis Set:
  @DF-RHF Final Energy:  -266.92986993513568
    Total Energy =                       -266.9298699351356845
  Basis Set: CC-PVTZ
  Basis Set:
  Basis Set: CC-PVTZ
  Basis Set:
  @DF-RHF Final Energy:  -266.92992530269885
    Total Energy =                       -266.9299253026988481
  Basis Set: CC-PVTZ
  Basis Set:
  Basis Set: CC-PVTZ
  Basis Set:
  @DF-RHF Final Energy:  -266.92993536591490
    Total Energy =                       -266.9299353659149006
  Basis Set: CC-PVTZ
  Basis Set:
  Charge       = 0
  Multiplicity = 1
  Basis Set: CC-PVTZ
  Basis Set:

    Orbital Energies (a.u.)
    -----------------------

    Doubly Occupied:

       1A    -20.604529     2A    -20.544746     3A    -11.371397
       4A    -11.288613     5A    -11.224723     6A     -1.476839
       7A     -1.377605     8A     -1.052421     9A     -0.909175
      10A     -0.800257    11A     -0.748215    12A     -0.687566
      13A     -0.667854    14A     -0.614339    15A     -0.572783
      16A     -0.552873    17A     -0.535569    18A     -0.503996
      19A     -0.459596    20A     -0.457515

  @DF-RHF Final Energy:  -266.92993574785652

   => Energetics <=

    Nuclear Repulsion Energy =            180.1354433334570899
    One-Electron Energy =                -721.2295381902544023
    Two-Electron Energy =                 274.1641591089409076
    DFT Exchange-Correlation Energy =       0.0000000000000000
    Empirical Dispersion Energy =           0.0000000000000000
    PCM Polarization Energy =               0.0000000000000000
    EFP Energy =                            0.0000000000000000
    Total Energy =                       -266.9299357478563479
    Molecular point group: c1
  Basis Set: CC-PVTZ
  Basis Set:

  -Total Gradient:
     Atom            X                  Y                   Z
    ------   -----------------  -----------------  -----------------
       1       -0.000003419260     0.000005069677    -0.000007822080
       2       -0.000034668632    -0.000009439894    -0.000167540209
       3       -0.000024146014    -0.000020278301     0.000239803407
       4        0.000023185961     0.000016090395    -0.000007983489
       5        0.000157010097     0.000120985494     0.000048284960
       6        0.000020449764     0.000001571639    -0.000006445262
       7       -0.000142179544    -0.000106737293    -0.000099571163
       8        0.000002956470    -0.000008583891    -0.000006180846
       9        0.000003041736     0.000000153718     0.000007828838
      10        0.000000437499     0.000000642845     0.000004979704
      11       -0.000002668078     0.000000525611    -0.000005353860

  **** Optimization is complete! (in 7 steps) ****
    Final optimized geometry and variables:
    Molecular point group: c1

    Geometry (in Angstrom), charge = 0, multiplicity = 1:

    H           -1.685472287763     1.506411627001    -0.299433620972
    C           -1.185940119865     0.542854841606    -0.275060360397
    O            0.114347315935     0.721155515626    -0.261310930963
    O           -1.757946261650    -0.487286988535    -0.262366489695
    C            0.988094385831    -0.406436277766    -0.232389758019
    C            1.843248777994    -0.349885696307     1.014149464048
    H            1.594772647907    -0.341693033223    -1.124540719626
    H            0.405299076205    -1.310978482128    -0.272733745181
    H            2.399837326603     0.577595651090     1.058835159521
    H            2.547875219653    -1.173458821825     1.011629568946
    H            1.231263856202    -0.427823604180     1.904201743918

  Mulliken Charges: (a.u.)
   Center  Symbol    Alpha    Beta     Spin     Total
       1     H     0.45059  0.45059  0.00000  0.09882
       2     C     2.83947  2.83947  0.00000  0.32106
       3     O     4.14944  4.14944  0.00000 -0.29887
       4     O     4.19633  4.19633  0.00000 -0.39266
       5     C     2.98116  2.98116  0.00000  0.03769
       6     C     3.13478  3.13478  0.00000 -0.26956
       7     H     0.45068  0.45068  0.00000  0.09865
       8     H     0.44299  0.44299  0.00000  0.11403
       9     H     0.45056  0.45056  0.00000  0.09887
      10     H     0.45385  0.45385  0.00000  0.09231
      11     H     0.45017  0.45017  0.00000  0.09966

   Total alpha = 20.00000, Total beta = 20.00000, Total charge = -0.00000
