                              Psi4 1.0.54 Driver

  ==> Input File <==

--------------------------------------------------------------------------
set {
	reference rhf
	basis cc-pvtz
}

set_num_threads( 4 )
memory 2 gb

molecule MOL {
0 1

H	 -3.436473	 1.252944	 -1.023892
O	 -3.458596	 0.315260	 -0.960865
C	 -3.176635	 -0.080824	 0.355601
C	 -1.763371	 0.265266	 0.799691
H	 -3.321825	 -1.153438	 0.379502
H	 -3.895468	 0.357385	 1.043382
C	 -0.673390	 -0.426948	 -0.013392
H	 -1.631049	 1.344913	 0.747560
H	 -1.664587	 -0.001624	 1.849167
C	 0.737842	 -0.043159	 0.423759
H	 -0.806103	 -0.190518	 -1.063345
H	 -0.797221	 -1.503753	 0.074146
C	 1.824000	 -0.743224	 -0.390623
H	 0.850588	 1.033777	 0.343840
H	 0.868587	 -0.286314	 1.476203
C	 3.255957	 -0.453067	 0.062319
H	 1.718250	 -0.470599	 -1.438164
H	 1.658105	 -1.815850	 -0.339904
C	 3.668650	 1.014220	 -0.026544
H	 3.934357	 -1.041868	 -0.547486
H	 3.386793	 -0.802674	 1.083141
H	 3.542733	 1.393346	 -1.035744
H	 4.711304	 1.137296	 0.243581
H	 3.085228	 1.640926	 0.637130

	symmetry c1
}
set optking {
	frozen_dihedral = ("
		20 16 13 17
	")
}

ee,wfn = optimize('scf', return_wfn=True)
oeprop( wfn, 'DIPOLE', 'QUADRUPOLE', 'MULLIKEN_CHARGES')
f=open( 'psi4out.xyz', 'w' )
f.write( "24  " )
f.write( str(ee) + "\n" )
f.write( MOL.save_string_xyz() )
f.close()
--------------------------------------------------------------------------

    Molecular point group: c1
  Charge       = 0
  Multiplicity = 1
  Basis Set: CC-PVTZ
  Basis Set:
  @DF-RHF Final Energy:  -349.38033747198898
    Total Energy =                       -349.3803374719888666
    Molecular point group: c1
  Basis Set: CC-PVTZ
  Basis Set:
  Basis Set: CC-PVTZ
  Basis Set:
  @DF-RHF Final Energy:  -349.38032038992122
    Total Energy =                       -349.3803203899211667
  Basis Set: CC-PVTZ
  Basis Set:
  Basis Set: CC-PVTZ
  Basis Set:
  @DF-RHF Final Energy:  -349.38036337804232
    Total Energy =                       -349.3803633780421478
  Basis Set: CC-PVTZ
  Basis Set:
  Charge       = 0
  Multiplicity = 1
  Basis Set: CC-PVTZ
  Basis Set:

    Orbital Energies (a.u.)
    -----------------------

    Doubly Occupied:

       1A    -20.546266     2A    -11.265515     3A    -11.215174
       4A    -11.212144     5A    -11.210224     6A    -11.209424
       7A    -11.208978     8A    -11.205212     9A     -1.364118
      10A     -1.089878    11A     -1.049387    12A     -0.986613
      13A     -0.916091    14A     -0.851746    15A     -0.801694
      16A     -0.775637    17A     -0.681898    18A     -0.654718
      19A     -0.627041    20A     -0.621051    21A     -0.597518
      22A     -0.586180    23A     -0.558330    24A     -0.542448
      25A     -0.515903    26A     -0.508904    27A     -0.500837
      28A     -0.473126    29A     -0.467972    30A     -0.461077
      31A     -0.455895    32A     -0.451352    33A     -0.421359

  @DF-RHF Final Energy:  -349.38036356342764

   => Energetics <=

    Nuclear Repulsion Energy =            385.0213103506994230
    One-Electron Energy =               -1236.7359280758983004
    Two-Electron Energy =                 502.3342541617712982
    DFT Exchange-Correlation Energy =       0.0000000000000000
    Empirical Dispersion Energy =           0.0000000000000000
    PCM Polarization Energy =               0.0000000000000000
    EFP Energy =                            0.0000000000000000
    Total Energy =                       -349.3803635634275793
    Molecular point group: c1
  Basis Set: CC-PVTZ
  Basis Set:

  -Total Gradient:
     Atom            X                  Y                   Z
    ------   -----------------  -----------------  -----------------
       1       -0.000000828214     0.000005132182    -0.000003484676
       2        0.000000796757     0.000004755399    -0.000005311543
       3        0.000005839653    -0.000015537402     0.000005524268
       4       -0.000003833165    -0.000012300377     0.000020409510
       5       -0.000001808390    -0.000004091201     0.000003938228
       6        0.000001011429     0.000001946061     0.000001851859
       7        0.000009224026    -0.000010796701    -0.000012961020
       8        0.000001273769    -0.000004006398    -0.000006115272
       9       -0.000004246312     0.000005666265     0.000011711009
      10       -0.000012828840     0.000050033461    -0.000035138945
      11        0.000005442936     0.000009325484     0.000001584133
      12       -0.000005140916    -0.000007259607    -0.000010643452
      13       -0.000278125331     0.001110413805     0.000205390421
      14        0.000008597949     0.000011990131    -0.000005401842
      15        0.000011331060    -0.000001822710    -0.000014819389
      16       -0.000019390210    -0.000995805192     0.000646376646
      17        0.000222591009    -0.000791647893    -0.000216106019
      18       -0.000005050157    -0.000021073084    -0.000014036058
      19        0.000006003028     0.000002422401     0.000009098258
      20        0.000059196761     0.000649936699    -0.000578214623
      21       -0.000001010082     0.000004266215    -0.000000462042
      22        0.000000877286    -0.000000482685    -0.000004904730
      23        0.000001845489    -0.000000089972     0.000002968998
      24       -0.000001769537     0.000009025119    -0.000001253722

  **** Optimization is complete! (in 4 steps) ****
    Final optimized geometry and variables:
    Molecular point group: c1

    Geometry (in Angstrom), charge = 0, multiplicity = 1:

    H           -3.452248356372     1.219942407587    -1.034467531764
    O           -3.464533139365     0.282359334799    -0.967573778486
    C           -3.173445913695    -0.105292118224     0.349335553108
    C           -1.761976003792     0.256917240685     0.786278698565
    H           -3.307715349940    -1.179221170094     0.377934872025
    H           -3.894037125570     0.328327328230     1.038201207339
    C           -0.668272577470    -0.425568520364    -0.030035371315
    H           -1.641379087197     1.337776717250     0.731002779248
    H           -1.655734044907    -0.006351114942     1.835957497782
    C            0.740856723768    -0.030025484104     0.403555002708
    H           -0.805700652138    -0.189780291660    -1.079568369378
    H           -0.782803308687    -1.503394024001     0.057311084676
    C            1.829902470983    -0.721156104565    -0.413910960027
    H            0.844426330982     1.047691715134     0.323263316436
    H            0.876309470658    -0.272032475844     1.455793182202
    C            3.261893246481    -0.444885407464     0.047588410605
    H            1.730859329622    -0.440422512351    -1.459960486332
    H            1.662053614650    -1.794328377286    -0.377427454774
    C            3.690626168785     1.018435313447    -0.036917692723
    H            3.936564904774    -1.035457615336    -0.564680192323
    H            3.385787263420    -0.797727529601     1.067967003864
    H            3.558899446871     1.405540908398    -1.042469967858
    H            4.737514315367     1.127006955509     0.222839302908
    H            3.122041750588     1.648008655007     0.636715646667

  Mulliken Charges: (a.u.)
   Center  Symbol    Alpha    Beta     Spin     Total
       1     H     0.39530  0.39530  0.00000  0.20940
       2     O     4.20373  4.20373  0.00000 -0.40745
       3     C     2.97773  2.97773  0.00000  0.04454
       4     C     3.10181  3.10181  0.00000 -0.20362
       5     H     0.45891  0.45891  0.00000  0.08217
       6     H     0.46034  0.46034  0.00000  0.07933
       7     C     3.08677  3.08677  0.00000 -0.17355
       8     H     0.45926  0.45926  0.00000  0.08148
       9     H     0.45342  0.45342  0.00000  0.09315
      10     C     3.09202  3.09202  0.00000 -0.18404
      11     H     0.44648  0.44648  0.00000  0.10704
      12     H     0.45499  0.45499  0.00000  0.09002
      13     C     3.09495  3.09495  0.00000 -0.18989
      14     H     0.45298  0.45298  0.00000  0.09404
      15     H     0.45607  0.45607  0.00000  0.08786
      16     C     3.09005  3.09005  0.00000 -0.18009
      17     H     0.45308  0.45308  0.00000  0.09384
      18     H     0.45002  0.45002  0.00000  0.09996
      19     C     3.15368  3.15368  0.00000 -0.30737
      20     H     0.44884  0.44884  0.00000  0.10231
      21     H     0.45467  0.45467  0.00000  0.09066
      22     H     0.45470  0.45470  0.00000  0.09060
      23     H     0.44637  0.44637  0.00000  0.10727
      24     H     0.45383  0.45383  0.00000  0.09234

   Total alpha = 33.00000, Total beta = 33.00000, Total charge = -0.00000

*** Psi4 exiting successfully. Buy a developer a beer!
