  ==> Input File <==

--------------------------------------------------------------------------
set {
	reference rhf
	basis 6-31G*
}

set_num_threads( 4 )
memory 2 gb

molecule MOL {
0 1

O	 1.214711	 1.306902	 -0.000018
C	 1.122059	 0.121804	 -0.000188
C	 -0.170150	 -0.657997	 -0.000612
O	 2.172624	 -0.688929	 0.000216
C	 -1.412532	 0.227344	 -0.000452
H	 -0.153702	 -1.313099	 -0.867402
H	 -0.153924	 -1.313811	 0.865644
C	 -1.517192	 1.082515	 -1.264215
H	 -1.396666	 0.866990	 0.876534
H	 -2.296373	 -0.395464	 0.096698
C	 -2.759848	 1.971747	 -1.272912
H	 -0.628804	 1.703972	 -1.357136
H	 -1.530090	 0.436798	 -2.139974
H	 -2.759311	 2.653457	 -0.427380
H	 -2.809886	 2.567473	 -2.178938
H	 -3.667029	 1.377211	 -1.216438
C	 3.452279	 -0.082609	 0.000533
H	 3.583069	 0.529321	 -0.880332
H	 4.163299	 -0.894027	 0.001117
H	 3.582335	 0.529955	 0.881077

	symmetry c1
}
set optking {
	frozen_dihedral = ("
		9 5 3 6
	")
}

ee = optimize('scf')
oeprop('DIPOLE', 'QUADRUPOLE', 'MULLIKEN_CHARGES')
f=open( 'psi4out.xyz', 'w' )
f.write( "20  " )
f.write( str(ee) + "\n" )
f.write( MOL.save_string_xyz() )
f.close()
--------------------------------------------------------------------------

    Molecular point group: c1
  Charge       = 0
  Multiplicity = 1
  Basis Set: 6-31G*
  Basis Set:
  @DF-RHF Final Energy:  -383.93946546384950
    Total Energy =                       -383.9394654638492739
    Molecular point group: c1
  Basis Set: 6-31G*
  Basis Set:
  Basis Set: 6-31G*
  Basis Set:
  @DF-RHF Final Energy:  -383.94069679052558
    Total Energy =                       -383.9406967905255215
  Basis Set: 6-31G*
  Basis Set:
  Basis Set: 6-31G*
  Basis Set:
  @DF-RHF Final Energy:  -383.93940611565728
    Total Energy =                       -383.9394061156568796
  Basis Set: 6-31G*
  Basis Set:
  Basis Set: 6-31G*
  Basis Set:
  @DF-RHF Final Energy:  -383.94100816840762
    Total Energy =                       -383.9410081684071656
  Basis Set: 6-31G*
  Basis Set:
  @DF-RHF Final Energy:  -383.94108915200644
    Total Energy =                       -383.9410891520067253
  @DF-RHF Final Energy:  -383.94112663889985
    Total Energy =                       -383.9411266388997319
  Basis Set: 6-31G*
  Basis Set:
  @DF-RHF Final Energy:  -383.94113230227867
    Total Energy =                       -383.9411323022787883
  Basis Set: 6-31G*
  Basis Set:
  Basis Set: 6-31G*
  Basis Set:
  @DF-RHF Final Energy:  -383.94113589071827
    Total Energy =                       -383.9411358907185559
  Basis Set: 6-31G*
  Basis Set:
  Basis Set: 6-31G*
  Basis Set:
  @DF-RHF Final Energy:  -383.94113804751987
    Total Energy =                       -383.9411380475193027
  Basis Set: 6-31G*
  Basis Set:
  Charge       = 0
  Multiplicity = 1
  Basis Set: 6-31G*
  Basis Set:

    Orbital Energies (a.u.)
    -----------------------

    Doubly Occupied:

       1A    -20.604982     2A    -20.545849     3A    -11.373276
       4A    -11.281511     5A    -11.235922     6A    -11.220534
       7A    -11.213646     8A    -11.207127     9A     -1.470453
      10A     -1.363418    11A     -1.086648    12A     -1.021973
      13A     -0.969145    14A     -0.884262    15A     -0.805919
      16A     -0.766068    17A     -0.701268    18A     -0.680785
      19A     -0.672117    20A     -0.632149    21A     -0.605892
      22A     -0.587546    23A     -0.580294    24A     -0.540188
      25A     -0.533941    26A     -0.517300    27A     -0.511472
      28A     -0.476714    29A     -0.471295    30A     -0.462994
      31A     -0.455544    32A     -0.435661

  @DF-RHF Final Energy:  -383.94113885970484

   => Energetics <=

    Nuclear Repulsion Energy =            388.9819624759032308
    One-Electron Energy =               -1294.0144181486141406
    Two-Electron Energy =                 521.0913168130064150
    DFT Exchange-Correlation Energy =       0.0000000000000000
    Empirical Dispersion Energy =           0.0000000000000000
    PCM Polarization Energy =               0.0000000000000000
    EFP Energy =                            0.0000000000000000
    Total Energy =                       -383.9411388597045516
    Molecular point group: c1
  Basis Set: 6-31G*
  Basis Set:

  -Total Gradient:
     Atom            X                  Y                   Z
    ------   -----------------  -----------------  -----------------
       1       -0.000007901739     0.000011215896     0.000000501324
       2        0.000015322413    -0.000021078817    -0.000012323777
       3        0.000674416481     0.000885442857    -0.000698047101
       4       -0.000015364813     0.000013769670     0.000001054843
       5        0.000611927453     0.000805036180    -0.000639287638
       6       -0.000650514292    -0.000848575326     0.000674519517
       7       -0.000005546305    -0.000002118603     0.000000095937
       8        0.000003950157    -0.000013130071     0.000006482129
       9       -0.000635006968    -0.000837319129     0.000655206181
      10       -0.000004447491     0.000001306678     0.000003237879
      11       -0.000004120954     0.000001007266     0.000003014321
      12        0.000008770021     0.000006830777     0.000000668164
      13        0.000003520556     0.000002994213     0.000001890304
      14        0.000001804707     0.000000614798    -0.000001293481
      15       -0.000000142599    -0.000002076120    -0.000000206217
      16        0.000001903759    -0.000000840624     0.000000961799
      17        0.000008100050    -0.000001722245     0.000006346865
      18       -0.000004167298    -0.000000795085    -0.000000851750
      19       -0.000001353379    -0.000000396708    -0.000000957025
      20       -0.000001149753    -0.000000165610    -0.000001012276

  **** Optimization is complete! (in 10 steps) ****
    Final optimized geometry and variables:
    Molecular point group: c1

    Geometry (in Angstrom), charge = 0, multiplicity = 1:

    O            0.967030387395     0.854227893530     0.682968653917
    C            0.839037726795    -0.294357066878     0.401841588448
    C           -0.472436477369    -1.040112244170     0.335470474042
    O            1.863511127108    -1.094893699397     0.140643842788
    C           -1.705082306461    -0.139299004465     0.279694486740
    H           -0.441887067227    -1.727228050151    -0.503340296659
    H           -0.505001849279    -1.664863009538     1.225628659811
    C           -1.833776992828     0.664556302562    -1.015740891193
    H           -1.697028976987     0.530124025989     1.133527880075
    H           -2.582289269650    -0.772511732361     0.392147991080
    C           -3.100614685645     1.518481709628    -1.049412282161
    H           -0.965915561483     1.304432696995    -1.133190928641
    H           -1.838326178903    -0.019667233054    -1.862600159928
    H           -3.109432056362     2.234881855469    -0.233214959803
    H           -3.172987548423     2.075247931381    -1.978429432998
    H           -3.992805735947     0.904517639091    -0.961253767033
    C            3.159046434778    -0.528262203883     0.220114851181
    H            3.263043443404     0.281523740399    -0.487524012160
    H            3.844855959295    -1.325604181861    -0.020221626784
    H            3.350823246625    -0.156537903552     1.216375114551

  Mulliken Charges: (a.u.)
   Center  Symbol    Alpha    Beta     Spin     Total
       1     O     4.28751  4.28751  0.00000 -0.57501
       2     C     2.60542  2.60542  0.00000  0.78917
       3     C     3.20970  3.20970  0.00000 -0.41941
       4     O     4.30602  4.30602  0.00000 -0.61205
       5     C     3.15253  3.15253  0.00000 -0.30505
       6     H     0.40078  0.40078  0.00000  0.19843
       7     H     0.39804  0.39804  0.00000  0.20392
       8     C     3.15807  3.15807  0.00000 -0.31614
       9     H     0.40867  0.40867  0.00000  0.18265
      10     H     0.41992  0.41992  0.00000  0.16016
      11     C     3.24027  3.24027  0.00000 -0.48054
      12     H     0.40773  0.40773  0.00000  0.18454
      13     H     0.42603  0.42603  0.00000  0.14793
      14     H     0.41866  0.41866  0.00000  0.16268
      15     H     0.41871  0.41871  0.00000  0.16258
      16     H     0.42332  0.42332  0.00000  0.15336
      17     C     3.09256  3.09256  0.00000 -0.18511
      18     H     0.40872  0.40872  0.00000  0.18256
      19     H     0.40827  0.40827  0.00000  0.18345
      20     H     0.40906  0.40906  0.00000  0.18188

   Total alpha = 32.00000, Total beta = 32.00000, Total charge = -0.00000
