                              Psi4 1.0.54 Driver

  ==> Input File <==

--------------------------------------------------------------------------
set {
	reference rhf
	basis cc-pvtz
}

set_num_threads( 4 )
memory 2 gb

molecule MOL {
0 1

H	 -0.694138	 -1.497124	 0.975101
C	 -0.264926	 -0.516272	 1.145003
N	 0.526300	 -0.128137	 0.000000
H	 0.366049	 -0.581507	 2.022302
H	 -1.085328	 0.170320	 1.364328
C	 -0.247113	 0.037112	 -1.209233
H	 1.026633	 0.710301	 0.200868
H	 -0.996493	 -0.743733	 -1.271440
H	 0.397975	 -0.057351	 -2.073512
H	 -0.763794	 0.997171	 -1.271673

	symmetry c1
}
set optking {
	frozen_dihedral = ("
		2 3 6 8
	")
}

ee,wfn = optimize('scf', return_wfn=True)
oeprop( wfn, 'DIPOLE', 'QUADRUPOLE', 'MULLIKEN_CHARGES')
f=open( 'psi4out.xyz', 'w' )
f.write( "10  " )
f.write( str(ee) + "\n" )
f.write( MOL.save_string_xyz() )
f.close()
--------------------------------------------------------------------------

    Molecular point group: c1
  Charge       = 0
  Multiplicity = 1
  Basis Set: CC-PVTZ
  Basis Set:
  @DF-RHF Final Energy:  -134.29125333942534
    Total Energy =                       -134.2912533394253387
    Molecular point group: c1
  Basis Set: CC-PVTZ
  Basis Set:
  Basis Set: CC-PVTZ
  Basis Set:
  @DF-RHF Final Energy:  -134.29141898574784
    Total Energy =                       -134.2914189857478675
  Basis Set: CC-PVTZ
  Basis Set:
  Basis Set: CC-PVTZ
  Basis Set:
  @DF-RHF Final Energy:  -134.29144238759358
    Total Energy =                       -134.2914423875935768
  Basis Set: CC-PVTZ
  Basis Set:
  Charge       = 0
  Multiplicity = 1
  Basis Set: CC-PVTZ
  Basis Set:

    Orbital Energies (a.u.)
    -----------------------

    Doubly Occupied:

       1A    -15.530542     2A    -11.234433     3A    -11.234064
       4A     -1.198832     5A     -0.947993     6A     -0.855445
       7A     -0.662577     8A     -0.610340     9A     -0.591600
      10A     -0.539571    11A     -0.513365    12A     -0.508632
      13A     -0.359894

  @DF-RHF Final Energy:  -134.29144384761099

   => Energetics <=

    Nuclear Repulsion Energy =             84.6665546118177588
    One-Electron Energy =                -348.3414184173476542
    Two-Electron Energy =                 129.3834199579188180
    DFT Exchange-Correlation Energy =       0.0000000000000000
    Empirical Dispersion Energy =           0.0000000000000000
    PCM Polarization Energy =               0.0000000000000000
    EFP Energy =                            0.0000000000000000
    Total Energy =                       -134.2914438476110490
    Molecular point group: c1
  Basis Set: CC-PVTZ
  Basis Set:

  -Total Gradient:
     Atom            X                  Y                   Z
    ------   -----------------  -----------------  -----------------
       1        0.000034345147     0.000039281256    -0.000043838108
       2        0.000338427267    -0.002655191366    -0.000479431079
       3       -0.001058734158     0.004207618626     0.001283813730
       4        0.000000452386    -0.000008123069     0.000032861598
       5        0.000037500305    -0.000006806065    -0.000037533692
       6        0.002984070438    -0.003651590391    -0.002577996605
       7       -0.000042538851    -0.000010055458    -0.000012327225
       8       -0.002303279046     0.002083646479     0.001758629428
       9        0.000012582836     0.000021485848     0.000063548337
      10       -0.000002826326    -0.000020265861     0.000012273616

  **** Optimization is complete! (in 4 steps) ****
    Final optimized geometry and variables:
    Molecular point group: c1

    Geometry (in Angstrom), charge = 0, multiplicity = 1:

    H           -0.680027649868    -1.306715252339     1.005005202188
    C           -0.255486326551    -0.323382709677     1.168656340343
    N            0.532151770891     0.060353151938     0.020497583587
    H            0.379952909793    -0.381670227216     2.043418790932
    H           -1.077303621735     0.360337937879     1.393169129072
    C           -0.228062514936     0.225560701157    -1.199162335803
    H            1.065513686102     0.878406379355     0.215758985838
    H           -0.976667572549    -0.554525522547    -1.264018997172
    H            0.418770760825     0.156642528406    -2.064491783372
    H           -0.766608397467     1.173706220564    -1.250412271722

  Mulliken Charges: (a.u.)
   Center  Symbol    Alpha    Beta     Spin     Total
       1     H     0.45679  0.45679  0.00000  0.08642
       2     C     3.08027  3.08027  0.00000 -0.16053
       3     N     3.63221  3.63221  0.00000 -0.26442
       4     H     0.45270  0.45270  0.00000  0.09459
       5     H     0.47583  0.47583  0.00000  0.04835
       6     C     3.08183  3.08183  0.00000 -0.16365
       7     H     0.43953  0.43953  0.00000  0.12094
       8     H     0.45858  0.45858  0.00000  0.08284
       9     H     0.45189  0.45189  0.00000  0.09622
      10     H     0.47037  0.47037  0.00000  0.05925

   Total alpha = 13.00000, Total beta = 13.00000, Total charge = -0.00000

*** Psi4 exiting successfully. Buy a developer a beer!
