  ==> Input File <==

--------------------------------------------------------------------------
set {
	reference rhf
	basis 6-31G*
}

set_num_threads( 1 )
memory 2 gb

molecule MOL {
0 1

O	 0.749854	 1.307668	 -0.000040
C	 0.576249	 0.131685	 -0.000108
C	 -0.766779	 -0.556801	 -0.000461
O	 1.568443	 -0.749345	 -0.000005
C	 -1.945214	 0.412366	 0.000161
H	 -0.796911	 -1.211249	 -0.867467
H	 -0.796854	 -1.212390	 0.865687
C	 -2.925489	 0.122748	 1.135832
H	 -2.457022	 0.354262	 -0.954448
H	 -1.573328	 1.428006	 0.082327
H	 -3.336711	 -0.879870	 1.057685
H	 -3.755351	 0.821624	 1.118401
H	 -2.443536	 0.206878	 2.105944
C	 2.886820	 -0.232538	 0.000322
H	 3.059106	 0.369571	 -0.880203
H	 3.540187	 -1.091012	 0.000050
H	 3.059019	 0.368956	 0.881266

	symmetry c1
}
set optking {
	frozen_dihedral = ("
		1 2 3 6,
		14 4 2 1
	")
}

ee = energy('scf')
oeprop('DIPOLE', 'QUADRUPOLE', 'MULLIKEN_CHARGES')
f=open( 'psi4out.xyz', 'w' )
f.write( "17  " )
f.write( str(ee) + "\n" )
f.write( MOL.save_string_xyz() )
f.close()
--------------------------------------------------------------------------

    Molecular point group: c1

    Geometry (in Angstrom), charge = 0, multiplicity = 1:

       Center              X                  Y                   Z               Mass
    ------------   -----------------  -----------------  -----------------  -----------------
           O          0.696521391392     1.242926791595    -0.167224018063    15.994914619560
           C          0.522916391392     0.066943791595    -0.167292018063    12.000000000000
           C         -0.820111608608    -0.621542208405    -0.167645018063    12.000000000000
           O          1.515110391392    -0.814086208405    -0.167189018063    15.994914619560
           C         -1.998546608608     0.347624791595    -0.167023018063    12.000000000000
           H         -0.850243608608    -1.275990208405    -1.034651018063     1.007825032070
           H         -0.850186608608    -1.277131208405     0.698502981937     1.007825032070
           C         -2.978821608608     0.058006791595     0.968647981937    12.000000000000
           H         -2.510354608608     0.289520791595    -1.121632018063     1.007825032070
           H         -1.626660608608     1.363264791595    -0.084857018063     1.007825032070
           H         -3.390043608608    -0.944611208405     0.890500981937     1.007825032070
           H         -3.808683608608     0.756882791595     0.951216981937     1.007825032070
           H         -2.496868608608     0.142136791595     1.938759981937     1.007825032070
           C          2.833487391392    -0.297279208405    -0.166862018063    12.000000000000
           H          3.005773391392     0.304829791595    -1.047387018063     1.007825032070
           H          3.486854391392    -1.155753208405    -0.167134018063     1.007825032070
           H          3.005686391392     0.304214791595     0.714081981937     1.007825032070

  Charge       = 0
  Multiplicity = 1
  Basis Set: 6-31G*
  Basis Set:

    Orbital Energies (a.u.)
    -----------------------

    Doubly Occupied:

       1A    -20.604723     2A    -20.546768     3A    -11.373422
       4A    -11.281484     5A    -11.234459     6A    -11.217487
       7A    -11.212622     8A     -1.470476     9A     -1.364317
      10A     -1.079556    11A     -1.000704    12A     -0.938885
      13A     -0.827735    14A     -0.766761    15A     -0.703903
      16A     -0.682326    17A     -0.673444    18A     -0.629171
      19A     -0.602447    20A     -0.570532    21A     -0.569032
      22A     -0.531665    23A     -0.524410    24A     -0.487511
      25A     -0.486550    26A     -0.473228    27A     -0.458052
      28A     -0.440838

  @DF-RHF Final Energy:  -344.90180141425901

   => Energetics <=

    Nuclear Repulsion Energy =            314.0210316730574505
    One-Electron Energy =               -1092.3406465983543967
    Two-Electron Energy =                 433.4178135110367407
    DFT Exchange-Correlation Energy =       0.0000000000000000
    Empirical Dispersion Energy =           0.0000000000000000
    PCM Polarization Energy =               0.0000000000000000
    EFP Energy =                            0.0000000000000000
    Total Energy =                       -344.9018014142602055

  Mulliken Charges: (a.u.)
   Center  Symbol    Alpha    Beta     Spin     Total
       1     O     4.28439  4.28439  0.00000 -0.56878
       2     C     2.61206  2.61206  0.00000  0.77587
       3     C     3.20947  3.20947  0.00000 -0.41894
       4     O     4.30528  4.30528  0.00000 -0.61057
       5     C     3.16218  3.16218  0.00000 -0.32437
       6     H     0.39755  0.39755  0.00000  0.20490
       7     H     0.39790  0.39790  0.00000  0.20419
       8     C     3.24351  3.24351  0.00000 -0.48702
       9     H     0.41806  0.41806  0.00000  0.16388
      10     H     0.39190  0.39190  0.00000  0.21621
      11     H     0.42232  0.42232  0.00000  0.15536
      12     H     0.41709  0.41709  0.00000  0.16583
      13     H     0.41973  0.41973  0.00000  0.16054
      14     C     3.09230  3.09230  0.00000 -0.18461
      15     H     0.40893  0.40893  0.00000  0.18214
      16     H     0.40833  0.40833  0.00000  0.18335
      17     H     0.40899  0.40899  0.00000  0.18202

   Total alpha = 28.00000, Total beta = 28.00000, Total charge =  0.00000
