  ==> Input File <==

--------------------------------------------------------------------------
set {
	reference rhf
	basis cc-pvtz
}

set_num_threads( 4 )
memory 2 gb

molecule MOL {
0 1

H	 -1.752232	 -2.214755	 -0.011938
C	 -1.343852	 -1.221619	 -0.018179
N	 -0.058800	 -1.097635	 -0.261688
C	 -2.148159	 -0.124236	 0.219734
C	 0.449026	 0.119242	 -0.273393
H	 -3.196988	 -0.237571	 0.417076
N	 -1.655094	 1.094230	 0.209506
C	 -0.370318	 1.215445	 -0.035100
C	 1.924033	 0.265863	 -0.538106
H	 0.033214	 2.210441	 -0.046812
C	 2.424679	 1.693025	 -0.310040
H	 2.454308	 -0.411014	 0.120992
H	 2.138947	 -0.041193	 -1.554837
H	 3.493665	 1.751082	 -0.476871
H	 2.220687	 2.010771	 0.704062
H	 1.940836	 2.389050	 -0.986051

	symmetry c1
}
set optking {
	frozen_dihedral = ("
		12 9 5 3
	")
}

ee = optimize('scf')
oeprop('DIPOLE', 'QUADRUPOLE', 'MULLIKEN_CHARGES')
f=open( 'psi4out.xyz', 'w' )
f.write( "16  " )
f.write( str(ee) + "\n" )
f.write( MOL.save_string_xyz() )
f.close()
--------------------------------------------------------------------------

    Molecular point group: c1
  Charge       = 0
  Multiplicity = 1
  Basis Set: CC-PVTZ
  Basis Set:
  @DF-RHF Final Energy:  -340.86865205461834
    Total Energy =                       -340.8686520546183374
    Molecular point group: c1
  Basis Set: CC-PVTZ
  Basis Set:
  Basis Set: CC-PVTZ
  Basis Set:
  @DF-RHF Final Energy:  -340.86975341144131
    Total Energy =                       -340.8697534114413656
  Basis Set: CC-PVTZ
  Basis Set:
  Basis Set: CC-PVTZ
  Basis Set:
  @DF-RHF Final Energy:  -340.87026785336838
    Total Energy =                       -340.8702678533685457
  Basis Set: CC-PVTZ
  Basis Set:
  Basis Set: CC-PVTZ
  Basis Set:
  @DF-RHF Final Energy:  -340.87029051490487
    Total Energy =                       -340.8702905149045250
  Basis Set: CC-PVTZ
  Basis Set:
  Basis Set: CC-PVTZ
  Basis Set:
  @DF-RHF Final Energy:  -340.87029148592330
    Total Energy =                       -340.8702914859236444
  Basis Set: CC-PVTZ
  Basis Set:
  Basis Set: CC-PVTZ
  Basis Set:
  @DF-RHF Final Energy:  -340.87030113842081
    Total Energy =                       -340.8703011384205865
  Basis Set: CC-PVTZ
  Basis Set:
  Charge       = 0
  Multiplicity = 1
  Basis Set: CC-PVTZ
  Basis Set:

    Orbital Energies (a.u.)
    -----------------------

    Doubly Occupied:

       1A    -15.579668     2A    -15.574603     3A    -11.278982
       4A    -11.272220     5A    -11.267232     6A    -11.266498
       7A    -11.232215     8A    -11.221562     9A     -1.315188
      10A     -1.222900    11A     -1.087155    12A     -1.016310
      13A     -0.910658    14A     -0.893208    15A     -0.831431
      16A     -0.716882    17A     -0.711106    18A     -0.652521
      19A     -0.632355    20A     -0.611571    21A     -0.571695
      22A     -0.565087    23A     -0.520231    24A     -0.512973
      25A     -0.508472    26A     -0.486286    27A     -0.430902
      28A     -0.396863    29A     -0.346459

  @DF-RHF Final Energy:  -340.87030199121097

   => Energetics <=

    Nuclear Repulsion Energy =            350.0256098583922153
    One-Electron Energy =               -1154.5253582908878798
    Two-Electron Energy =                 463.6294464412849265
    DFT Exchange-Correlation Energy =       0.0000000000000000
    Empirical Dispersion Energy =           0.0000000000000000
    PCM Polarization Energy =               0.0000000000000000
    EFP Energy =                            0.0000000000000000
    Total Energy =                       -340.8703019912106811
    Molecular point group: c1
  Basis Set: CC-PVTZ
  Basis Set:

  -Total Gradient:
     Atom            X                  Y                   Z
    ------   -----------------  -----------------  -----------------
       1        0.000026605584    -0.000004102275     0.000025085336
       2       -0.000190556534     0.000078396095    -0.000030847032
       3        0.000231285224     0.000115777605     0.000207493189
       4        0.000028329750    -0.000223591405    -0.000054808614
       5       -0.000050906650    -0.000258947043    -0.000337635871
       6        0.000010053432     0.000005178999     0.000029161379
       7        0.000193443025     0.000161273544    -0.000042322245
       8       -0.000179700471     0.000098575230     0.000112136166
       9        0.000046043255     0.000204750256     0.000260824343
      10        0.000013361325     0.000014381519    -0.000012926389
      11       -0.000062323004    -0.000009485354     0.000004146248
      12       -0.000031928844    -0.000188719955    -0.000158440125
      13       -0.000022795994    -0.000019546000    -0.000010891273
      14       -0.000019630579    -0.000018134862     0.000008252062
      15       -0.000005772808     0.000024464129     0.000012513407
      16        0.000014493292     0.000019729520    -0.000011740582

  **** Optimization is complete! (in 7 steps) ****
    Final optimized geometry and variables:
    Molecular point group: c1

    Geometry (in Angstrom), charge = 0, multiplicity = 1:

    H           -1.656770320534    -2.508654747759     0.071397464326
    C           -1.276703094026    -1.504351134737     0.085493852939
    N            0.006019085649    -1.341018838152    -0.132283407361
    C           -2.115091436346    -0.432195288590     0.327253708062
    C            0.486081441997    -0.110374006091    -0.116792597440
    H           -3.163660893931    -0.575910013523     0.505435638287
    N           -1.652816431445     0.795602488605     0.348125479436
    C           -0.365141469041     0.957882506880     0.129084606020
    C            1.965904059489     0.030353913642    -0.382319950630
    H            0.000354742664     1.964520101693     0.150156760669
    C            2.557725151974     1.424667761615    -0.217109196619
    H            2.475130450026    -0.667019514340     0.272416122506
    H            2.149445197449    -0.326428941435    -1.390504600626
    H            3.623796252481     1.393311735600    -0.403331227716
    H            2.410154811313     1.807472586918     0.786293377355
    H            2.126155718975     2.133208750874    -0.914422061356

  Mulliken Charges: (a.u.)
   Center  Symbol    Alpha    Beta     Spin     Total
       1     H     0.41366  0.41366  0.00000  0.17268
       2     C     3.04260  3.04260  0.00000 -0.08521
       3     N     3.59471  3.59471  0.00000 -0.18942
       4     C     3.04895  3.04895  0.00000 -0.09790
       5     C     2.95388  2.95388  0.00000  0.09224
       6     H     0.41429  0.41429  0.00000  0.17142
       7     N     3.58843  3.58843  0.00000 -0.17686
       8     C     3.07622  3.07622  0.00000 -0.15243
       9     C     3.05901  3.05901  0.00000 -0.11802
      10     H     0.41207  0.41207  0.00000  0.17587
      11     C     3.16480  3.16480  0.00000 -0.32960
      12     H     0.44382  0.44382  0.00000  0.11237
      13     H     0.44487  0.44487  0.00000  0.11026
      14     H     0.44215  0.44215  0.00000  0.11570
      15     H     0.44911  0.44911  0.00000  0.10177
      16     H     0.45144  0.45144  0.00000  0.09712

   Total alpha = 29.00000, Total beta = 29.00000, Total charge = -0.00000
