  ==> Input File <==

--------------------------------------------------------------------------
set {
	reference rhf
	basis 6-31G*
}

set_num_threads( 4 )
memory 2 gb

molecule MOL {
0 1

H	 -4.312274	 -1.735565	 -0.316230
C	 -3.484454	 -1.195131	 0.100070
C	 -2.263188	 -1.453616	 -0.306986
H	 -3.681702	 -0.449225	 0.846815
O	 -1.180634	 -0.819263	 0.215062
H	 -2.045132	 -2.191506	 -1.058761
C	 0.051604	 -1.018856	 -0.387932
C	 1.043764	 0.054862	 -0.001873
H	 -0.017620	 -1.041351	 -1.469781
H	 0.437898	 -1.966374	 -0.042284
F	 2.212596	 -0.199467	 -0.571921
F	 0.652529	 1.252447	 -0.405055
F	 1.230877	 0.110694	 1.300533

	symmetry c1
}
set optking {
	frozen_dihedral = ("
		3 5 7 9
	")
}

ee = optimize('scf')
oeprop('DIPOLE', 'QUADRUPOLE', 'MULLIKEN_CHARGES')
f=open( 'psi4out.xyz', 'w' )
f.write( "13  " )
f.write( str(ee) + "\n" )
f.write( MOL.save_string_xyz() )
f.close()
--------------------------------------------------------------------------

    Molecular point group: c1
  Charge       = 0
  Multiplicity = 1
  Basis Set: 6-31G*
  Basis Set:
  @DF-RHF Final Energy:  -527.53293225781090
    Total Energy =                       -527.5329322578111260
    Molecular point group: c1
  Basis Set: 6-31G*
  Basis Set:
  Basis Set: 6-31G*
  Basis Set:
  @DF-RHF Final Energy:  -527.53402968564319
    Total Energy =                       -527.5340296856433042
  Basis Set: 6-31G*
  Basis Set:
  Basis Set: 6-31G*
  Basis Set:
  @DF-RHF Final Energy:  -527.53430718702680
    Total Energy =                       -527.5343071870272524
  Basis Set: 6-31G*
  Basis Set:
  Basis Set: 6-31G*
  Basis Set:
  @DF-RHF Final Energy:  -527.53433192024795
    Total Energy =                       -527.5343319202479506
  Basis Set: 6-31G*
  Basis Set:
  @DF-RHF Final Energy:  -527.53438631937195
    Total Energy =                       -527.5343863193718335
  @DF-RHF Final Energy:  -527.53451416323878
    Total Energy =                       -527.5345141632393506
  @DF-RHF Final Energy:  -527.53455376352690
    Total Energy =                       -527.5345537635271285
  @DF-RHF Final Energy:  -527.53460381963919
    Total Energy =                       -527.5346038196391873
  @DF-RHF Final Energy:  -527.53472278641789
    Total Energy =                       -527.5347227864185697
  @DF-RHF Final Energy:  -527.53481860026386
    Total Energy =                       -527.5348186002640887
  Basis Set: 6-31G*
  Basis Set:
  @DF-RHF Final Energy:  -527.53469928550840
    Total Energy =                       -527.5346992855080543
  Basis Set: 6-31G*
  Basis Set:
  Basis Set: 6-31G*
  Basis Set:
  @DF-RHF Final Energy:  -527.53483301542565
    Total Energy =                       -527.5348330154255336
  Basis Set: 6-31G*
  Basis Set:
  Basis Set: 6-31G*
  Basis Set:
  @DF-RHF Final Energy:  -527.53483521192720
    Total Energy =                       -527.5348352119273159
  Basis Set: 6-31G*
  Basis Set:
  Charge       = 0
  Multiplicity = 1
  Basis Set: 6-31G*
  Basis Set:

    Orbital Energies (a.u.)
    -----------------------

    Doubly Occupied:

       1A    -26.342053     2A    -26.338363     3A    -26.338083
       4A    -20.606636     5A    -11.502995     6A    -11.317760
       7A    -11.301714     8A    -11.221858     9A     -1.739123
      10A     -1.636853    11A     -1.635226    12A     -1.438249
      13A     -1.086917    14A     -1.015732    15A     -0.922279
      16A     -0.837136    17A     -0.828877    18A     -0.806163
      19A     -0.797027    20A     -0.723964    21A     -0.711451
      22A     -0.698159    23A     -0.677873    24A     -0.656202
      25A     -0.651727    26A     -0.639622    27A     -0.634736
      28A     -0.588007    29A     -0.561093    30A     -0.527243
      31A     -0.503506    32A     -0.358895

  @DF-RHF Final Energy:  -527.53483550631495

   => Energetics <=

    Nuclear Repulsion Energy =            406.9527585491966875
    One-Electron Energy =               -1537.6841437115963345
    Two-Electron Energy =                 603.1965496560848123
    DFT Exchange-Correlation Energy =       0.0000000000000000
    Empirical Dispersion Energy =           0.0000000000000000
    PCM Polarization Energy =               0.0000000000000000
    EFP Energy =                            0.0000000000000000
    Total Energy =                       -527.5348355063148347
    Molecular point group: c1
  Basis Set: 6-31G*
  Basis Set:

  -Total Gradient:
     Atom            X                  Y                   Z
    ------   -----------------  -----------------  -----------------
       1       -0.000003509876    -0.000003414284    -0.000000034136
       2       -0.000012271324     0.000002336448    -0.000014735793
       3       -0.000002351625     0.000364032926    -0.000385741124
       4        0.000003478443    -0.000003210805    -0.000001221047
       5       -0.000037209869    -0.000716332971     0.000616857222
       6       -0.000005285300     0.000000629918    -0.000009562350
       7        0.000200955492     0.001023716870    -0.000317599598
       8        0.000058349712    -0.000014409839     0.000019921889
       9       -0.000182664751    -0.000639946691     0.000120897540
      10        0.000016693310    -0.000008974320    -0.000008196928
      11        0.000005227688    -0.000007488888    -0.000026847596
      12       -0.000016137279    -0.000001390245    -0.000013319310
      13       -0.000025274600     0.000004451884     0.000019581234

  **** Optimization is complete! (in 14 steps) ****
    Final optimized geometry and variables:
    Molecular point group: c1

    Geometry (in Angstrom), charge = 0, multiplicity = 1:

    H           -4.225503504860    -1.469379960399    -0.253421965190
    C           -3.379665020472    -1.021384684121     0.231431569063
    C           -2.237892029738    -0.911635136952    -0.407994028942
    H           -3.498086398002    -0.653335440629     1.233238922097
    O           -1.159388651221    -0.292592064955     0.134790052758
    H           -2.097082257449    -1.272823417401    -1.413266688298
    C            0.090171300381    -0.745931199607    -0.265451879926
    C            1.094364650447     0.346787871844     0.003737296731
    H            0.119512760391    -0.972762412908    -1.325613614012
    H            0.389569779306    -1.627975341434     0.289260778365
    F            2.299891707261    -0.072875996291    -0.354370262016
    F            0.827565119202     1.439398676869    -0.684189788957
    F            1.142640393354     0.670971737042     1.279878907968

  Mulliken Charges: (a.u.)
   Center  Symbol    Alpha    Beta     Spin     Total
       1     H     0.40670  0.40670  0.00000  0.18659
       2     C     3.23021  3.23021  0.00000 -0.46041
       3     C     2.89977  2.89977  0.00000  0.20047
       4     H     0.40026  0.40026  0.00000  0.19948
       5     O     4.30448  4.30448  0.00000 -0.60897
       6     H     0.40875  0.40875  0.00000  0.18250
       7     C     3.04963  3.04963  0.00000 -0.09927
       8     C     2.45134  2.45134  0.00000  1.09733
       9     H     0.40789  0.40789  0.00000  0.18421
      10     H     0.40318  0.40318  0.00000  0.19364
      11     F     4.68510  4.68510  0.00000 -0.37020
      12     F     4.67665  4.67665  0.00000 -0.35331
      13     F     4.67603  4.67603  0.00000 -0.35206

   Total alpha = 32.00000, Total beta = 32.00000, Total charge =  0.00000
