  ==> Input File <==

--------------------------------------------------------------------------
set {
	reference rhf
	basis 6-31G*
}

set_num_threads( 1 )
memory 2 gb

molecule MOL {
0 1

O	 0.571236	 1.204702	 -1.284442
C	 -0.324277	 1.199666	 -0.503224
C	 -1.242653	 2.361293	 -0.235728
O	 -0.632575	 0.154573	 0.251549
H	 -1.177961	 2.646504	 0.808024
H	 -0.966246	 3.194295	 -0.864651
H	 -2.267877	 2.070569	 -0.433596
C	 0.160891	 -1.019931	 0.106212
C	 1.589627	 -0.672828	 0.480843
H	 0.089836	 -1.367806	 -0.916050
H	 -0.238459	 -1.792301	 0.749618
C	 2.246377	 0.346236	 -0.452210
H	 2.163194	 -1.597435	 0.473358
H	 1.604769	 -0.303424	 1.502885
C	 3.691736	 0.652107	 -0.061850
H	 2.219579	 -0.032311	 -1.472055
H	 1.666466	 1.263317	 -0.447249
H	 4.134505	 1.377213	 -0.737283
H	 4.305508	 -0.243868	 -0.089969
H	 3.748266	 1.059562	 0.943567

	symmetry c1
}
set optking {
	frozen_dihedral = ("
		16 12 9 8,
		12 9 8 10,
		1 2 4 8
	")
}

ee = energy('scf')
oeprop('DIPOLE', 'QUADRUPOLE', 'MULLIKEN_CHARGES')
f=open( 'psi4out.xyz', 'w' )
f.write( "20  " )
f.write( str(ee) + "\n" )
f.write( MOL.save_string_xyz() )
f.close()
--------------------------------------------------------------------------

    Molecular point group: c1

    Geometry (in Angstrom), charge = 0, multiplicity = 1:

       Center              X                  Y                   Z               Mass
    ------------   -----------------  -----------------  -----------------  -----------------
           O         -0.185807722410     0.666612678715    -1.069082767010    15.994914619560
           C         -1.081320722410     0.661576678715    -0.287864767010    12.000000000000
           C         -1.999696722410     1.823203678715    -0.020368767010    12.000000000000
           O         -1.389618722410    -0.383516321285     0.466908232990    15.994914619560
           H         -1.935004722410     2.108414678715     1.023383232990     1.007825032070
           H         -1.723289722410     2.656205678715    -0.649291767010     1.007825032070
           H         -3.024920722410     1.532479678715    -0.218236767010     1.007825032070
           C         -0.596152722410    -1.558020321285     0.321571232990    12.000000000000
           C          0.832583277590    -1.210917321285     0.696202232990    12.000000000000
           H         -0.667207722410    -1.905895321285    -0.700690767010     1.007825032070
           H         -0.995502722410    -2.330390321285     0.964977232990     1.007825032070
           C          1.489333277590    -0.191853321285    -0.236850767010    12.000000000000
           H          1.406150277590    -2.135524321285     0.688717232990     1.007825032070
           H          0.847725277590    -0.841513321285     1.718244232990     1.007825032070
           C          2.934692277590     0.114017678715     0.153509232990    12.000000000000
           H          1.462535277590    -0.570400321285    -1.256695767010     1.007825032070
           H          0.909422277590     0.725227678715    -0.231889767010     1.007825032070
           H          3.377461277590     0.839123678715    -0.521923767010     1.007825032070
           H          3.548464277590    -0.781957321285     0.125390232990     1.007825032070
           H          2.991222277590     0.521472678715     1.158926232990     1.007825032070

  Charge       = 0
  Multiplicity = 1
  Basis Set: 6-31G*
  Basis Set:

    Orbital Energies (a.u.)
    -----------------------

    Doubly Occupied:

       1A    -20.607901     2A    -20.551474     3A    -11.380155
       4A    -11.286129     5A    -11.238001     6A    -11.212883
       7A    -11.184405     8A    -11.172711     9A     -1.486525
      10A     -1.386029    11A     -1.080126    12A     -1.019156
      13A     -0.974460    14A     -0.882839    15A     -0.832231
      16A     -0.755928    17A     -0.701822    18A     -0.696013
      19A     -0.692555    20A     -0.609212    21A     -0.603715
      22A     -0.592679    23A     -0.572870    24A     -0.553301
      25A     -0.544201    26A     -0.528657    27A     -0.511697
      28A     -0.500777    29A     -0.466539    30A     -0.446541
      31A     -0.434126    32A     -0.356062

  @DF-RHF Final Energy:  -383.83089441119682

   => Energetics <=

    Nuclear Repulsion Energy =            414.3655864239569837
    One-Electron Energy =               -1344.6694914288868858
    Two-Electron Energy =                 546.4730105937318285
    DFT Exchange-Correlation Energy =       0.0000000000000000
    Empirical Dispersion Energy =           0.0000000000000000
    PCM Polarization Energy =               0.0000000000000000
    EFP Energy =                            0.0000000000000000
    Total Energy =                       -383.8308944111980736

  Mulliken Charges: (a.u.)
   Center  Symbol    Alpha    Beta     Spin     Total
       1     O     4.27970  4.27970  0.00000 -0.55940
       2     C     2.62159  2.62159  0.00000  0.75683
       3     C     3.28046  3.28046  0.00000 -0.56092
       4     O     4.30542  4.30542  0.00000 -0.61083
       5     H     0.40120  0.40120  0.00000  0.19760
       6     H     0.39762  0.39762  0.00000  0.20475
       7     H     0.39797  0.39797  0.00000  0.20406
       8     C     3.01061  3.01061  0.00000 -0.02123
       9     C     3.17138  3.17138  0.00000 -0.34276
      10     H     0.41069  0.41069  0.00000  0.17862
      11     H     0.40456  0.40456  0.00000  0.19088
      12     C     3.14850  3.14850  0.00000 -0.29700
      13     H     0.42250  0.42250  0.00000  0.15500
      14     H     0.41888  0.41888  0.00000  0.16225
      15     C     3.23531  3.23531  0.00000 -0.47063
      16     H     0.42250  0.42250  0.00000  0.15500
      17     H     0.38216  0.38216  0.00000  0.23568
      18     H     0.42345  0.42345  0.00000  0.15310
      19     H     0.43360  0.43360  0.00000  0.13280
      20     H     0.43189  0.43189  0.00000  0.13621

   Total alpha = 32.00000, Total beta = 32.00000, Total charge =  0.00000
