                              Psi4 1.0.54 Driver

  ==> Input File <==

--------------------------------------------------------------------------
set {
	reference rhf
	basis cc-pvtz
}

set_num_threads( 4 )
memory 2 gb

molecule MOL {
0 1

H	 -1.445274	 1.949393	 -0.603649
C	 -1.779176	 0.924883	 -0.475078
O	 -0.775228	 0.000056	 -0.739966
H	 -2.570856	 0.737573	 -1.186632
H	 -2.190430	 0.817511	 0.523408
C	 0.406133	 -0.000384	 0.036994
C	 1.526415	 -0.003194	 -0.997339
C	 0.498772	 1.259027	 0.900673
C	 0.495883	 -1.257378	 0.904465
H	 1.452279	 0.872071	 -1.630204
H	 1.451276	 -0.881020	 -1.626529
H	 2.497919	 -0.002741	 -0.517601
H	 0.368981	 2.144239	 0.289753
H	 1.470064	 1.313479	 1.377660
H	 -0.248448	 1.271586	 1.684297
H	 0.363971	 -2.144195	 0.296316
H	 1.467114	 -1.312636	 1.381470
H	 -0.251246	 -1.265768	 1.688235

	symmetry c1
}
set optking {
	frozen_dihedral = ("
		2 3 6 7
	")
}

ee,wfn = optimize('scf', return_wfn=True)
oeprop( wfn, 'DIPOLE', 'QUADRUPOLE', 'MULLIKEN_CHARGES')
f=open( 'psi4out.xyz', 'w' )
f.write( "18  " )
f.write( str(ee) + "\n" )
f.write( MOL.save_string_xyz() )
f.close()
--------------------------------------------------------------------------

    Molecular point group: c1
  Charge       = 0
  Multiplicity = 1
  Basis Set: CC-PVTZ
  Basis Set:
  @DF-RHF Final Energy:  -271.26966370410884
    Total Energy =                       -271.2696637041090071
    Molecular point group: c1
  Basis Set: CC-PVTZ
  Basis Set:
  Basis Set: CC-PVTZ
  Basis Set:
  @DF-RHF Final Energy:  -271.22992362847356
    Total Energy =                       -271.2299236284736708
  Basis Set: CC-PVTZ
  Basis Set:
  Basis Set: CC-PVTZ
  Basis Set:
  @DF-RHF Final Energy:  -271.27003270125635
    Total Energy =                       -271.2700327012564685
  Basis Set: CC-PVTZ
  Basis Set:
  Basis Set: CC-PVTZ
  Basis Set:
  @DF-RHF Final Energy:  -271.27247910927628
    Total Energy =                       -271.2724791092764463
  Basis Set: CC-PVTZ
  Basis Set:
  @DF-RHF Final Energy:  -271.27244968606823
    Total Energy =                       -271.2724496860681711
  Basis Set: CC-PVTZ
  Basis Set:
  @DF-RHF Final Energy:  -271.27259792707770
    Total Energy =                       -271.2725979270778680
  Basis Set: CC-PVTZ
  Basis Set:
  Basis Set: CC-PVTZ
  Basis Set:
  @DF-RHF Final Energy:  -271.27262634602488
    Total Energy =                       -271.2726263460247083
  Basis Set: CC-PVTZ
  Basis Set:
  Basis Set: CC-PVTZ
  Basis Set:
  @DF-RHF Final Energy:  -271.27262560026202
    Total Energy =                       -271.2726256002621312
  Basis Set: CC-PVTZ
  Basis Set:
  Charge       = 0
  Multiplicity = 1
  Basis Set: CC-PVTZ
  Basis Set:

    Orbital Energies (a.u.)
    -----------------------

    Doubly Occupied:

       1A    -20.537199     2A    -11.280699     3A    -11.259513
       4A    -11.211461     5A    -11.202702     6A    -11.201961
       7A     -1.369504     8A     -1.075527     9A     -0.951166
      10A     -0.936113    11A     -0.912135    12A     -0.752201
      13A     -0.657630    14A     -0.648161    15A     -0.638415
      16A     -0.583127    17A     -0.577779    18A     -0.548739
      19A     -0.543066    20A     -0.526739    21A     -0.515321
      22A     -0.491902    23A     -0.483991    24A     -0.442807
      25A     -0.399283

  @DF-RHF Final Energy:  -271.27263210152682

   => Energetics <=

    Nuclear Repulsion Energy =            272.0612634724569716
    One-Electron Energy =                -907.1735170213271431
    Two-Electron Energy =                 363.8396214473434043
    DFT Exchange-Correlation Energy =       0.0000000000000000
    Empirical Dispersion Energy =           0.0000000000000000
    PCM Polarization Energy =               0.0000000000000000
    EFP Energy =                            0.0000000000000000
    Total Energy =                       -271.2726321015267672
    Molecular point group: c1
  Basis Set: CC-PVTZ
  Basis Set:

  -Total Gradient:
     Atom            X                  Y                   Z
    ------   -----------------  -----------------  -----------------
       1        0.000025318379     0.000028444722    -0.000028761315
       2        0.000376304798     0.000710508682    -0.001704485338
       3       -0.000575899964    -0.000659004363     0.002473386378
       4       -0.000036605175    -0.000035401173    -0.000021785339
       5        0.000005723452     0.000003565521     0.000040625575
       6        0.000339803066    -0.001452794866    -0.000224503597
       7       -0.000148127470     0.001415651029    -0.000511455564
       8        0.000009362177    -0.000005861851     0.000006834818
       9        0.000003958413     0.000033516703    -0.000054865569
      10       -0.000009577090     0.000009694708     0.000000141186
      11       -0.000004729067    -0.000017846169    -0.000006765661
      12        0.000009392340     0.000002741158     0.000005316723
      13        0.000001453035    -0.000004215625    -0.000001418343
      14       -0.000004243343    -0.000002214922     0.000004776404
      15        0.000008477900    -0.000002460731    -0.000007699640
      16       -0.000011123441    -0.000060664557    -0.000021845594
      17        0.000055824917     0.000013769887     0.000008148107
      18       -0.000045312927     0.000022571847     0.000044356772

  **** Optimization is complete! (in 9 steps) ****
    Final optimized geometry and variables:
    Molecular point group: c1

    Geometry (in Angstrom), charge = 0, multiplicity = 1:

    H           -1.814322664439     1.408462804117    -0.803643180569
    C           -1.968527900526     0.494236031341    -0.240174062562
    O           -0.916265653440    -0.403003389998    -0.374729310438
    H           -2.845699573835     0.000138490668    -0.633903306204
    H           -2.166491552034     0.755026430534     0.795748385323
    C            0.401511818322    -0.091986191286     0.054813822794
    C            1.310847153236    -0.427733733172    -1.124176350103
    C            0.597712898051     1.374095987443     0.445068653403
    C            0.704239388332    -0.994728346437     1.248633199277
    H            1.084173729381     0.212672380849    -1.968051186436
    H            1.157513458380    -1.454557753330    -1.431182914579
    H            2.355334296935    -0.297919005475    -0.863771039006
    H            0.396219322819     2.040980688651    -0.383539167919
    H            1.628252450690     1.522511005090     0.742256444122
    H           -0.027824247485     1.662603547602     1.279868424793
    H            0.560055013320    -2.032077151366     0.974503829358
    H            1.724974656817    -0.866187013571     1.591303285174
    H            0.037652670139    -0.769331332220     2.073446546458

  Mulliken Charges: (a.u.)
   Center  Symbol    Alpha    Beta     Spin     Total
       1     H     0.46876  0.46876  0.00000  0.06248
       2     C     3.04091  3.04091  0.00000 -0.08182
       3     O     4.19965  4.19965  0.00000 -0.39930
       4     H     0.44260  0.44260  0.00000  0.11480
       5     H     0.46992  0.46992  0.00000  0.06015
       6     C     2.87071  2.87071  0.00000  0.25858
       7     C     3.14042  3.14042  0.00000 -0.28084
       8     C     3.17699  3.17699  0.00000 -0.35398
       9     C     3.14264  3.14264  0.00000 -0.28528
      10     H     0.45226  0.45226  0.00000  0.09549
      11     H     0.44774  0.44774  0.00000  0.10451
      12     H     0.45866  0.45866  0.00000  0.08268
      13     H     0.44506  0.44506  0.00000  0.10988
      14     H     0.44245  0.44245  0.00000  0.11510
      15     H     0.44447  0.44447  0.00000  0.11107
      16     H     0.44797  0.44797  0.00000  0.10406
      17     H     0.45696  0.45696  0.00000  0.08608
      18     H     0.45183  0.45183  0.00000  0.09633

   Total alpha = 25.00000, Total beta = 25.00000, Total charge = -0.00000

*** Psi4 exiting successfully. Buy a developer a beer!
