  ==> Input File <==

--------------------------------------------------------------------------
set {
	reference rhf
	basis 6-31G*
}

set_num_threads( 1 )
memory 2 gb

molecule MOL {
0 1

O	 1.589393	 1.743790	 0.490967
C	 0.939996	 1.446181	 1.441141
C	 -0.368203	 0.694160	 1.410421
O	 1.295092	 1.742260	 2.685079
C	 -0.823008	 0.326187	 0.001381
H	 -0.248488	 -0.190941	 2.029274
H	 -1.108253	 1.309361	 1.914974
C	 -2.149452	 -0.435131	 -0.000098
H	 -0.054037	 -0.271430	 -0.477916
H	 -0.915791	 1.230380	 -0.592029
C	 -3.368779	 0.488503	 -0.000883
H	 -2.193746	 -1.087250	 -0.871175
H	 -2.195311	 -1.087803	 0.870418
C	 -4.693822	 -0.272754	 -0.001129
H	 -3.325798	 1.139422	 -0.871284
H	 -3.326423	 1.139959	 0.869145
H	 -4.781274	 -0.907928	 -0.878124
H	 -5.538651	 0.408946	 -0.001420
H	 -4.781694	 -0.907783	 0.875984
C	 2.510153	 2.449014	 2.855607
H	 3.340132	 1.877578	 2.465577
H	 2.621562	 2.592138	 3.919082
H	 2.468423	 3.403855	 2.351579

	symmetry c1
}
set optking {
	frozen_dihedral = ("
		15 11 8 12,
		1 2 3 6,
		9 5 3 6,
		1 2 4 20
	")
}

ee = energy('scf')
oeprop('DIPOLE', 'QUADRUPOLE', 'MULLIKEN_CHARGES')
f=open( 'psi4out.xyz', 'w' )
f.write( "23  " )
f.write( str(ee) + "\n" )
f.write( MOL.save_string_xyz() )
f.close()
--------------------------------------------------------------------------

    Molecular point group: c1

    Geometry (in Angstrom), charge = 0, multiplicity = 1:

       Center              X                  Y                   Z               Mass
    ------------   -----------------  -----------------  -----------------  -----------------
           O          2.123572689548     0.815044826731    -0.515746116151    15.994914619560
           C          1.474175689548     0.517435826731     0.434427883849    12.000000000000
           C          0.165976689548    -0.234585173269     0.403707883849    12.000000000000
           O          1.829271689548     0.813514826731     1.678365883849    15.994914619560
           C         -0.288828310452    -0.602558173269    -1.005332116151    12.000000000000
           H          0.285691689548    -1.119686173269     1.022560883849     1.007825032070
           H         -0.574073310452     0.380615826731     0.908260883849     1.007825032070
           C         -1.615272310452    -1.363876173269    -1.006811116151    12.000000000000
           H          0.480142689548    -1.200175173269    -1.484629116151     1.007825032070
           H         -0.381611310452     0.301634826731    -1.598742116151     1.007825032070
           C         -2.834599310452    -0.440242173269    -1.007596116151    12.000000000000
           H         -1.659566310452    -2.015995173269    -1.877888116151     1.007825032070
           H         -1.661131310452    -2.016548173269    -0.136295116151     1.007825032070
           C         -4.159642310452    -1.201499173269    -1.007842116151    12.000000000000
           H         -2.791618310452     0.210676826731    -1.877997116151     1.007825032070
           H         -2.792243310452     0.211213826731    -0.137568116151     1.007825032070
           H         -4.247094310452    -1.836673173269    -1.884837116151     1.007825032070
           H         -5.004471310452    -0.519799173269    -1.008133116151     1.007825032070
           H         -4.247514310452    -1.836528173269    -0.130729116151     1.007825032070
           C          3.044332689548     1.520268826731     1.848893883849    12.000000000000
           H          3.874311689548     0.948832826731     1.458863883849     1.007825032070
           H          3.155741689548     1.663392826731     2.912368883849     1.007825032070
           H          3.002602689548     2.475109826731     1.344865883849     1.007825032070

  Charge       = 0
  Multiplicity = 1
  Basis Set: 6-31G*
  Basis Set:

    Orbital Energies (a.u.)
    -----------------------

    Doubly Occupied:

       1A    -20.603592     2A    -20.545332     3A    -11.372075
       4A    -11.280810     5A    -11.235462     6A    -11.218524
       7A    -11.218072     8A    -11.217025     9A    -11.210437
      10A     -1.469255    11A     -1.362673    12A     -1.094785
      13A     -1.042311    14A     -0.987087    15A     -0.932490
      16A     -0.847577    17A     -0.793595    18A     -0.766355
      19A     -0.701632    20A     -0.682244    21A     -0.672521
      22A     -0.630957    23A     -0.627477    24A     -0.598937
      25A     -0.574801    26A     -0.558315    27A     -0.556111
      28A     -0.528449    29A     -0.520716    30A     -0.502689
      31A     -0.494124    32A     -0.470843    33A     -0.465091
      34A     -0.457776    35A     -0.451192    36A     -0.436601

  @DF-RHF Final Energy:  -422.97335770242751

   => Energetics <=

    Nuclear Repulsion Energy =            456.8723071648654468
    One-Electron Energy =               -1481.4352011659516393
    Two-Electron Energy =                 601.5895362986598229
    DFT Exchange-Correlation Energy =       0.0000000000000000
    Empirical Dispersion Energy =           0.0000000000000000
    PCM Polarization Energy =               0.0000000000000000
    EFP Energy =                            0.0000000000000000
    Total Energy =                       -422.9733577024262559

  Mulliken Charges: (a.u.)
   Center  Symbol    Alpha    Beta     Spin     Total
       1     O     4.28594  4.28594  0.00000 -0.57187
       2     C     2.60516  2.60516  0.00000  0.78967
       3     C     3.20921  3.20921  0.00000 -0.41842
       4     O     4.30732  4.30732  0.00000 -0.61464
       5     C     3.15499  3.15499  0.00000 -0.30998
       6     H     0.40034  0.40034  0.00000  0.19932
       7     H     0.40014  0.40014  0.00000  0.19971
       8     C     3.15683  3.15683  0.00000 -0.31366
       9     H     0.40940  0.40940  0.00000  0.18120
      10     H     0.41088  0.41088  0.00000  0.17824
      11     C     3.15317  3.15317  0.00000 -0.30634
      12     H     0.41804  0.41804  0.00000  0.16393
      13     H     0.42402  0.42402  0.00000  0.15196
      14     C     3.23938  3.23938  0.00000 -0.47876
      15     H     0.42041  0.42041  0.00000  0.15918
      16     H     0.42416  0.42416  0.00000  0.15168
      17     H     0.42091  0.42091  0.00000  0.15818
      18     H     0.41879  0.41879  0.00000  0.16242
      19     H     0.42184  0.42184  0.00000  0.15633
      20     C     3.09246  3.09246  0.00000 -0.18493
      21     H     0.40904  0.40904  0.00000  0.18192
      22     H     0.40847  0.40847  0.00000  0.18306
      23     H     0.40910  0.40910  0.00000  0.18180

   Total alpha = 36.00000, Total beta = 36.00000, Total charge = -0.00000
