  ==> Input File <==

--------------------------------------------------------------------------
set {
	reference rhf
	basis 6-31G*
}

set_num_threads( 1 )
memory 2 gb

molecule MOL {
0 1

H	 -2.266838	 -1.584777	 0.311136
O	 -2.310168	 -0.871793	 -0.309793
C	 -2.026376	 0.340750	 0.341611
C	 -0.673256	 0.843270	 -0.132153
H	 -2.792215	 1.080697	 0.115987
H	 -2.013526	 0.200402	 1.421792
C	 0.486613	 -0.083066	 0.235839
H	 -0.715586	 0.970948	 -1.210718
H	 -0.508072	 1.829858	 0.297090
C	 1.840406	 0.433480	 -0.254303
H	 0.300215	 -1.068318	 -0.178947
H	 0.519509	 -0.203625	 1.318070
C	 3.000220	 -0.489290	 0.118523
H	 1.809207	 0.553576	 -1.335192
H	 2.021860	 1.424500	 0.157276
H	 2.864959	 -1.479103	 -0.307933
H	 3.946603	 -0.099227	 -0.243630
H	 3.080049	 -0.602997	 1.196117

	symmetry c1
}
set optking {
	frozen_dihedral = ("
		14 10 7 11,
		10 7 4 8,
		2 3 4 8
	")
}

ee = energy('scf')
oeprop('DIPOLE', 'QUADRUPOLE', 'MULLIKEN_CHARGES')
f=open( 'psi4out.xyz', 'w' )
f.write( "18  " )
f.write( str(ee) + "\n" )
f.write( MOL.save_string_xyz() )
f.close()
--------------------------------------------------------------------------

    Molecular point group: c1

    Geometry (in Angstrom), charge = 0, multiplicity = 1:

       Center              X                  Y                   Z               Mass
    ------------   -----------------  -----------------  -----------------  -----------------
           H         -2.276775533211    -1.580547224238     0.307591870529     1.007825032070
           O         -2.320105533211    -0.867563224238    -0.313337129471    15.994914619560
           C         -2.036313533211     0.344979775762     0.338066870529    12.000000000000
           C         -0.683193533211     0.847499775762    -0.135697129471    12.000000000000
           H         -2.802152533211     1.084926775762     0.112442870529     1.007825032070
           H         -2.023463533211     0.204631775762     1.418247870529     1.007825032070
           C          0.476675466789    -0.078836224238     0.232294870529    12.000000000000
           H         -0.725523533211     0.975177775762    -1.214262129471     1.007825032070
           H         -0.518009533211     1.834087775762     0.293545870529     1.007825032070
           C          1.830468466789     0.437709775762    -0.257847129471    12.000000000000
           H          0.290277466789    -1.064088224238    -0.182491129471     1.007825032070
           H          0.509571466789    -0.199395224238     1.314525870529     1.007825032070
           C          2.990282466789    -0.485060224238     0.114978870529    12.000000000000
           H          1.799269466789     0.557805775762    -1.338736129471     1.007825032070
           H          2.011922466789     1.428729775762     0.153731870529     1.007825032070
           H          2.855021466789    -1.474873224238    -0.311477129471     1.007825032070
           H          3.936665466789    -0.094997224238    -0.247174129471     1.007825032070
           H          3.070111466789    -0.598767224238     1.192572870529     1.007825032070

  Charge       = 0
  Multiplicity = 1
  Basis Set: 6-31G*
  Basis Set:

    Orbital Energies (a.u.)
    -----------------------

    Doubly Occupied:

       1A    -20.552739     2A    -11.268684     3A    -11.214395
       4A    -11.212036     5A    -11.210088     6A    -11.207876
       7A     -1.360451     8A     -1.077425     9A     -1.009907
      10A     -0.917146    11A     -0.821977    12A     -0.786898
      13A     -0.704788    14A     -0.639482    15A     -0.626819
      16A     -0.585603    17A     -0.573294    18A     -0.565281
      19A     -0.523070    20A     -0.502649    21A     -0.481697
      22A     -0.474480    23A     -0.463723    24A     -0.459584
      25A     -0.421609

  @DF-RHF Final Energy:  -271.17761665409171

   => Energetics <=

    Nuclear Repulsion Energy =            249.6075256715839998
    One-Electron Energy =                -862.2471565754092353
    Two-Electron Energy =                 341.4620142497342385
    DFT Exchange-Correlation Energy =       0.0000000000000000
    Empirical Dispersion Energy =           0.0000000000000000
    PCM Polarization Energy =               0.0000000000000000
    EFP Energy =                            0.0000000000000000
    Total Energy =                       -271.1776166540910253

  Mulliken Charges: (a.u.)
   Center  Symbol    Alpha    Beta     Spin     Total
       1     H     0.27893  0.27893  0.00000  0.44213
       2     O     4.36957  4.36957  0.00000 -0.73914
       3     C     3.00303  3.00303  0.00000 -0.00607
       4     C     3.15461  3.15461  0.00000 -0.30923
       5     H     0.41853  0.41853  0.00000  0.16294
       6     H     0.43195  0.43195  0.00000  0.13610
       7     C     3.15659  3.15659  0.00000 -0.31317
       8     H     0.41514  0.41514  0.00000  0.16972
       9     H     0.42737  0.42737  0.00000  0.14527
      10     C     3.15091  3.15091  0.00000 -0.30183
      11     H     0.41610  0.41610  0.00000  0.16780
      12     H     0.42928  0.42928  0.00000  0.14143
      13     C     3.23923  3.23923  0.00000 -0.47846
      14     H     0.42123  0.42123  0.00000  0.15754
      15     H     0.42379  0.42379  0.00000  0.15241
      16     H     0.42148  0.42148  0.00000  0.15703
      17     H     0.41939  0.41939  0.00000  0.16122
      18     H     0.42285  0.42285  0.00000  0.15431

   Total alpha = 25.00000, Total beta = 25.00000, Total charge =  0.00000
