  ==> Input File <==

--------------------------------------------------------------------------
set {
	reference rhf
	basis 6-31G*
}

set_num_threads( 4 )
memory 2 gb

molecule MOL {
0 1

H	 4.343539	 -0.175945	 -1.875439
C	 3.551171	 -0.699172	 -1.349952
C	 2.264884	 0.125518	 -1.332194
H	 3.399260	 -1.652645	 -1.847989
H	 3.903130	 -0.904972	 -0.342967
C	 1.124154	 -0.574694	 -0.600870
H	 1.944170	 0.341690	 -2.346492
H	 2.459539	 1.085759	 -0.857391
N	 -0.085695	 0.223332	 -0.630528
H	 0.912168	 -1.521445	 -1.090450
H	 1.438034	 -0.817890	 0.419773
C	 -1.217365	 -0.386708	 0.039277
H	 0.097623	 1.121039	 -0.223643
C	 -2.452633	 0.504241	 -0.042481
H	 -1.425441	 -1.333747	 -0.451416
H	 -1.004093	 -0.621892	 1.087412
C	 -3.758029	 -0.289423	 -0.010781
H	 -2.394220	 1.093569	 -0.952170
H	 -2.440793	 1.210787	 0.785871
H	 -3.816659	 -0.981993	 -0.845726
H	 -4.617837	 0.370165	 -0.069296
H	 -3.847478	 -0.867502	 0.904682

	symmetry c1
}
set optking {
	frozen_dihedral = ("
		15 12 14 18
	")
}

ee = optimize('scf')
oeprop('DIPOLE', 'QUADRUPOLE', 'MULLIKEN_CHARGES')
f=open( 'psi4out.xyz', 'w' )
f.write( "22  " )
f.write( str(ee) + "\n" )
f.write( MOL.save_string_xyz() )
f.close()
--------------------------------------------------------------------------

    Molecular point group: c1
  Charge       = 0
  Multiplicity = 1
  Basis Set: 6-31G*
  Basis Set:
  @DF-RHF Final Energy:  -290.38059425740619
    Total Energy =                       -290.3805942574063010
    Molecular point group: c1
  Basis Set: 6-31G*
  Basis Set:
  Basis Set: 6-31G*
  Basis Set:
  @DF-RHF Final Energy:  -290.38083741029118
    Total Energy =                       -290.3808374102915764
  Basis Set: 6-31G*
  Basis Set:
  Basis Set: 6-31G*
  Basis Set:
  @DF-RHF Final Energy:  -290.38088854162453
    Total Energy =                       -290.3808885416245857
  Basis Set: 6-31G*
  Basis Set:
  Basis Set: 6-31G*
  Basis Set:
  @DF-RHF Final Energy:  -290.38088977636085
    Total Energy =                       -290.3808897763605046
  Basis Set: 6-31G*
  Basis Set:
  Charge       = 0
  Multiplicity = 1
  Basis Set: 6-31G*
  Basis Set:

    Orbital Energies (a.u.)
    -----------------------

    Doubly Occupied:

       1A    -15.534292     2A    -11.237955     3A    -11.237752
       4A    -11.213553     5A    -11.213284     6A    -11.209897
       7A    -11.209726     8A     -1.205792     9A     -1.058609
      10A     -1.025701    11A     -0.928045    12A     -0.868454
      13A     -0.811938    14A     -0.794192    15A     -0.666003
      16A     -0.626957    17A     -0.615755    18A     -0.612031
      19A     -0.573404    20A     -0.563221    21A     -0.532486
      22A     -0.527039    23A     -0.515546    24A     -0.486397
      25A     -0.480544    26A     -0.474070    27A     -0.464226
      28A     -0.450423    29A     -0.358764

  @DF-RHF Final Energy:  -290.38089020452475

   => Energetics <=

    Nuclear Repulsion Energy =            313.1482688903128633
    One-Electron Energy =               -1012.0662057755610022
    Two-Electron Energy =                 408.5370466807234493
    DFT Exchange-Correlation Energy =       0.0000000000000000
    Empirical Dispersion Energy =           0.0000000000000000
    PCM Polarization Energy =               0.0000000000000000
    EFP Energy =                            0.0000000000000000
    Total Energy =                       -290.3808902045246327
    Molecular point group: c1
  Basis Set: 6-31G*
  Basis Set:

  -Total Gradient:
     Atom            X                  Y                   Z
    ------   -----------------  -----------------  -----------------
       1        0.000002214705     0.000000127097     0.000002205287
       2        0.000005337813     0.000005141462    -0.000000286384
       3        0.000015780965    -0.000012380280    -0.000005193455
       4        0.000000231013     0.000001056772    -0.000002683136
       5       -0.000001101667    -0.000002073278     0.000000407521
       6        0.000055267574     0.000005092564     0.000002904199
       7       -0.000002308529    -0.000005240884    -0.000000517635
       8       -0.000001200220    -0.000000725523    -0.000000337001
       9       -0.000041302283    -0.000028832495     0.000025604550
      10       -0.000010786478     0.000013355609    -0.000002764437
      11       -0.000004223245     0.000000941607    -0.000006040438
      12        0.002156246607     0.002875305417    -0.004346431022
      13        0.000009859000     0.000010024907     0.000002149319
      14       -0.003086571848    -0.004326669049    -0.001751688818
      15       -0.001374757881    -0.001738876444     0.003864421835
      16        0.000026409209     0.000015879841     0.000019208725
      17        0.000003070768     0.000030387536    -0.000007274775
      18        0.002246032531     0.003143289881     0.002179379709
      19       -0.000007079348     0.000006963467     0.000020408512
      20        0.000012887623     0.000011452988     0.000012567834
      21       -0.000013355417    -0.000008624755    -0.000005775353
      22        0.000009349106     0.000004403559    -0.000000265036

  **** Optimization is complete! (in 5 steps) ****
    Final optimized geometry and variables:
    Molecular point group: c1

    Geometry (in Angstrom), charge = 0, multiplicity = 1:

    H            4.448024402317     0.001710890949    -1.268992801828
    C            3.651143980262    -0.522141635253    -0.750973479786
    C            2.356277456591     0.288936984210    -0.770370456671
    H            3.518823434075    -1.484462556917    -1.237392974700
    H            3.985680466553    -0.709168890459     0.265575070715
    C            1.208963583034    -0.412750113289    -0.050975377073
    H            2.053220273151     0.486792649137    -1.793747459811
    H            2.531489643751     1.258095956252    -0.306106329643
    N           -0.008164602593     0.372091559273    -0.114803762547
    H            1.014958228791    -1.368103221417    -0.531230980949
    H            1.505280552057    -0.638896405595     0.978718392217
    C           -1.145879562410    -0.245534384093     0.535682454329
    H            0.155979298760     1.274626318811     0.290437497896
    C           -2.379037545766     0.661226643535     0.503375571384
    H           -1.367234783993    -1.187070513853     0.039835249395
    H           -0.930365714597    -0.514993146897     1.575503448932
    C           -3.695084937446    -0.106442348909     0.598853819268
    H           -2.342752858309     1.263814038354    -0.399103623466
    H           -2.319038727414     1.369029895160     1.328815580285
    H           -3.825796556061    -0.764789823430    -0.254731093368
    H           -4.542896298275     0.570351941819     0.629856764828
    H           -3.728862206801    -0.717820577190     1.496687913535

  Mulliken Charges: (a.u.)
   Center  Symbol    Alpha    Beta     Spin     Total
       1     H     0.41773  0.41773  0.00000  0.16455
       2     C     3.24328  3.24328  0.00000 -0.48656
       3     C     3.15537  3.15537  0.00000 -0.31074
       4     H     0.42068  0.42068  0.00000  0.15865
       5     H     0.42168  0.42168  0.00000  0.15664
       6     C     3.04744  3.04744  0.00000 -0.09488
       7     H     0.41297  0.41297  0.00000  0.17406
       8     H     0.42668  0.42668  0.00000  0.14663
       9     N     3.85733  3.85733  0.00000 -0.71465
      10     H     0.42153  0.42153  0.00000  0.15694
      11     H     0.43610  0.43610  0.00000  0.12780
      12     C     3.04719  3.04719  0.00000 -0.09439
      13     H     0.33504  0.33504  0.00000  0.32991
      14     C     3.16117  3.16117  0.00000 -0.32234
      15     H     0.42141  0.42141  0.00000  0.15719
      16     H     0.43601  0.43601  0.00000  0.12798
      17     C     3.24242  3.24242  0.00000 -0.48484
      18     H     0.41166  0.41166  0.00000  0.17669
      19     H     0.42502  0.42502  0.00000  0.14996
      20     H     0.41903  0.41903  0.00000  0.16195
      21     H     0.41842  0.41842  0.00000  0.16316
      22     H     0.42186  0.42186  0.00000  0.15628

   Total alpha = 29.00000, Total beta = 29.00000, Total charge = -0.00000
