                              Psi4 1.0.54 Driver

  ==> Input File <==

--------------------------------------------------------------------------
set {
	reference rhf
	basis cc-pvtz
}

set_num_threads( 4 )
memory 2 gb

molecule MOL {
0 1

H	 1.128311	 0.207724	 1.465118
C	 1.134565	 0.093781	 0.372499
C	 0.062554	 0.862911	 -0.350953
O	 1.948932	 -0.587720	 -0.146651
C	 0.456527	 1.212111	 -1.789514
H	 -0.172243	 1.749928	 0.223127
H	 -0.821035	 0.228782	 -0.365926
C	 1.607920	 2.209626	 -1.878443
H	 -0.412813	 1.617533	 -2.293949
H	 0.718078	 0.301942	 -2.322081
H	 1.353480	 3.141041	 -1.385205
H	 1.844747	 2.433061	 -2.911705
H	 2.507643	 1.827006	 -1.409255

	symmetry c1
}
set optking {
	frozen_dihedral = ("
		6 3 2 4
	")
}

ee,wfn = optimize('scf', return_wfn=True)
oeprop( wfn, 'DIPOLE', 'QUADRUPOLE', 'MULLIKEN_CHARGES')
f=open( 'psi4out.xyz', 'w' )
f.write( "13  " )
f.write( str(ee) + "\n" )
f.write( MOL.save_string_xyz() )
f.close()
--------------------------------------------------------------------------

    Molecular point group: c1
  Charge       = 0
  Multiplicity = 1
  Basis Set: CC-PVTZ
  Basis Set:
  @DF-RHF Final Energy:  -231.07023449346522
    Total Energy =                       -231.0702344934651080
    Molecular point group: c1
  Basis Set: CC-PVTZ
  Basis Set:
  Basis Set: CC-PVTZ
  Basis Set:
  @DF-RHF Final Energy:  -231.06940691086047
    Total Energy =                       -231.0694069108605504
  Basis Set: CC-PVTZ
  Basis Set:
  Basis Set: CC-PVTZ
  Basis Set:
  @DF-RHF Final Energy:  -231.07079125219320
    Total Energy =                       -231.0707912521932599
  Basis Set: CC-PVTZ
  Basis Set:
  Basis Set: CC-PVTZ
  Basis Set:
  @DF-RHF Final Energy:  -231.07099867714319
    Total Energy =                       -231.0709986771432227
  Basis Set: CC-PVTZ
  Basis Set:
  Basis Set: CC-PVTZ
  Basis Set:
  @DF-RHF Final Energy:  -231.07100462581442
    Total Energy =                       -231.0710046258145098
  Basis Set: CC-PVTZ
  Basis Set:
  Basis Set: CC-PVTZ
  Basis Set:
  @DF-RHF Final Energy:  -231.07100610244140
    Total Energy =                       -231.0710061024414017
  Basis Set: CC-PVTZ
  Basis Set:
  Charge       = 0
  Multiplicity = 1
  Basis Set: CC-PVTZ
  Basis Set:

    Orbital Energies (a.u.)
    -----------------------

    Doubly Occupied:

       1A    -20.553023     2A    -11.323699     3A    -11.236589
       4A    -11.224643     5A    -11.211020     6A     -1.408870
       7A     -1.079783     8A     -0.973757     9A     -0.852471
      10A     -0.766007    11A     -0.689040    12A     -0.638782
      13A     -0.630413    14A     -0.587759    15A     -0.563933
      16A     -0.526576    17A     -0.498658    18A     -0.485425
      19A     -0.482416    20A     -0.413954

  @DF-RHF Final Energy:  -231.07100627673637

   => Energetics <=

    Nuclear Repulsion Energy =            176.2533303824774578
    One-Electron Energy =                -662.3550307251172171
    Two-Electron Energy =                 255.0306940659032762
    DFT Exchange-Correlation Energy =       0.0000000000000000
    Empirical Dispersion Energy =           0.0000000000000000
    PCM Polarization Energy =               0.0000000000000000
    EFP Energy =                            0.0000000000000000
    Total Energy =                       -231.0710062767365116
    Molecular point group: c1
  Basis Set: CC-PVTZ
  Basis Set:

  -Total Gradient:
     Atom            X                  Y                   Z
    ------   -----------------  -----------------  -----------------
       1       -0.000011618691    -0.000004020259     0.000010820642
       2        0.001622162403     0.002028137961     0.000042723210
       3        0.001146212862     0.000451224259    -0.001152173254
       4       -0.001355282036    -0.001524843060     0.000112838318
       5       -0.000026633043    -0.000006541892     0.000028080122
       6       -0.001386964366    -0.000938190991     0.000957305342
       7       -0.000006917709    -0.000006075774     0.000014063862
       8        0.000016603860     0.000005011661    -0.000007905213
       9        0.000003590802    -0.000004953112    -0.000002162050
      10        0.000002523839    -0.000000452716    -0.000010254942
      11        0.000000476781     0.000001624725     0.000000667040
      12        0.000000619192    -0.000002196890     0.000004619606
      13       -0.000004773894     0.000001276085     0.000001377318

  **** Optimization is complete! (in 7 steps) ****
    Final optimized geometry and variables:
    Molecular point group: c1

    Geometry (in Angstrom), charge = 0, multiplicity = 1:

    H            0.080110102966    -0.667097849525     2.240504827060
    C            0.100656123260    -0.702233416417     1.144472767831
    C           -0.938131429632     0.147670978693     0.457560523370
    O            0.865219511437    -1.413903558317     0.590319331863
    C           -0.636091004190     0.493644766644    -0.996679821805
    H           -1.114216116134     1.034315200726     1.059861234054
    H           -1.859616730927    -0.430055882863     0.524568723120
    C            0.521677882707     1.474228999833    -1.159777725004
    H           -1.531342576455     0.917065976728    -1.439204916905
    H           -0.419444291981    -0.419246271210    -1.536714973701
    H            0.318495852860     2.408434096394    -0.645730566352
    H            0.685275998328     1.703343467658    -2.205993863637
    H            1.443048676964     1.064860908925    -0.764652014863

  Mulliken Charges: (a.u.)
   Center  Symbol    Alpha    Beta     Spin     Total
       1     H     0.45336  0.45336  0.00000  0.09329
       2     C     2.91646  2.91646  0.00000  0.16709
       3     C     3.09681  3.09681  0.00000 -0.19361
       4     O     4.16766  4.16766  0.00000 -0.33532
       5     C     3.08537  3.08537  0.00000 -0.17074
       6     H     0.44746  0.44746  0.00000  0.10508
       7     H     0.43947  0.43947  0.00000  0.12105
       8     C     3.15153  3.15153  0.00000 -0.30307
       9     H     0.44710  0.44710  0.00000  0.10580
      10     H     0.44436  0.44436  0.00000  0.11128
      11     H     0.45760  0.45760  0.00000  0.08479
      12     H     0.44685  0.44685  0.00000  0.10631
      13     H     0.44597  0.44597  0.00000  0.10806

   Total alpha = 20.00000, Total beta = 20.00000, Total charge = -0.00000

*** Psi4 exiting successfully. Buy a developer a beer!
