  ==> Input File <==

--------------------------------------------------------------------------
set {
	reference rhf
	basis 6-31G*
}

set_num_threads( 1 )
memory 2 gb

molecule MOL {
0 1

H	 -3.420663	 1.227371	 -1.044276
O	 -3.452007	 0.283848	 -0.965577
C	 -3.181085	 -0.079926	 0.364119
C	 -1.765924	 0.277073	 0.805136
H	 -3.327791	 -1.152017	 0.410903
H	 -3.905698	 0.375695	 1.036898
C	 -0.677518	 -0.398609	 -0.029934
H	 -1.643381	 1.359694	 0.761808
H	 -1.654007	 0.001388	 1.852367
C	 0.738264	 -0.016055	 0.406407
H	 -0.820374	 -0.143421	 -1.075487
H	 -0.796948	 -1.478566	 0.039513
C	 1.822310	 -0.700873	 -0.430227
H	 0.847784	 1.064012	 0.344120
H	 0.877039	 -0.277018	 1.454855
C	 3.258539	 -0.418425	 0.025433
H	 1.712387	 -0.405462	 -1.472505
H	 1.656589	 -1.775829	 -0.401546
C	 3.701673	 1.037110	 -0.134112
H	 3.932024	 -1.051937	 -0.546730
H	 3.371412	 -0.718334	 1.065393
H	 3.587919	 1.368865	 -1.162770
H	 4.746833	 1.153672	 0.135869
H	 3.127026	 1.708352	 0.495474

	symmetry c1
}
set optking {
	frozen_dihedral = ("
		20 16 13 17,
		17 13 10 7,
		13 10 7 11,
		11 7 4 3,
		1 2 3 5
	")
}

ee = energy('scf')
oeprop('DIPOLE', 'QUADRUPOLE', 'MULLIKEN_CHARGES')
f=open( 'psi4out.xyz', 'w' )
f.write( "24  " )
f.write( str(ee) + "\n" )
f.write( MOL.save_string_xyz() )
f.close()
--------------------------------------------------------------------------

    Molecular point group: c1

    Geometry (in Angstrom), charge = 0, multiplicity = 1:

       Center              X                  Y                   Z               Mass
    ------------   -----------------  -----------------  -----------------  -----------------
           H         -3.419763693850     1.208339315426    -1.031756619070     1.007825032070
           O         -3.451107693850     0.264816315426    -0.953057619070    15.994914619560
           C         -3.180185693850    -0.098957684574     0.376638380930    12.000000000000
           C         -1.765024693850     0.258041315426     0.817655380930    12.000000000000
           H         -3.326891693850    -1.171048684574     0.423422380930     1.007825032070
           H         -3.904798693850     0.356663315426     1.049417380930     1.007825032070
           C         -0.676618693850    -0.417640684574    -0.017414619070    12.000000000000
           H         -1.642481693850     1.340662315426     0.774327380930     1.007825032070
           H         -1.653107693850    -0.017643684574     1.864886380930     1.007825032070
           C          0.739163306150    -0.035086684574     0.418926380930    12.000000000000
           H         -0.819474693850    -0.162452684574    -1.062967619070     1.007825032070
           H         -0.796048693850    -1.497597684574     0.052032380930     1.007825032070
           C          1.823209306150    -0.719904684574    -0.417707619070    12.000000000000
           H          0.848683306150     1.044980315426     0.356639380930     1.007825032070
           H          0.877938306150    -0.296049684574     1.467374380930     1.007825032070
           C          3.259438306150    -0.437456684574     0.037952380930    12.000000000000
           H          1.713286306150    -0.424493684574    -1.459985619070     1.007825032070
           H          1.657488306150    -1.794860684574    -0.389026619070     1.007825032070
           C          3.702572306150     1.018078315426    -0.121592619070    12.000000000000
           H          3.932923306150    -1.070968684574    -0.534210619070     1.007825032070
           H          3.372311306150    -0.737365684574     1.077912380930     1.007825032070
           H          3.588818306150     1.349833315426    -1.150250619070     1.007825032070
           H          4.747732306150     1.134640315426     0.148388380930     1.007825032070
           H          3.127925306150     1.689320315426     0.507993380930     1.007825032070

  Charge       = 0
  Multiplicity = 1
  Basis Set: 6-31G*
  Basis Set:

    Orbital Energies (a.u.)
    -----------------------

    Doubly Occupied:

       1A    -20.553623     2A    -11.267746     3A    -11.217457
       4A    -11.214067     5A    -11.212424     6A    -11.211568
       7A    -11.211061     8A    -11.207390     9A     -1.360221
      10A     -1.088522    11A     -1.048279    12A     -0.985651
      13A     -0.915044    14A     -0.850472    15A     -0.800627
      16A     -0.776238    17A     -0.679053    18A     -0.653797
      19A     -0.625403    20A     -0.619708    21A     -0.596830
      22A     -0.584743    23A     -0.557483    24A     -0.541075
      25A     -0.514592    26A     -0.508830    27A     -0.499597
      28A     -0.472556    29A     -0.467539    30A     -0.459649
      31A     -0.455273    32A     -0.450831    33A     -0.419133

  @DF-RHF Final Energy:  -349.24762679335839

   => Energetics <=

    Nuclear Repulsion Energy =            384.5418067002778457
    One-Electron Energy =               -1235.5257324006729505
    Two-Electron Energy =                 501.7362989070360868
    DFT Exchange-Correlation Energy =       0.0000000000000000
    Empirical Dispersion Energy =           0.0000000000000000
    PCM Polarization Energy =               0.0000000000000000
    EFP Energy =                            0.0000000000000000
    Total Energy =                       -349.2476267933589611

  Mulliken Charges: (a.u.)
   Center  Symbol    Alpha    Beta     Spin     Total
       1     H     0.28339  0.28339  0.00000  0.43322
       2     O     4.36823  4.36823  0.00000 -0.73646
       3     C     2.99609  2.99609  0.00000  0.00783
       4     C     3.16936  3.16936  0.00000 -0.33872
       5     H     0.41632  0.41632  0.00000  0.16735
       6     H     0.42814  0.42814  0.00000  0.14372
       7     C     3.15157  3.15157  0.00000 -0.30313
       8     H     0.42832  0.42832  0.00000  0.14335
       9     H     0.42228  0.42228  0.00000  0.15543
      10     C     3.15359  3.15359  0.00000 -0.30719
      11     H     0.41214  0.41214  0.00000  0.17572
      12     H     0.42357  0.42357  0.00000  0.15286
      13     C     3.15223  3.15223  0.00000 -0.30446
      14     H     0.42299  0.42299  0.00000  0.15402
      15     H     0.42546  0.42546  0.00000  0.14908
      16     C     3.15230  3.15230  0.00000 -0.30461
      17     H     0.42365  0.42365  0.00000  0.15269
      18     H     0.42205  0.42205  0.00000  0.15589
      19     C     3.24104  3.24104  0.00000 -0.48208
      20     H     0.42106  0.42106  0.00000  0.15787
      21     H     0.42377  0.42377  0.00000  0.15245
      22     H     0.42230  0.42230  0.00000  0.15539
      23     H     0.41954  0.41954  0.00000  0.16092
      24     H     0.42058  0.42058  0.00000  0.15884

   Total alpha = 33.00000, Total beta = 33.00000, Total charge = -0.00000
