  ==> Input File <==

--------------------------------------------------------------------------
set {
	reference rhf
	basis cc-pvtz
}

set_num_threads( 4 )
memory 2 gb

molecule MOL {
0 1

H	 -1.700222	 2.141420	 -0.777497
C	 -1.165928	 2.299963	 0.149657
C	 0.151796	 1.540776	 0.156864
H	 -1.807836	 1.971078	 0.955884
H	 -0.988077	 3.362481	 0.265109
C	 0.000000	 0.039916	 0.000014
H	 0.696959	 1.721949	 1.079292
H	 0.803680	 1.890821	 -0.639005
C	 1.286532	 -0.763243	 0.000268
O	 -1.063398	 -0.475917	 -0.116094
C	 2.547023	 0.087626	 -0.000114
H	 1.264245	 -1.421103	 -0.864380
H	 1.264290	 -1.420353	 0.865489
H	 2.584452	 0.725630	 -0.872909
H	 3.427035	 -0.544422	 0.000125
H	 2.584484	 0.726356	 0.872143

	symmetry c1
}
set optking {
	frozen_dihedral = ("
		3 6 9 12
	")
}

ee = optimize('scf')
oeprop('DIPOLE', 'QUADRUPOLE', 'MULLIKEN_CHARGES')
f=open( 'psi4out.xyz', 'w' )
f.write( "16  " )
f.write( str(ee) + "\n" )
f.write( MOL.save_string_xyz() )
f.close()
--------------------------------------------------------------------------

    Molecular point group: c1
  Charge       = 0
  Multiplicity = 1
  Basis Set: CC-PVTZ
  Basis Set:
  @DF-RHF Final Energy:  -270.12421856122882
    Total Energy =                       -270.1242185612286448
    Molecular point group: c1
  Basis Set: CC-PVTZ
  Basis Set:
  Basis Set: CC-PVTZ
  Basis Set:
  @DF-RHF Final Energy:  -270.12583723109765
    Total Energy =                       -270.1258372310977620
  Basis Set: CC-PVTZ
  Basis Set:
  Basis Set: CC-PVTZ
  Basis Set:
  @DF-RHF Final Energy:  -270.12706254887951
    Total Energy =                       -270.1270625488795076
  Basis Set: CC-PVTZ
  Basis Set:
  Basis Set: CC-PVTZ
  Basis Set:
  @DF-RHF Final Energy:  -270.12718838964167
    Total Energy =                       -270.1271883896416739
  Basis Set: CC-PVTZ
  Basis Set:
  Basis Set: CC-PVTZ
  Basis Set:
  @DF-RHF Final Energy:  -270.12718439396872
    Total Energy =                       -270.1271843939692303
  Basis Set: CC-PVTZ
  Basis Set:
  Basis Set: CC-PVTZ
  Basis Set:
  @DF-RHF Final Energy:  -270.12725934160494
    Total Energy =                       -270.1272593416047130
  Basis Set: CC-PVTZ
  Basis Set:
  Charge       = 0
  Multiplicity = 1
  Basis Set: CC-PVTZ
  Basis Set:

    Orbital Energies (a.u.)
    -----------------------

    Doubly Occupied:

       1A    -20.534686     2A    -11.318559     3A    -11.232362
       4A    -11.231793     5A    -11.225162     6A    -11.211120
       7A     -1.396680     8A     -1.072578     9A     -1.036203
      10A     -0.907620    11A     -0.868313    12A     -0.722650
      13A     -0.655462    14A     -0.650029    15A     -0.632050
      16A     -0.609736    17A     -0.553505    18A     -0.542173
      19A     -0.538718    20A     -0.511582    21A     -0.507367
      22A     -0.504038    23A     -0.472957    24A     -0.398001

  @DF-RHF Final Energy:  -270.12725962865244

   => Energetics <=

    Nuclear Repulsion Energy =            240.8090422264033919
    One-Electron Energy =                -843.2059168237486801
    Two-Electron Energy =                 332.2696149686924514
    DFT Exchange-Correlation Energy =       0.0000000000000000
    Empirical Dispersion Energy =           0.0000000000000000
    PCM Polarization Energy =               0.0000000000000000
    EFP Energy =                            0.0000000000000000
    Total Energy =                       -270.1272596286527801
    Molecular point group: c1
  Basis Set: CC-PVTZ
  Basis Set:

  -Total Gradient:
     Atom            X                  Y                   Z
    ------   -----------------  -----------------  -----------------
       1       -0.000004215182    -0.000000944640    -0.000011887540
       2       -0.000010612983    -0.000011326199     0.000051704873
       3        0.000034396118     0.000047026167    -0.000546698773
       4       -0.000002052684     0.000005058019    -0.000007499822
       5        0.000003491642    -0.000005474571    -0.000003538055
       6        0.000017597672    -0.000002089678     0.000597176666
       7        0.000015204684    -0.000033556187     0.000024982399
       8       -0.000015019167     0.000016018505     0.000027750953
       9       -0.000262936357    -0.000399145549     0.000154998898
      10       -0.000013788576     0.000019982577     0.000008036781
      11       -0.000003645656    -0.000010190286    -0.000005195604
      12        0.000229696572     0.000372880765    -0.000303737091
      13       -0.000001175349    -0.000006904614    -0.000002463903
      14        0.000013778578    -0.000012919245     0.000006699343
      15        0.000004201448     0.000001525096     0.000003011300
      16       -0.000004920763     0.000020059838     0.000006659574

  **** Optimization is complete! (in 7 steps) ****
    Final optimized geometry and variables:
    Molecular point group: c1

    Geometry (in Angstrom), charge = 0, multiplicity = 1:

    H           -2.081895883593     1.627723081272    -0.798679325846
    C           -1.546921443957     1.817346704780     0.122087593645
    C           -0.191593417890     1.127779993042     0.117738612155
    H           -2.162737961907     1.458640573232     0.935741700720
    H           -1.422053774649     2.888013857600     0.232233281693
    C           -0.275371514923    -0.376792635333    -0.032192224490
    H            0.352492177687     1.341100951781     1.033603892483
    H            0.433018228036     1.509578523867    -0.684346773994
    C            1.004549472403    -1.205436846965    -0.037901362710
    O           -1.320573273430    -0.931811970298    -0.140197486828
    C            2.343608794523    -0.475118102044    -0.029028583345
    H            0.935309413602    -1.847880110593    -0.907836819587
    H            0.932139435800    -1.862110504582     0.822740746587
    H            2.467475936811     0.155004773615    -0.901560904510
    H            3.151401262780    -1.196418887430    -0.033120917167
    H            2.466360517632     0.144246095984     0.850922131498

  Mulliken Charges: (a.u.)
   Center  Symbol    Alpha    Beta     Spin     Total
       1     H     0.44751  0.44751  0.00000  0.10498
       2     C     3.14192  3.14192  0.00000 -0.28384
       3     C     3.10452  3.10452  0.00000 -0.20903
       4     H     0.44758  0.44758  0.00000  0.10484
       5     H     0.45095  0.45095  0.00000  0.09810
       6     C     2.87297  2.87297  0.00000  0.25405
       7     H     0.44369  0.44369  0.00000  0.11262
       8     H     0.44377  0.44377  0.00000  0.11246
       9     C     3.08845  3.08845  0.00000 -0.17690
      10     O     4.17840  4.17840  0.00000 -0.35679
      11     C     3.15908  3.15908  0.00000 -0.31817
      12     H     0.43807  0.43807  0.00000  0.12387
      13     H     0.43995  0.43995  0.00000  0.12011
      14     H     0.45073  0.45073  0.00000  0.09855
      15     H     0.44112  0.44112  0.00000  0.11775
      16     H     0.45129  0.45129  0.00000  0.09741

   Total alpha = 24.00000, Total beta = 24.00000, Total charge = -0.00000
