  ==> Input File <==

--------------------------------------------------------------------------
set {
	reference rhf
	basis 6-31G*
}

set_num_threads( 1 )
memory 2 gb

molecule MOL {
0 1

H	 2.460150	 -1.023336	 0.675890
N	 2.434251	 -0.367735	 -0.081097
C	 1.267428	 0.496480	 0.024474
H	 2.398626	 -0.903978	 -0.927317
C	 -0.016086	 -0.325158	 -0.029487
H	 1.288818	 1.183521	 -0.816092
H	 1.267576	 1.109062	 0.929528
C	 -1.282277	 0.529072	 0.046735
H	 -0.012495	 -0.908639	 -0.945788
H	 -0.015903	 -1.041248	 0.791956
C	 -2.563920	 -0.301775	 -0.006060
H	 -1.284084	 1.244622	 -0.773004
H	 -1.271387	 1.115393	 0.963286
H	 -2.621848	 -0.873522	 -0.927727
H	 -3.445135	 0.329952	 0.047812
H	 -2.609542	 -1.004582	 0.821105

	symmetry c1
}
set optking {
	frozen_dihedral = ("
		6 3 5 9,
		12 8 5 9
	")
}

ee = energy('scf')
oeprop('DIPOLE', 'QUADRUPOLE', 'MULLIKEN_CHARGES')
f=open( 'psi4out.xyz', 'w' )
f.write( "16  " )
f.write( str(ee) + "\n" )
f.write( MOL.save_string_xyz() )
f.close()
--------------------------------------------------------------------------

    Molecular point group: c1

    Geometry (in Angstrom), charge = 0, multiplicity = 1:

       Center              X                  Y                   Z               Mass
    ------------   -----------------  -----------------  -----------------  -----------------
           H          2.472827341439    -1.007673014976     0.687783270779     1.007825032070
           N          2.446928341439    -0.352072014976    -0.069203729221    14.003074004780
           C          1.280105341439     0.512142985024     0.036367270779    12.000000000000
           H          2.411303341439    -0.888315014976    -0.915423729221     1.007825032070
           C         -0.003408658561    -0.309495014976    -0.017593729221    12.000000000000
           H          1.301495341439     1.199183985024    -0.804198729221     1.007825032070
           H          1.280253341439     1.124724985024     0.941421270779     1.007825032070
           C         -1.269599658561     0.544734985024     0.058628270779    12.000000000000
           H          0.000182341439    -0.892976014976    -0.933894729221     1.007825032070
           H         -0.003225658561    -1.025585014976     0.803849270779     1.007825032070
           C         -2.551242658561    -0.286112014976     0.005833270779    12.000000000000
           H         -1.271406658561     1.260284985024    -0.761110729221     1.007825032070
           H         -1.258709658561     1.131055985024     0.975179270779     1.007825032070
           H         -2.609170658561    -0.857859014976    -0.915833729221     1.007825032070
           H         -3.432457658561     0.345614985024     0.059705270779     1.007825032070
           H         -2.596864658561    -0.988919014976     0.832998270779     1.007825032070

  Charge       = 0
  Multiplicity = 1
  Basis Set: 6-31G*
  Basis Set:

    Orbital Energies (a.u.)
    -----------------------

    Doubly Occupied:

       1A    -15.531442     2A    -11.241246     3A    -11.217360
       4A    -11.212512     5A    -11.210522     6A     -1.178855
       7A     -1.061446     8A     -0.959293     9A     -0.847851
      10A     -0.797778    11A     -0.679680    12A     -0.624752
      13A     -0.595556    14A     -0.590723    15A     -0.553088
      16A     -0.529445    17A     -0.498106    18A     -0.492061
      19A     -0.473845    20A     -0.467393    21A     -0.372305

  @DF-RHF Final Energy:  -212.31473171387327

   => Energetics <=

    Nuclear Repulsion Energy =            186.8290356632109877
    One-Electron Energy =                -656.0170786085069494
    Two-Electron Energy =                 256.8733112314224627
    DFT Exchange-Correlation Energy =       0.0000000000000000
    Empirical Dispersion Energy =           0.0000000000000000
    PCM Polarization Energy =               0.0000000000000000
    EFP Energy =                            0.0000000000000000
    Total Energy =                       -212.3147317138734707

  Mulliken Charges: (a.u.)
   Center  Symbol    Alpha    Beta     Spin     Total
       1     H     0.33541  0.33541  0.00000  0.32919
       2     N     3.91709  3.91709  0.00000 -0.83417
       3     C     3.06293  3.06293  0.00000 -0.12586
       4     H     0.33430  0.33430  0.00000  0.33141
       5     C     3.15577  3.15577  0.00000 -0.31154
       6     H     0.41874  0.41874  0.00000  0.16252
       7     H     0.41842  0.41842  0.00000  0.16316
       8     C     3.15620  3.15620  0.00000 -0.31240
       9     H     0.42731  0.42731  0.00000  0.14538
      10     H     0.42756  0.42756  0.00000  0.14488
      11     C     3.23853  3.23853  0.00000 -0.47707
      12     H     0.42245  0.42245  0.00000  0.15511
      13     H     0.42254  0.42254  0.00000  0.15491
      14     H     0.42179  0.42179  0.00000  0.15641
      15     H     0.41907  0.41907  0.00000  0.16187
      16     H     0.42190  0.42190  0.00000  0.15621

   Total alpha = 21.00000, Total beta = 21.00000, Total charge = -0.00000
