                              Psi4 1.0.54 Driver

  ==> Input File <==

--------------------------------------------------------------------------
set {
	reference rhf
	basis cc-pvtz
}

set_num_threads( 4 )
memory 2 gb

molecule MOL {
0 1

H	 3.273419	 0.176595	 -0.102789
N	 2.433987	 -0.362316	 -0.080024
C	 1.263552	 0.494993	 0.021953
H	 2.497638	 -0.973615	 0.707122
C	 -0.016533	 -0.325589	 -0.026925
H	 1.280915	 1.180773	 -0.818522
H	 1.263064	 1.106893	 0.925038
C	 -1.280353	 0.525521	 0.047747
H	 -0.016686	 -0.912532	 -0.939714
H	 -0.014099	 -1.037598	 0.796369
C	 -2.334478	 -0.052629	 0.986125
H	 -1.703806	 0.627240	 -0.947897
H	 -1.022863	 1.529993	 0.372724
H	 -2.638271	 -1.044451	 0.668748
H	 -3.220208	 0.571571	 1.014538
H	 -1.954283	 -0.133478	 1.999089

	symmetry c1
}
set optking {
	frozen_dihedral = ("
		12 8 5 9
	")
}

ee,wfn = optimize('scf', return_wfn=True)
oeprop( wfn, 'DIPOLE', 'QUADRUPOLE', 'MULLIKEN_CHARGES')
f=open( 'psi4out.xyz', 'w' )
f.write( "16  " )
f.write( str(ee) + "\n" )
f.write( MOL.save_string_xyz() )
f.close()
--------------------------------------------------------------------------

    Molecular point group: c1
  Charge       = 0
  Multiplicity = 1
  Basis Set: CC-PVTZ
  Basis Set:
  @DF-RHF Final Energy:  -212.39584296509221
    Total Energy =                       -212.3958429650921289
    Molecular point group: c1
  Basis Set: CC-PVTZ
  Basis Set:
  Basis Set: CC-PVTZ
  Basis Set:
  @DF-RHF Final Energy:  -212.39610756403872
    Total Energy =                       -212.3961075640385729
  Basis Set: CC-PVTZ
  Basis Set:
  Basis Set: CC-PVTZ
  Basis Set:
  @DF-RHF Final Energy:  -212.39616809674763
    Total Energy =                       -212.3961680967477150
  Basis Set: CC-PVTZ
  Basis Set:
  Charge       = 0
  Multiplicity = 1
  Basis Set: CC-PVTZ
  Basis Set:

    Orbital Energies (a.u.)
    -----------------------

    Doubly Occupied:

       1A    -15.526515     2A    -11.238393     3A    -11.212917
       4A    -11.207777     5A    -11.206400     6A     -1.178430
       7A     -1.058689     8A     -0.959713     9A     -0.844467
      10A     -0.792457    11A     -0.662865    12A     -0.640551
      13A     -0.598105    14A     -0.588936    15A     -0.564834
      16A     -0.517183    17A     -0.509537    18A     -0.469393
      19A     -0.461915    20A     -0.459889    21A     -0.384161

  @DF-RHF Final Energy:  -212.39616904203308

   => Energetics <=

    Nuclear Repulsion Energy =            186.6626604200439488
    One-Electron Energy =                -655.9514031261655873
    Two-Electron Energy =                 256.8925736640885589
    DFT Exchange-Correlation Energy =       0.0000000000000000
    Empirical Dispersion Energy =           0.0000000000000000
    PCM Polarization Energy =               0.0000000000000000
    EFP Energy =                            0.0000000000000000
    Total Energy =                       -212.3961690420330797
    Molecular point group: c1
  Basis Set: CC-PVTZ
  Basis Set:

  -Total Gradient:
     Atom            X                  Y                   Z
    ------   -----------------  -----------------  -----------------
       1        0.000037642910    -0.000015234149     0.000001263176
       2        0.000074415443     0.000002960692     0.000002013584
       3       -0.000073267556    -0.000067446212    -0.000019971801
       4        0.000011804957     0.000003796349     0.000001247285
       5       -0.002386278594    -0.003739951686     0.002161879831
       6        0.000002795739    -0.000001498575     0.000008964073
       7       -0.000009357257     0.000023854524    -0.000000674772
       8        0.002566170587     0.004017783418    -0.001033732717
       9        0.001590182247     0.002515292666    -0.001673173345
      10       -0.000000324264     0.000016512693    -0.000001064449
      11       -0.000001013130     0.000047873911    -0.000026931136
      12       -0.001811347498    -0.002793181024     0.000562127297
      13        0.000006643038    -0.000007432352     0.000019946557
      14        0.000008594734    -0.000000277809     0.000006046752
      15       -0.000017650279    -0.000005046925    -0.000000732644
      16        0.000000988922     0.000001994479    -0.000007207692

  **** Optimization is complete! (in 4 steps) ****
    Final optimized geometry and variables:
    Molecular point group: c1

    Geometry (in Angstrom), charge = 0, multiplicity = 1:

    H            3.225925753199     0.172724775698    -0.402062446443
    N            2.397458711293    -0.380640324518    -0.346370880122
    C            1.216681153671     0.454327975865    -0.199849097858
    H            2.502585761778    -0.990647552883     0.437411704082
    C           -0.051607709377    -0.389547204452    -0.188599009267
    H            1.183758898093     1.135364043836    -1.044140620142
    H            1.241097392711     1.072526265376     0.698892052613
    C           -1.332527432466     0.459423704227    -0.127363100292
    H           -0.041986416815    -0.995823099952    -1.086632298915
    H           -0.012678847858    -1.069802857197     0.657895702665
    C           -2.397883090321    -0.122820112523     0.798647210513
    H           -1.758937708219     0.539320327411    -1.121544011024
    H           -1.096224021571     1.468069697489     0.196579111281
    H           -2.670495237889    -1.128243655540     0.494995284703
    H           -3.298768077444     0.480435394660     0.791694220495
    H           -2.040379475005    -0.174388191734     1.821829797405

  Mulliken Charges: (a.u.)
   Center  Symbol    Alpha    Beta     Spin     Total
       1     H     0.43009  0.43009  0.00000  0.13982
       2     N     3.69008  3.69008  0.00000 -0.38017
       3     C     3.02433  3.02433  0.00000 -0.04866
       4     H     0.43084  0.43084  0.00000  0.13833
       5     C     3.08403  3.08403  0.00000 -0.16805
       6     H     0.45644  0.45644  0.00000  0.08713
       7     H     0.46946  0.46946  0.00000  0.06108
       8     C     3.09124  3.09124  0.00000 -0.18248
       9     H     0.44761  0.44761  0.00000  0.10477
      10     H     0.46009  0.46009  0.00000  0.07981
      11     C     3.14817  3.14817  0.00000 -0.29634
      12     H     0.45116  0.45116  0.00000  0.09767
      13     H     0.45628  0.45628  0.00000  0.08745
      14     H     0.45378  0.45378  0.00000  0.09243
      15     H     0.44977  0.44977  0.00000  0.10047
      16     H     0.45664  0.45664  0.00000  0.08673

   Total alpha = 21.00000, Total beta = 21.00000, Total charge =  0.00000

*** Psi4 exiting successfully. Buy a developer a beer!
