  ==> Input File <==

--------------------------------------------------------------------------
set {
	reference rhf
	basis cc-pvtz
}

set_num_threads( 4 )
memory 2 gb

molecule MOL {
0 1

H	 -2.166668	 0.868556	 -2.223440
N	 -1.196485	 0.785787	 -2.006728
C	 -0.786763	 -0.606052	 -1.974245
H	 -1.049818	 1.206001	 -1.113472
C	 0.681907	 -0.718421	 -1.635083
H	 -1.350735	 -1.207288	 -1.262209
H	 -0.941314	 -1.036468	 -2.957559
O	 0.881195	 -0.248324	 -0.336237
H	 1.000002	 -1.757369	 -1.709753
H	 1.265824	 -0.131569	 -2.340472
C	 2.208068	 -0.234417	 0.074171
H	 2.725499	 -1.027054	 -0.446768
H	 2.688377	 0.712084	 -0.164856
H	 2.295137	 -0.403407	 1.144883

	symmetry c1
}
set optking {
	frozen_dihedral = ("
		5 8 11 13
	")
}

ee = optimize('scf')
oeprop('DIPOLE', 'QUADRUPOLE', 'MULLIKEN_CHARGES')
f=open( 'psi4out.xyz', 'w' )
f.write( "14  " )
f.write( str(ee) + "\n" )
f.write( MOL.save_string_xyz() )
f.close()
--------------------------------------------------------------------------

    Molecular point group: c1
  Charge       = 0
  Multiplicity = 1
  Basis Set: CC-PVTZ
  Basis Set:
  @DF-RHF Final Energy:  -248.22337738742431
    Total Energy =                       -248.2233773874241933
    Molecular point group: c1
  Basis Set: CC-PVTZ
  Basis Set:
  Basis Set: CC-PVTZ
  Basis Set:
  @DF-RHF Final Energy:  -248.22426422778557
    Total Energy =                       -248.2242642277853406
  Basis Set: CC-PVTZ
  Basis Set:
  Basis Set: CC-PVTZ
  Basis Set:
  @DF-RHF Final Energy:  -248.22447874498351
    Total Energy =                       -248.2244787449831165
  Basis Set: CC-PVTZ
  Basis Set:
  Charge       = 0
  Multiplicity = 1
  Basis Set: CC-PVTZ
  Basis Set:

    Orbital Energies (a.u.)
    -----------------------

    Doubly Occupied:

       1A    -20.549079     2A    -15.523395     3A    -11.264117
       4A    -11.263322     5A    -11.239626     6A     -1.382275
       7A     -1.175830     8A     -1.000541     9A     -0.907699
      10A     -0.815456    11A     -0.685146    12A     -0.674743
      13A     -0.645520    14A     -0.612559    15A     -0.607006
      16A     -0.541492    17A     -0.533498    18A     -0.497265
      19A     -0.474190    20A     -0.417352    21A     -0.383766

  @DF-RHF Final Energy:  -248.22447990128347

   => Energetics <=

    Nuclear Repulsion Energy =            194.5461237203125506
    One-Electron Energy =                -723.1534480857671952
    Two-Electron Energy =                 280.3828444641710576
    DFT Exchange-Correlation Energy =       0.0000000000000000
    Empirical Dispersion Energy =           0.0000000000000000
    PCM Polarization Energy =               0.0000000000000000
    EFP Energy =                            0.0000000000000000
    Total Energy =                       -248.2244799012835301
    Molecular point group: c1
  Basis Set: CC-PVTZ
  Basis Set:

  -Total Gradient:
     Atom            X                  Y                   Z
    ------   -----------------  -----------------  -----------------
       1       -0.000001115601    -0.000003540578    -0.000001319337
       2       -0.000000746031     0.000000944174    -0.000015013880
       3       -0.000012603382     0.000013552199     0.000082197092
       4        0.000008099350    -0.000009299647    -0.000004240649
       5       -0.000144064769    -0.002069101688     0.000733586103
       6       -0.000024684845    -0.000008274780    -0.000001229091
       7        0.000025074352     0.000000150440     0.000009901838
       8        0.000153769731     0.003384092759    -0.000391079107
       9        0.000000899698     0.000005213014     0.000031966598
      10        0.000007080467    -0.000009199755    -0.000002803936
      11        0.000889230633    -0.002342448882    -0.002947546986
      12        0.000027726462    -0.000015847289    -0.000015263655
      13       -0.000908875862     0.001034660990     0.002508391528
      14       -0.000019790204     0.000019099039     0.000012453483

  **** Optimization is complete! (in 4 steps) ****
    Final optimized geometry and variables:
    Molecular point group: c1

    Geometry (in Angstrom), charge = 0, multiplicity = 1:

    H           -2.533016957621     1.070530154974    -1.040945190687
    N           -1.561362625520     0.984516809061    -0.832297226258
    C           -1.154315464561    -0.408278579128    -0.810468114529
    H           -1.407132785511     1.399224876560     0.062241682639
    C            0.317405359368    -0.525854909026    -0.486929132937
    H           -1.712048665004    -1.011480968487    -0.095098392257
    H           -1.319912769028    -0.834153530261    -1.794014135723
    O            0.527785189413    -0.064771395739     0.814162338525
    H            0.632040789800    -1.564691074729    -0.568686857150
    H            0.893595281322     0.062943475740    -1.197083649312
    C            1.855862613937    -0.045176806698     1.229863918828
    H            2.432568786177    -0.847892216482     0.780157823902
    H            2.325590663596     0.906326878236     0.996163254460
    H            1.873607952420    -0.171580022918     2.304255292211

  Mulliken Charges: (a.u.)
   Center  Symbol    Alpha    Beta     Spin     Total
       1     H     0.43028  0.43028  0.00000  0.13944
       2     N     3.69419  3.69419  0.00000 -0.38838
       3     C     3.02327  3.02327  0.00000 -0.04653
       4     H     0.42237  0.42237  0.00000  0.15525
       5     C     2.96811  2.96811  0.00000  0.06377
       6     H     0.46470  0.46470  0.00000  0.07059
       7     H     0.45873  0.45873  0.00000  0.08255
       8     O     4.18210  4.18210  0.00000 -0.36419
       9     H     0.46888  0.46888  0.00000  0.06223
      10     H     0.46974  0.46974  0.00000  0.06051
      11     C     3.03009  3.03009  0.00000 -0.06018
      12     H     0.47222  0.47222  0.00000  0.05557
      13     H     0.46348  0.46348  0.00000  0.07305
      14     H     0.45184  0.45184  0.00000  0.09631

   Total alpha = 21.00000, Total beta = 21.00000, Total charge = -0.00000
