  ==> Input File <==

--------------------------------------------------------------------------
set {
	reference rhf
	basis cc-pvtz
}

set_num_threads( 4 )
memory 2 gb

molecule MOL {
0 1

H	 -4.131095	 -0.605431	 1.042573
O	 -3.455187	 -0.708212	 0.398539
C	 -2.238240	 -0.215103	 0.892808
C	 -1.175688	 -0.398187	 -0.171891
H	 -2.329825	 0.838696	 1.147553
H	 -1.951363	 -0.746923	 1.797628
C	 0.196029	 0.106276	 0.266738
H	 -1.494742	 0.122943	 -1.069024
H	 -1.121955	 -1.451897	 -0.426303
C	 1.330220	 -0.826136	 -0.155230
H	 0.359542	 1.097229	 -0.145561
H	 0.212134	 0.218135	 1.348778
C	 2.719700	 -0.407669	 0.328325
H	 1.339388	 -0.911200	 -1.239363
H	 1.119001	 -1.821953	 0.224128
C	 3.241564	 0.893452	 -0.276737
H	 3.418299	 -1.204729	 0.093035
H	 2.711776	 -0.323368	 1.411960
H	 3.254204	 0.841071	 -1.360784
H	 2.634460	 1.745075	 0.005842
H	 4.254264	 1.092401	 0.054971

	symmetry c1
}
set optking {
	frozen_dihedral = ("
		8 4 7 10
	")
}

ee = optimize('scf')
oeprop('DIPOLE', 'QUADRUPOLE', 'MULLIKEN_CHARGES')
f=open( 'psi4out.xyz', 'w' )
f.write( "21  " )
f.write( str(ee) + "\n" )
f.write( MOL.save_string_xyz() )
f.close()
--------------------------------------------------------------------------

    Molecular point group: c1
  Charge       = 0
  Multiplicity = 1
  Basis Set: CC-PVTZ
  Basis Set:
  @DF-RHF Final Energy:  -310.32909489385997
    Total Energy =                       -310.3290948938600309
    Molecular point group: c1
  Basis Set: CC-PVTZ
  Basis Set:
  Basis Set: CC-PVTZ
  Basis Set:
  @DF-RHF Final Energy:  -310.32936497705288
    Total Energy =                       -310.3293649770525349
  Basis Set: CC-PVTZ
  Basis Set:
  Basis Set: CC-PVTZ
  Basis Set:
  @DF-RHF Final Energy:  -310.32940429003855
    Total Energy =                       -310.3294042900383829
  Basis Set: CC-PVTZ
  Basis Set:
  Basis Set: CC-PVTZ
  Basis Set:
  @DF-RHF Final Energy:  -310.32941652978485
    Total Energy =                       -310.3294165297844529
  Basis Set: CC-PVTZ
  Basis Set:
  Basis Set: CC-PVTZ
  Basis Set:
  @DF-RHF Final Energy:  -310.32942429980739
    Total Energy =                       -310.3294242998069876
  Basis Set: CC-PVTZ
  Basis Set:
  Charge       = 0
  Multiplicity = 1
  Basis Set: CC-PVTZ
  Basis Set:

    Orbital Energies (a.u.)
    -----------------------

    Doubly Occupied:

       1A    -20.545482     2A    -11.265274     3A    -11.213250
       4A    -11.213095     5A    -11.211705     6A    -11.208784
       7A    -11.206016     8A     -1.363596     9A     -1.086426
      10A     -1.033719    11A     -0.955378    12A     -0.876341
      13A     -0.808175    14A     -0.779864    15A     -0.697277
      16A     -0.659009    17A     -0.622739    18A     -0.610414
      19A     -0.591986    20A     -0.558926    21A     -0.550460
      22A     -0.518198    23A     -0.505413    24A     -0.496630
      25A     -0.476062    26A     -0.458273    27A     -0.455332
      28A     -0.445850    29A     -0.435936

  @DF-RHF Final Energy:  -310.32942438999589

   => Energetics <=

    Nuclear Repulsion Energy =            312.8710286286733435
    One-Electron Energy =               -1040.7016854414064255
    Two-Electron Energy =                 417.5012324227374165
    DFT Exchange-Correlation Energy =       0.0000000000000000
    Empirical Dispersion Energy =           0.0000000000000000
    PCM Polarization Energy =               0.0000000000000000
    EFP Energy =                            0.0000000000000000
    Total Energy =                       -310.3294243899956655
    Molecular point group: c1
  Basis Set: CC-PVTZ
  Basis Set:

  -Total Gradient:
     Atom            X                  Y                   Z
    ------   -----------------  -----------------  -----------------
       1        0.000011832249     0.000008565339     0.000002036571
       2        0.000007513192    -0.000000590366    -0.000013896037
       3        0.000000975862    -0.000012582268     0.000015357913
       4        0.001753039578    -0.003400909158    -0.001635233598
       5       -0.000005107769    -0.000001206585    -0.000005933139
       6        0.000002664408    -0.000001576317    -0.000002214208
       7       -0.000034435358     0.002375204035    -0.002388477461
       8       -0.001492305163     0.002308773556     0.001961507239
       9       -0.000013928465    -0.000003880538    -0.000001898885
      10       -0.000242546911    -0.001283292404     0.002072181830
      11        0.000016144628     0.000009568812     0.000000354769
      12        0.000010456659     0.000001280183    -0.000006464555
      13       -0.000000590299    -0.000001259790     0.000002634583
      14       -0.000001348051     0.000006228496     0.000003877217
      15       -0.000000627387    -0.000002489504    -0.000000165685
      16       -0.000005224204     0.000000065765    -0.000002063085
      17       -0.000003482044    -0.000002617084    -0.000001588451
      18        0.000000339817    -0.000002605509     0.000001204780
      19        0.000002247951     0.000001938792    -0.000001144572
      20       -0.000004121479     0.000002250395    -0.000001808761
      21       -0.000001497211    -0.000000865847     0.000001733537

  **** Optimization is complete! (in 6 steps) ****
    Final optimized geometry and variables:
    Molecular point group: c1

    Geometry (in Angstrom), charge = 0, multiplicity = 1:

    H           -4.175875996403    -0.313269712815     0.809565624601
    O           -3.497181939769    -0.422309770629     0.169524524340
    C           -2.265135213341    -0.008594996087     0.695878980491
    C           -1.195263941638    -0.203714599033    -0.361451158376
    H           -2.307244772290     1.038763805011     0.988994720303
    H           -2.015525991453    -0.586506783634     1.583421933083
    C            0.182372297061     0.291900997455     0.105781626421
    H           -1.514822761205     0.338577860887    -1.243964546133
    H           -1.160948205320    -1.254930459556    -0.623228199391
    C            1.329612878400    -0.619028452278    -0.329556948696
    H            0.342999290421     1.302306976382    -0.250463502693
    H            0.197066431204     0.351561004140     1.192207920705
    C            2.716226966518    -0.174768562952     0.137869561677
    H            1.329180296458    -0.708893383987    -1.413789888220
    H            1.136693394953    -1.616200207250     0.055465455469
    C            3.219230692568     1.120204710025    -0.495714847285
    H            3.423355022300    -0.967604809907    -0.085949425121
    H            2.713261369442    -0.069489576746     1.219829064012
    H            3.229988550130     1.044740409145    -1.578327421302
    H            2.601660491617     1.969610890629    -0.229940160877
    H            4.229982059652     1.339534814965    -0.171016644644

  Mulliken Charges: (a.u.)
   Center  Symbol    Alpha    Beta     Spin     Total
       1     H     0.39733  0.39733  0.00000  0.20534
       2     O     4.19491  4.19491  0.00000 -0.38982
       3     C     2.96220  2.96220  0.00000  0.07561
       4     C     3.08543  3.08543  0.00000 -0.17086
       5     H     0.47409  0.47409  0.00000  0.05181
       6     H     0.47540  0.47540  0.00000  0.04920
       7     C     3.10760  3.10760  0.00000 -0.21520
       8     H     0.44905  0.44905  0.00000  0.10190
       9     H     0.45115  0.45115  0.00000  0.09770
      10     C     3.09437  3.09437  0.00000 -0.18875
      11     H     0.44810  0.44810  0.00000  0.10380
      12     H     0.45800  0.45800  0.00000  0.08399
      13     C     3.08999  3.08999  0.00000 -0.17998
      14     H     0.45218  0.45218  0.00000  0.09565
      15     H     0.44901  0.44901  0.00000  0.10199
      16     C     3.15179  3.15179  0.00000 -0.30357
      17     H     0.44847  0.44847  0.00000  0.10305
      18     H     0.45538  0.45538  0.00000  0.08924
      19     H     0.45455  0.45455  0.00000  0.09091
      20     H     0.45423  0.45423  0.00000  0.09155
      21     H     0.44678  0.44678  0.00000  0.10645

   Total alpha = 29.00000, Total beta = 29.00000, Total charge = -0.00000
