  ==> Input File <==

--------------------------------------------------------------------------
set {
	reference rhf
	basis 6-31G*
}

set_num_threads( 4 )
memory 2 gb

molecule MOL {
0 1

H	 -4.236494	 0.538104	 0.039757
O	 -3.517110	 -0.026191	 -0.205115
C	 -2.306886	 0.532354	 0.237577
C	 -1.177863	 -0.397191	 -0.171080
H	 -2.156308	 1.517575	 -0.201710
H	 -2.315015	 0.655684	 1.319734
C	 0.198102	 0.111031	 0.262842
H	 -1.208843	 -0.518759	 -1.250427
H	 -1.368741	 -1.376554	 0.258909
C	 1.331804	 -0.827780	 -0.158768
H	 0.361943	 1.100838	 -0.156218
H	 0.217265	 0.229072	 1.345532
C	 2.723619	 -0.410569	 0.329459
H	 1.342964	 -0.912588	 -1.244120
H	 1.116806	 -1.824343	 0.220779
C	 3.514351	 0.446911	 -0.660393
H	 3.295548	 -1.309597	 0.545636
H	 2.628776	 0.122054	 1.273643
H	 3.614321	 -0.055635	 -1.618773
H	 3.039146	 1.406018	 -0.837794
H	 4.514204	 0.644249	 -0.286086

	symmetry c1
}
set optking {
	frozen_dihedral = ("
		16 13 10 14
	")
}

ee = optimize('scf')
oeprop('DIPOLE', 'QUADRUPOLE', 'MULLIKEN_CHARGES')
f=open( 'psi4out.xyz', 'w' )
f.write( "21  " )
f.write( str(ee) + "\n" )
f.write( MOL.save_string_xyz() )
f.close()
--------------------------------------------------------------------------

    Molecular point group: c1
  Charge       = 0
  Multiplicity = 1
  Basis Set: 6-31G*
  Basis Set:
  @DF-RHF Final Energy:  -310.21045384619771
    Total Energy =                       -310.2104538461977086
    Molecular point group: c1
  Basis Set: 6-31G*
  Basis Set:
  Basis Set: 6-31G*
  Basis Set:
  @DF-RHF Final Energy:  -310.21099396163214
    Total Energy =                       -310.2109939616320844
  Basis Set: 6-31G*
  Basis Set:
  Basis Set: 6-31G*
  Basis Set:
  @DF-RHF Final Energy:  -310.21103472125941
    Total Energy =                       -310.2110347212595798
  Basis Set: 6-31G*
  Basis Set:
  Basis Set: 6-31G*
  Basis Set:
  @DF-RHF Final Energy:  -310.21105044057225
    Total Energy =                       -310.2110504405724782
  Basis Set: 6-31G*
  Basis Set:
  Basis Set: 6-31G*
  Basis Set:
  @DF-RHF Final Energy:  -310.21105354427112
    Total Energy =                       -310.2110535442708397
  Basis Set: 6-31G*
  Basis Set:
  Charge       = 0
  Multiplicity = 1
  Basis Set: 6-31G*
  Basis Set:

    Orbital Energies (a.u.)
    -----------------------

    Doubly Occupied:

       1A    -20.551819     2A    -11.267065     3A    -11.215990
       4A    -11.214769     5A    -11.213335     6A    -11.210509
       7A    -11.208555     8A     -1.358639     9A     -1.085702
      10A     -1.033233    11A     -0.955187    12A     -0.871122
      13A     -0.805234    14A     -0.785135    15A     -0.692478
      16A     -0.661403    17A     -0.618854    18A     -0.610506
      19A     -0.586047    20A     -0.565631    21A     -0.538823
      22A     -0.520922    23A     -0.507557    24A     -0.487260
      25A     -0.479322    26A     -0.463102    27A     -0.455020
      28A     -0.441717    29A     -0.433982

  @DF-RHF Final Energy:  -310.21105387443134

   => Energetics <=

    Nuclear Repulsion Energy =            311.4345080736066507
    One-Electron Energy =               -1037.6132830134342839
    Two-Electron Energy =                 415.9677210653965176
    DFT Exchange-Correlation Energy =       0.0000000000000000
    Empirical Dispersion Energy =           0.0000000000000000
    PCM Polarization Energy =               0.0000000000000000
    EFP Energy =                            0.0000000000000000
    Total Energy =                       -310.2110538744311725
    Molecular point group: c1
  Basis Set: 6-31G*
  Basis Set:

  -Total Gradient:
     Atom            X                  Y                   Z
    ------   -----------------  -----------------  -----------------
       1        0.000001495459    -0.000000434724     0.000002041492
       2        0.000001714221    -0.000004099210     0.000002004126
       3        0.000003611611     0.000005530618    -0.000005004838
       4       -0.000000253684     0.000011139058    -0.000021850375
       5       -0.000000322511    -0.000003485001    -0.000000962552
       6       -0.000001132650     0.000002710140     0.000004442914
       7       -0.000020625248    -0.000000520612    -0.000007545046
       8       -0.000008360060    -0.000000091813    -0.000006551059
       9        0.000009688544     0.000003947582    -0.000000617691
      10        0.001620881167    -0.004624964828     0.000001495649
      11       -0.000021316342    -0.000018093210     0.000003221575
      12        0.000005001477    -0.000022580800     0.000000102227
      13       -0.001621230324     0.003493775081     0.001256998382
      14       -0.001020592132     0.003162496845    -0.000242076729
      15        0.000010300742    -0.000028746065     0.000004639872
      16        0.001017062085    -0.001957760881    -0.000975567074
      17       -0.000008495684    -0.000010524191    -0.000000879816
      18       -0.000001464751     0.000008405571    -0.000016031040
      19        0.000015256312    -0.000012880731    -0.000001203962
      20        0.000021558762    -0.000012859410     0.000009097170
      21       -0.000002776994     0.000009036582    -0.000005753224

  **** Optimization is complete! (in 6 steps) ****
    Final optimized geometry and variables:
    Molecular point group: c1

    Geometry (in Angstrom), charge = 0, multiplicity = 1:

    H           -4.244114976844     0.677770585682     0.034033591245
    O           -3.530323607664     0.110881126186    -0.221027350672
    C           -2.323378873608     0.609403257019     0.296067750442
    C           -1.203276150509    -0.322734283253    -0.130853170122
    H           -2.133539374647     1.615259913868    -0.076164904265
    H           -2.366889555796     0.666752037022     1.382850393239
    C            0.168510916341     0.123021894440     0.376704669890
    H           -1.201163442573    -0.380045918195    -1.215902541557
    H           -1.431210276293    -1.320710614967     0.233756613720
    C            1.296537095224    -0.828209528379    -0.037168637518
    H            0.384202585952     1.123942689260     0.006349129277
    H            0.148279403390     0.197701459514     1.462744274058
    C            2.690115525753    -0.346663739389     0.403070432777
    H            1.275795925064    -0.926425627366    -1.120464585313
    H            1.093767066959    -1.813152008947     0.374301624081
    C            3.390593117762     0.527194278231    -0.638877293951
    H            3.322048373550    -1.208110621578     0.603120882590
    H            2.611393024826     0.192137608362     1.344236039267
    H            3.558332635513    -0.027872069139    -1.557106430838
    H            2.801806434599     1.405725875604    -0.887890766375
    H            4.355335140422     0.870946543290    -0.278266043231

  Mulliken Charges: (a.u.)
   Center  Symbol    Alpha    Beta     Spin     Total
       1     H     0.28118  0.28118  0.00000  0.43763
       2     O     4.37178  4.37178  0.00000 -0.74356
       3     C     2.98973  2.98973  0.00000  0.02054
       4     C     3.15933  3.15933  0.00000 -0.31866
       5     H     0.43293  0.43293  0.00000  0.13415
       6     H     0.43283  0.43283  0.00000  0.13434
       7     C     3.16149  3.16149  0.00000 -0.32297
       8     H     0.41477  0.41477  0.00000  0.17045
       9     H     0.41492  0.41492  0.00000  0.17016
      10     C     3.15316  3.15316  0.00000 -0.30632
      11     H     0.42326  0.42326  0.00000  0.15348
      12     H     0.42351  0.42351  0.00000  0.15297
      13     C     3.15459  3.15459  0.00000 -0.30918
      14     H     0.42155  0.42155  0.00000  0.15690
      15     H     0.41972  0.41972  0.00000  0.16055
      16     C     3.24001  3.24001  0.00000 -0.48001
      17     H     0.42035  0.42035  0.00000  0.15931
      18     H     0.42208  0.42208  0.00000  0.15584
      19     H     0.42086  0.42086  0.00000  0.15827
      20     H     0.42214  0.42214  0.00000  0.15572
      21     H     0.41980  0.41980  0.00000  0.16040

   Total alpha = 29.00000, Total beta = 29.00000, Total charge =  0.00000
