                              Psi4 1.0.54 Driver

  ==> Input File <==

--------------------------------------------------------------------------
set {
	reference rhf
	basis cc-pvtz
}

set_num_threads( 4 )
memory 2 gb

molecule MOL {
0 1

H	 -3.092907	 2.033947	 -0.192999
C	 -3.172912	 1.064649	 -0.703826
C	 -2.138476	 0.822664	 -1.769321
O	 -4.032469	 0.309184	 -0.407615
C	 -0.709066	 1.057408	 -1.271973
H	 -2.267674	 -0.180968	 -2.153203
H	 -2.355087	 1.519583	 -2.575973
C	 -0.247837	 0.040196	 -0.230469
H	 -0.040077	 1.028231	 -2.125168
H	 -0.631112	 2.061309	 -0.861730
C	 1.181757	 0.280428	 0.247371
H	 -0.325376	 -0.958672	 -0.651607
H	 -0.919112	 0.058296	 0.624218
C	 2.151032	 -0.811012	 -0.202643
H	 1.515939	 1.247397	 -0.115449
H	 1.191514	 0.341223	 1.333422
C	 3.580021	 -0.656538	 0.320835
H	 2.170545	 -0.847575	 -1.289412
H	 1.766632	 -1.772905	 0.124928
C	 4.327657	 0.562694	 -0.213579
H	 4.138806	 -1.549270	 0.057813
H	 3.561991	 -0.620783	 1.406976
H	 4.355973	 0.557257	 -1.298551
H	 3.867136	 1.491650	 0.100501
H	 5.351524	 0.571613	 0.142204

	symmetry c1
}
set optking {
	frozen_dihedral = ("
		12 8 11 14
	")
}

ee,wfn = optimize('scf', return_wfn=True)
oeprop( wfn, 'DIPOLE', 'QUADRUPOLE', 'MULLIKEN_CHARGES')
f=open( 'psi4out.xyz', 'w' )
f.write( "25  " )
f.write( str(ee) + "\n" )
f.write( MOL.save_string_xyz() )
f.close()
--------------------------------------------------------------------------

    Molecular point group: c1
  Charge       = 0
  Multiplicity = 1
  Basis Set: CC-PVTZ
  Basis Set:
  @DF-RHF Final Energy:  -387.25489008909426
    Total Energy =                       -387.2548900890938057
    Molecular point group: c1
  Basis Set: CC-PVTZ
  Basis Set:
  Basis Set: CC-PVTZ
  Basis Set:
  @DF-RHF Final Energy:  -387.25513802866431
    Total Energy =                       -387.2551380286643052
  Basis Set: CC-PVTZ
  Basis Set:
  Basis Set: CC-PVTZ
  Basis Set:
  @DF-RHF Final Energy:  -387.25516376070203
    Total Energy =                       -387.2551637607022030
  Basis Set: CC-PVTZ
  Basis Set:
  Basis Set: CC-PVTZ
  Basis Set:
  @DF-RHF Final Energy:  -387.25521446402524
    Total Energy =                       -387.2552144640252436
  Basis Set: CC-PVTZ
  Basis Set:
  Basis Set: CC-PVTZ
  Basis Set:
  @DF-RHF Final Energy:  -387.25522254290911
    Total Energy =                       -387.2552225429092232
  Basis Set: CC-PVTZ
  Basis Set:
  Basis Set: CC-PVTZ
  Basis Set:
  @DF-RHF Final Energy:  -387.25522384133001
    Total Energy =                       -387.2552238413298937
  Basis Set: CC-PVTZ
  Basis Set:
  Charge       = 0
  Multiplicity = 1
  Basis Set: CC-PVTZ
  Basis Set:

    Orbital Energies (a.u.)
    -----------------------

    Doubly Occupied:

       1A    -20.551286     2A    -11.320947     3A    -11.233644
       4A    -11.233021     5A    -11.221570     6A    -11.217591
       7A    -11.216855     8A    -11.216246     9A    -11.209676
      10A     -1.406309    11A     -1.104276    12A     -1.070968
      13A     -1.013207    14A     -0.943408    15A     -0.877366
      16A     -0.822714    17A     -0.788560    18A     -0.782860
      19A     -0.669087    20A     -0.653372    21A     -0.636731
      22A     -0.625029    23A     -0.610144    24A     -0.599631
      25A     -0.568367    26A     -0.561111    27A     -0.528655
      28A     -0.524540    29A     -0.520764    30A     -0.502666
      31A     -0.486152    32A     -0.479622    33A     -0.460591
      34A     -0.457331    35A     -0.444132    36A     -0.411736

  @DF-RHF Final Energy:  -387.25522408319949

   => Energetics <=

    Nuclear Repulsion Energy =            441.0300743803954333
    One-Electron Energy =               -1398.6302666151032099
    Two-Electron Energy =                 570.3449681515082830
    DFT Exchange-Correlation Energy =       0.0000000000000000
    Empirical Dispersion Energy =           0.0000000000000000
    PCM Polarization Energy =               0.0000000000000000
    EFP Energy =                            0.0000000000000000
    Total Energy =                       -387.2552240831994368
    Molecular point group: c1
  Basis Set: CC-PVTZ
  Basis Set:

  -Total Gradient:
     Atom            X                  Y                   Z
    ------   -----------------  -----------------  -----------------
       1       -0.000001765536    -0.000004833832     0.000008291601
       2       -0.000008390988     0.000011372907    -0.000019193119
       3        0.000016641228    -0.000013662360     0.000007008500
       4        0.000005516454    -0.000001388669     0.000013454009
       5       -0.000001445672     0.000024852592    -0.000004008828
       6        0.000004492897    -0.000001204163    -0.000002503420
       7        0.000014343529     0.000006067623     0.000004775888
       8       -0.000633250427    -0.001027186642     0.002172457862
       9       -0.000006781543     0.000003091307    -0.000012787719
      10       -0.000005658470     0.000010424401    -0.000011147573
      11        0.000458386606     0.001042403368    -0.001639032542
      12        0.000393718696     0.000596818636    -0.001432883576
      13        0.000015383797    -0.000007273989    -0.000010561949
      14       -0.000222156988    -0.000653425613     0.000949443812
      15        0.000000796244     0.000005297668     0.000008333502
      16       -0.000004061016     0.000002955719    -0.000022109796
      17       -0.000009291669    -0.000004009517     0.000004999240
      18        0.000002327616    -0.000004719566    -0.000011807151
      19        0.000004887550    -0.000003564071    -0.000007894469
      20       -0.000006209790     0.000006495966    -0.000009543195
      21       -0.000014765705    -0.000000366629     0.000008374801
      22       -0.000000064332     0.000006458257     0.000005531793
      23       -0.000001378481     0.000000465271     0.000001072637
      24        0.000000407369     0.000006838519     0.000001450220
      25       -0.000001681374    -0.000001907183    -0.000001720527

  **** Optimization is complete! (in 7 steps) ****
    Final optimized geometry and variables:
    Molecular point group: c1

    Geometry (in Angstrom), charge = 0, multiplicity = 1:

    H           -3.224572781066     1.724222767224     0.288576065616
    C           -3.286725951284     0.766616945453    -0.246248173806
    C           -2.226700286431     0.555407669464    -1.293122921690
    O           -4.148021368685    -0.000518797665     0.012547481456
    C           -0.811357963650     0.790290942807    -0.758536420655
    H           -2.339353949992    -0.440641751913    -1.701301303460
    H           -2.430791913349     1.268027258925    -2.089311257528
    C           -0.367633463549    -0.241661024178     0.278949343963
    H           -0.121165956332     0.778190238153    -1.595570028192
    H           -0.748640499396     1.787665700788    -0.330545681793
    C            1.081712011952    -0.031029741349     0.760976673276
    H           -0.466037573348    -1.228348016265    -0.162753721910
    H           -1.047923748213    -0.220048900410     1.123486284254
    C            2.039068615022    -1.125225944404     0.287767380399
    H            1.433858964000     0.938734149330     0.427646038325
    H            1.105758500430    -0.000506802209     1.845726915865
    C            3.483046158281    -0.966317229596     0.765496802616
    H            2.025143300518    -1.172449461984    -0.799479438439
    H            1.662878275590    -2.082742719980     0.635992717729
    C            4.221326250860     0.235470475660     0.180602439865
    H            4.029716634102    -1.868118966998     0.507866220364
    H            3.496332106418    -0.904817509849     1.850545453189
    H            4.218865497432     0.203327687001    -0.904317902670
    H            3.775301972943     1.174700861013     0.484711112941
    H            5.254968376299     0.246881563253     0.506722587155

  Mulliken Charges: (a.u.)
   Center  Symbol    Alpha    Beta     Spin     Total
       1     H     0.46426  0.46426  0.00000  0.07148
       2     C     2.90450  2.90450  0.00000  0.19100
       3     C     3.08916  3.08916  0.00000 -0.17832
       4     O     4.16647  4.16647  0.00000 -0.33294
       5     C     3.11625  3.11625  0.00000 -0.23251
       6     H     0.44267  0.44267  0.00000  0.11466
       7     H     0.44068  0.44068  0.00000  0.11864
       8     C     3.10020  3.10020  0.00000 -0.20040
       9     H     0.44230  0.44230  0.00000  0.11540
      10     H     0.44898  0.44898  0.00000  0.10204
      11     C     3.10139  3.10139  0.00000 -0.20278
      12     H     0.44978  0.44978  0.00000  0.10044
      13     H     0.44000  0.44000  0.00000  0.11999
      14     C     3.09331  3.09331  0.00000 -0.18661
      15     H     0.45211  0.45211  0.00000  0.09577
      16     H     0.44641  0.44641  0.00000  0.10718
      17     C     3.09108  3.09108  0.00000 -0.18215
      18     H     0.45416  0.45416  0.00000  0.09167
      19     H     0.44672  0.44672  0.00000  0.10656
      20     C     3.15292  3.15292  0.00000 -0.30585
      21     H     0.44779  0.44779  0.00000  0.10442
      22     H     0.45416  0.45416  0.00000  0.09168
      23     H     0.45486  0.45486  0.00000  0.09028
      24     H     0.45426  0.45426  0.00000  0.09148
      25     H     0.44557  0.44557  0.00000  0.10885

   Total alpha = 36.00000, Total beta = 36.00000, Total charge =  0.00000

*** Psi4 exiting successfully. Buy a developer a beer!
