                              Psi4 1.0.54 Driver

  ==> Input File <==

--------------------------------------------------------------------------
set {
	reference rhf
	basis cc-pvtz
}

set_num_threads( 4 )
memory 2 gb

molecule MOL {
0 1

H	 2.614283	 2.028610	 0.296620
O	 3.358864	 1.662087	 -0.142800
C	 3.565468	 0.338079	 0.273842
C	 4.885363	 -0.248989	 -0.203561
H	 3.550556	 0.362942	 1.355110
H	 2.738616	 -0.293546	 -0.045243
C	 4.986799	 -0.414692	 -1.718191
H	 5.693213	 0.384665	 0.150018
H	 5.012069	 -1.217869	 0.273528
C	 6.311498	 -1.036907	 -2.157347
H	 4.866995	 0.553093	 -2.193629
H	 4.166296	 -1.038982	 -2.067939
C	 6.437878	 -1.294454	 -3.659996
H	 7.130273	 -0.399502	 -1.832463
H	 6.438887	 -1.981269	 -1.635407
C	 6.491747	 -0.039118	 -4.528887
H	 7.341710	 -1.872431	 -3.831918
H	 5.612227	 -1.922718	 -3.986707
C	 6.717706	 -0.345207	 -6.007286
H	 7.289377	 0.608985	 -4.172211
H	 5.570807	 0.526727	 -4.425486
C	 6.768268	 0.905733	 -6.878196
H	 7.644715	 -0.900450	 -6.121029
H	 5.926268	 -0.999511	 -6.363061
H	 7.571004	 1.566453	 -6.567869
H	 6.932291	 0.653319	 -7.919585
H	 5.840060	 1.464223	 -6.815988

	symmetry c1
}
set optking {
	frozen_dihedral = ("
		4 3 2 1
	")
}

ee,wfn = optimize('scf', return_wfn=True)
oeprop( wfn, 'DIPOLE', 'QUADRUPOLE', 'MULLIKEN_CHARGES')
f=open( 'psi4out.xyz', 'w' )
f.write( "27  " )
f.write( str(ee) + "\n" )
f.write( MOL.save_string_xyz() )
f.close()
--------------------------------------------------------------------------

    Molecular point group: c1
  Charge       = 0
  Multiplicity = 1
  Basis Set: CC-PVTZ
  Basis Set:
  @DF-RHF Final Energy:  -388.42663204976378
    Total Energy =                       -388.4266320497636116
    Molecular point group: c1
  Basis Set: CC-PVTZ
  Basis Set:
  Basis Set: CC-PVTZ
  Basis Set:
  @DF-RHF Final Energy:  -388.34133921034424
    Total Energy =                       -388.3413392103439037
  Basis Set: CC-PVTZ
  Basis Set:
  Basis Set: CC-PVTZ
  Basis Set:
  @DF-RHF Final Energy:  -388.41728203618095
    Total Energy =                       -388.4172820361811773
  Basis Set: CC-PVTZ
  Basis Set:
  Basis Set: CC-PVTZ
  Basis Set:
  @DF-RHF Final Energy:  -388.42819494938078
    Total Energy =                       -388.4281949493803268
  Basis Set: CC-PVTZ
  Basis Set:
  @DF-RHF Final Energy:  -388.42839255000638
    Total Energy =                       -388.4283925500064925
  Basis Set: CC-PVTZ
  Basis Set:
  @DF-RHF Final Energy:  -388.42843427607096
    Total Energy =                       -388.4284342760704476
  Basis Set: CC-PVTZ
  Basis Set:
  Basis Set: CC-PVTZ
  Basis Set:
  @DF-RHF Final Energy:  -388.42843233475628
    Total Energy =                       -388.4284323347565078
  Basis Set: CC-PVTZ
  Basis Set:
  Basis Set: CC-PVTZ
  Basis Set:
  @DF-RHF Final Energy:  -388.42843640338026
    Total Energy =                       -388.4284364033807151
  Basis Set: CC-PVTZ
  Basis Set:
  Charge       = 0
  Multiplicity = 1
  Basis Set: CC-PVTZ
  Basis Set:

    Orbital Energies (a.u.)
    -----------------------

    Doubly Occupied:

       1A    -20.546217     2A    -11.265801     3A    -11.210091
       4A    -11.208350     5A    -11.206895     6A    -11.206272
       7A    -11.204718     8A    -11.203850     9A    -11.202365
      10A     -1.363994    11A     -1.089079    12A     -1.057321
      13A     -1.008775    14A     -0.943693    15A     -0.879928
      16A     -0.811207    17A     -0.794528    18A     -0.771215
      19A     -0.707618    20A     -0.645412    21A     -0.639254
      22A     -0.616155    23A     -0.588535    24A     -0.580213
      25A     -0.571305    26A     -0.547333    27A     -0.537699
      28A     -0.517561    29A     -0.506105    30A     -0.494600
      31A     -0.476566    32A     -0.471900    33A     -0.459963
      34A     -0.453238    35A     -0.441930    36A     -0.437821
      37A     -0.428064

  @DF-RHF Final Energy:  -388.42843685265137

   => Energetics <=

    Nuclear Repulsion Energy =            460.6260737953817284
    One-Electron Energy =               -1439.9178693258118074
    Two-Electron Energy =                 590.8633586777790470
    DFT Exchange-Correlation Energy =       0.0000000000000000
    Empirical Dispersion Energy =           0.0000000000000000
    PCM Polarization Energy =               0.0000000000000000
    EFP Energy =                            0.0000000000000000
    Total Energy =                       -388.4284368526510889
    Molecular point group: c1
  Basis Set: CC-PVTZ
  Basis Set:

  -Total Gradient:
     Atom            X                  Y                   Z
    ------   -----------------  -----------------  -----------------
       1        0.000453102572     0.000373262487     0.000588875822
       2       -0.000486765406    -0.000356378397    -0.000577805643
       3       -0.000200782587    -0.000189801075    -0.000460721173
       4        0.000211141388     0.000195626704     0.000430653467
       5        0.000012217925    -0.000006572203    -0.000013276228
       6        0.000008707435    -0.000019633561     0.000017840897
       7       -0.000006794961    -0.000008408331     0.000013702455
       8        0.000006367998     0.000000565269    -0.000005691989
       9       -0.000001687384     0.000001883616    -0.000008890137
      10        0.000006691235     0.000011015562     0.000002382204
      11        0.000002284345    -0.000006887214     0.000008854668
      12       -0.000003964048    -0.000001707977     0.000008763823
      13       -0.000005527375     0.000004740919     0.000000384215
      14        0.000003065078     0.000001995223    -0.000001863560
      15       -0.000001720194     0.000002117470    -0.000005236185
      16        0.000004357349     0.000000046701    -0.000004685834
      17       -0.000003511548     0.000000215538     0.000002730736
      18       -0.000004157230     0.000000644659     0.000003266674
      19        0.000000084765     0.000003211280    -0.000000625942
      20        0.000000809569     0.000002148456     0.000001098167
      21        0.000008516537    -0.000004639549    -0.000009978873
      22        0.000002174672    -0.000001444193     0.000002932189
      23       -0.000003084615     0.000001577875     0.000003218176
      24       -0.000001035993     0.000000829010     0.000001560541
      25       -0.000000849103    -0.000004409560    -0.000002653924
      26        0.000002211302     0.000000631498     0.000005239364
      27       -0.000001851731    -0.000000630204    -0.000000073912

  **** Optimization is complete! (in 9 steps) ****
    Final optimized geometry and variables:
    Molecular point group: c1

    Geometry (in Angstrom), charge = 0, multiplicity = 1:

    H           -2.861629207369     0.573595995439     3.436588444747
    O           -2.087480589936     0.488236942584     2.912158324773
    C           -1.444859126754    -0.728812827424     3.192671831330
    C           -0.081923474001    -0.737231388531     2.527837386383
    H           -1.323044066447    -0.852290824882     4.265647728581
    H           -2.041635991926    -1.563930283148     2.830970385057
    C           -0.140071865178    -0.677316534620     1.003593251978
    H            0.488825824746     0.104782345391     2.907490426874
    H            0.439088068890    -1.638762223401     2.839881142829
    C            1.246628114431    -0.666063002634     0.363099427312
    H           -0.698294620926     0.201971885787     0.710360027732
    H           -0.697134896738    -1.536335539546     0.634557321289
    C            1.248932828927    -0.693805879056    -1.166487160051
    H            1.792339403828     0.210196797568     0.705468084941
    H            1.803993491341    -1.527446588945     0.722229471450
    C            0.684520375234     0.558556176799    -1.834595750041
    H            2.271726759193    -0.835396724971    -1.505352362946
    H            0.694663709636    -1.564608694837    -1.509513960309
    C            0.788596244502     0.522144685496    -3.357057280134
    H            1.214335255030     1.432271272759    -1.461211541116
    H           -0.356090047294     0.692412714743    -1.556709733655
    C            0.223773077336     1.770287707927    -4.027129047986
    H            1.829729874054     0.400117824801    -3.643430718696
    H            0.266103172904    -0.354255022721    -3.731238502693
    H            0.747844351900     2.661758226642    -3.698653211038
    H            0.314015163775     1.712821586869    -5.105963563975
    H           -0.826845408894     1.900545255035    -3.789662535375

  Mulliken Charges: (a.u.)
   Center  Symbol    Alpha    Beta     Spin     Total
       1     H     0.39575  0.39575  0.00000  0.20849
       2     O     4.19782  4.19782  0.00000 -0.39563
       3     C     2.97366  2.97366  0.00000  0.05268
       4     C     3.09115  3.09115  0.00000 -0.18230
       5     H     0.46568  0.46568  0.00000  0.06863
       6     H     0.47366  0.47366  0.00000  0.05268
       7     C     3.09276  3.09276  0.00000 -0.18551
       8     H     0.45288  0.45288  0.00000  0.09423
       9     H     0.45395  0.45395  0.00000  0.09210
      10     C     3.09887  3.09887  0.00000 -0.19774
      11     H     0.44122  0.44122  0.00000  0.11756
      12     H     0.45862  0.45862  0.00000  0.08275
      13     C     3.09759  3.09759  0.00000 -0.19518
      14     H     0.45343  0.45343  0.00000  0.09314
      15     H     0.45033  0.45033  0.00000  0.09933
      16     C     3.08779  3.08779  0.00000 -0.17558
      17     H     0.44946  0.44946  0.00000  0.10109
      18     H     0.45471  0.45471  0.00000  0.09058
      19     C     3.08379  3.08379  0.00000 -0.16757
      20     H     0.45530  0.45530  0.00000  0.08940
      21     H     0.45199  0.45199  0.00000  0.09602
      22     C     3.14970  3.14970  0.00000 -0.29940
      23     H     0.45482  0.45482  0.00000  0.09035
      24     H     0.45527  0.45527  0.00000  0.08946
      25     H     0.45537  0.45537  0.00000  0.08927
      26     H     0.44925  0.44925  0.00000  0.10149
      27     H     0.45519  0.45519  0.00000  0.08963

   Total alpha = 37.00000, Total beta = 37.00000, Total charge =  0.00000

*** Psi4 exiting successfully. Buy a developer a beer!
