  ==> Input File <==

--------------------------------------------------------------------------
set {
	reference rhf
	basis 6-31G*
}

set_num_threads( 4 )
memory 2 gb

molecule MOL {
0 1

O	 -2.439739	 -0.935931	 -0.423848
C	 -1.921153	 0.064240	 -0.045697
C	 -2.624470	 1.379923	 0.150949
O	 -0.632575	 0.154573	 0.251549
H	 -2.168117	 2.136577	 -0.476876
H	 -3.669540	 1.273223	 -0.098610
H	 -2.519365	 1.700893	 1.180846
C	 0.160891	 -1.019931	 0.106212
C	 1.589627	 -0.672828	 0.480843
H	 0.089836	 -1.367806	 -0.916050
H	 -0.238459	 -1.792301	 0.749618
C	 1.705169	 0.434843	 1.529706
H	 2.101371	 -0.368191	 -0.429787
H	 2.088179	 -1.571597	 0.834281
C	 3.156571	 0.777148	 1.863263
H	 1.197561	 1.326330	 1.166820
H	 1.186746	 0.129570	 2.432704
H	 3.211728	 1.563660	 2.609178
H	 3.693324	 1.118432	 0.982526
H	 3.682970	 -0.088162	 2.255973

	symmetry c1
}
set optking {
	frozen_dihedral = ("
		12 9 8 10
	")
}

ee = optimize('scf')
oeprop('DIPOLE', 'QUADRUPOLE', 'MULLIKEN_CHARGES')
f=open( 'psi4out.xyz', 'w' )
f.write( "20  " )
f.write( str(ee) + "\n" )
f.write( MOL.save_string_xyz() )
f.close()
--------------------------------------------------------------------------

    Molecular point group: c1
  Charge       = 0
  Multiplicity = 1
  Basis Set: 6-31G*
  Basis Set:
  @DF-RHF Final Energy:  -383.94008815494323
    Total Energy =                       -383.9400881549432825
    Molecular point group: c1
  Basis Set: 6-31G*
  Basis Set:
  Basis Set: 6-31G*
  Basis Set:
  @DF-RHF Final Energy:  -383.94046410279441
    Total Energy =                       -383.9404641027942944
  Basis Set: 6-31G*
  Basis Set:
  Basis Set: 6-31G*
  Basis Set:
  @DF-RHF Final Energy:  -383.94100138458532
    Total Energy =                       -383.9410013845849790
  Basis Set: 6-31G*
  Basis Set:
  Basis Set: 6-31G*
  Basis Set:
  @DF-RHF Final Energy:  -383.94101090555074
    Total Energy =                       -383.9410109055509110
  Basis Set: 6-31G*
  Basis Set:
  Basis Set: 6-31G*
  Basis Set:
  @DF-RHF Final Energy:  -383.94115111975844
    Total Energy =                       -383.9411511197582740
  Basis Set: 6-31G*
  Basis Set:
  Basis Set: 6-31G*
  Basis Set:
  @DF-RHF Final Energy:  -383.94115745258472
    Total Energy =                       -383.9411574525847755
  Basis Set: 6-31G*
  Basis Set:
  Charge       = 0
  Multiplicity = 1
  Basis Set: 6-31G*
  Basis Set:

    Orbital Energies (a.u.)
    -----------------------

    Doubly Occupied:

       1A    -20.600882     2A    -20.543766     3A    -11.374215
       4A    -11.283239     5A    -11.233271     6A    -11.226224
       7A    -11.219357     8A    -11.212511     9A     -1.467444
      10A     -1.361638    11A     -1.083342    12A     -1.027618
      13A     -0.980207    14A     -0.880588    15A     -0.816174
      16A     -0.763999    17A     -0.689731    18A     -0.688405
      19A     -0.666203    20A     -0.633318    21A     -0.596673
      22A     -0.592660    23A     -0.573109    24A     -0.547752
      25A     -0.544998    26A     -0.532427    27A     -0.509423
      28A     -0.483715    29A     -0.474385    30A     -0.468906
      31A     -0.447428    32A     -0.438470

  @DF-RHF Final Energy:  -383.94115747915833

   => Energetics <=

    Nuclear Repulsion Energy =            386.5345358735584682
    One-Electron Energy =               -1289.0272268064054515
    Two-Electron Energy =                 518.5515334536888759
    DFT Exchange-Correlation Energy =       0.0000000000000000
    Empirical Dispersion Energy =           0.0000000000000000
    PCM Polarization Energy =               0.0000000000000000
    EFP Energy =                            0.0000000000000000
    Total Energy =                       -383.9411574791580506
    Molecular point group: c1
  Basis Set: 6-31G*
  Basis Set:

  -Total Gradient:
     Atom            X                  Y                   Z
    ------   -----------------  -----------------  -----------------
       1        0.000023370193     0.000010823321     0.000015014435
       2       -0.000054536263     0.000001115600     0.000001633928
       3       -0.000008464610     0.000000893654    -0.000003589771
       4        0.000006430139    -0.000099587820     0.000057774359
       5       -0.000002379705     0.000003803230    -0.000002941268
       6       -0.000001391400     0.000005942802    -0.000002353576
       7        0.000002210056    -0.000002440097    -0.000003629379
       8        0.001469512960    -0.005948303545     0.000767818872
       9       -0.000273928531    -0.003198937505     0.004427270869
      10       -0.001122411791     0.005948128717    -0.001871909569
      11       -0.000015469920     0.000019957423     0.000001221854
      12       -0.000020365539     0.003209014462    -0.003349789020
      13       -0.000080780670    -0.000010766411    -0.000051177598
      14        0.000053945467     0.000023726847     0.000023779456
      15        0.000000350377     0.000021266411     0.000031714393
      16        0.000031092372     0.000021233582    -0.000029507567
      17       -0.000008465763    -0.000002816228    -0.000014743339
      18        0.000011960505    -0.000010526312     0.000014327468
      19       -0.000000888358     0.000011852986     0.000004339875
      20       -0.000009789515    -0.000004381116    -0.000015254419

  **** Optimization is complete! (in 7 steps) ****
    Final optimized geometry and variables:
    Molecular point group: c1

    Geometry (in Angstrom), charge = 0, multiplicity = 1:

    O           -2.313159910780    -1.005662930665    -0.877112563689
    C           -1.815005866030     0.018100426354    -0.535598992845
    C           -2.550285038159     1.320510775968    -0.367513199179
    O           -0.527281673274     0.149442584382    -0.253712005351
    H           -2.120406173900     2.070641630152    -1.021294607227
    H           -3.594770341601     1.179986913379    -0.602434918599
    H           -2.442850899014     1.672768549743     0.651899612450
    C            0.293544038063    -1.012964937865    -0.372798780251
    C            1.734735489027    -0.640149478467    -0.024042270052
    H            0.216507601635    -1.346339610518    -1.397879476380
    H           -0.099252115202    -1.778892817964     0.280705483618
    C            1.891260697142     0.454031297605     1.035473772757
    H            2.241189790413    -0.310284153350    -0.927809994446
    H            2.243146096705    -1.546263361751     0.295447728267
    C            3.355965182688     0.687061214942     1.404643984912
    H            1.456366513790     1.374535857018     0.666205671246
    H            1.331011512768     0.186324106781     1.928553068954
    H            3.451089000234     1.476294535608     2.143764243089
    H            3.938956104311     0.977946944621     0.535069188311
    H            3.807456589639    -0.209937523858     1.819036975157

  Mulliken Charges: (a.u.)
   Center  Symbol    Alpha    Beta     Spin     Total
       1     O     4.28388  4.28388  0.00000 -0.56776
       2     C     2.61887  2.61887  0.00000  0.76227
       3     C     3.28163  3.28163  0.00000 -0.56325
       4     O     4.31059  4.31059  0.00000 -0.62118
       5     H     0.40090  0.40090  0.00000  0.19821
       6     H     0.39693  0.39693  0.00000  0.20615
       7     H     0.40068  0.40068  0.00000  0.19863
       8     C     2.99902  2.99902  0.00000  0.00196
       9     C     3.17202  3.17202  0.00000 -0.34405
      10     H     0.40771  0.40771  0.00000  0.18459
      11     H     0.40929  0.40929  0.00000  0.18141
      12     C     3.14932  3.14932  0.00000 -0.29864
      13     H     0.41701  0.41701  0.00000  0.16597
      14     H     0.41675  0.41675  0.00000  0.16650
      15     C     3.24153  3.24153  0.00000 -0.48306
      16     H     0.41098  0.41098  0.00000  0.17803
      17     H     0.42186  0.42186  0.00000  0.15627
      18     H     0.41772  0.41772  0.00000  0.16457
      19     H     0.42148  0.42148  0.00000  0.15704
      20     H     0.42184  0.42184  0.00000  0.15633

   Total alpha = 32.00000, Total beta = 32.00000, Total charge =  0.00000
