  ==> Input File <==

--------------------------------------------------------------------------
set {
	reference rhf
	basis 6-31G*
}

set_num_threads( 1 )
memory 2 gb

molecule MOL {
0 1

O	 -1.995050	 1.857034	 -0.948247
C	 -1.943270	 0.747973	 -0.510369
C	 -0.816500	 -0.191821	 -0.902141
C	 -2.969747	 0.234579	 0.474591
C	 0.464791	 0.131264	 -0.116614
H	 -0.633137	 -0.061119	 -1.963083
H	 -1.104786	 -1.225485	 -0.733448
C	 1.631333	 -0.777471	 -0.511575
H	 0.715145	 1.171571	 -0.291165
H	 0.275947	 0.028177	 0.950840
C	 2.915987	 -0.544314	 0.291766
H	 1.842303	 -0.648794	 -1.571603
H	 1.326703	 -1.814294	 -0.384896
C	 3.373361	 0.914346	 0.347591
H	 3.708709	 -1.142521	 -0.150311
H	 2.780642	 -0.921148	 1.303579
H	 3.506512	 1.320010	 -0.651625
H	 4.322697	 0.999599	 0.867103
H	 2.660624	 1.545032	 0.868198
H	 -3.548476	 -0.563225	 0.016501
H	 -3.633234	 1.035677	 0.769230
H	 -2.485007	 -0.184628	 1.351573

	symmetry c1
}
set optking {
	frozen_dihedral = ("
		6 3 2 1,
		6 3 5 8,
		3 5 8 12
	")
}

ee = energy('scf')
oeprop('DIPOLE', 'QUADRUPOLE', 'MULLIKEN_CHARGES')
f=open( 'psi4out.xyz', 'w' )
f.write( "22  " )
f.write( str(ee) + "\n" )
f.write( MOL.save_string_xyz() )
f.close()
--------------------------------------------------------------------------

    Molecular point group: c1

    Geometry (in Angstrom), charge = 0, multiplicity = 1:

       Center              X                  Y                   Z               Mass
    ------------   -----------------  -----------------  -----------------  -----------------
           O         -2.080687503039     1.546677908707    -0.721224610580    15.994914619560
           C         -2.028907503039     0.437616908707    -0.283346610580    12.000000000000
           C         -0.902137503039    -0.502177091293    -0.675118610580    12.000000000000
           C         -3.055384503039    -0.075777091293     0.701613389420    12.000000000000
           C          0.379153496961    -0.179092091293     0.110408389420    12.000000000000
           H         -0.718774503039    -0.371475091293    -1.736060610580     1.007825032070
           H         -1.190423503039    -1.535841091293    -0.506425610580     1.007825032070
           C          1.545695496961    -1.087827091293    -0.284552610580    12.000000000000
           H          0.629507496961     0.861214908707    -0.064142610580     1.007825032070
           H          0.190309496961    -0.282179091293     1.177862389420     1.007825032070
           C          2.830349496961    -0.854670091293     0.518788389420    12.000000000000
           H          1.756665496961    -0.959150091293    -1.344580610580     1.007825032070
           H          1.241065496961    -2.124650091293    -0.157873610580     1.007825032070
           C          3.287723496961     0.603989908707     0.574613389420    12.000000000000
           H          3.623071496961    -1.452877091293     0.076711389420     1.007825032070
           H          2.695004496961    -1.231504091293     1.530601389420     1.007825032070
           H          3.420874496961     1.009653908707    -0.424602610580     1.007825032070
           H          4.237059496961     0.689242908707     1.094125389420     1.007825032070
           H          2.574986496961     1.234675908707     1.095220389420     1.007825032070
           H         -3.634113503039    -0.873581091293     0.243523389420     1.007825032070
           H         -3.718871503039     0.725320908707     0.996252389420     1.007825032070
           H         -2.570644503039    -0.494984091293     1.578595389420     1.007825032070

  Charge       = 0
  Multiplicity = 1
  Basis Set: 6-31G*
  Basis Set:

    Orbital Energies (a.u.)
    -----------------------

    Doubly Occupied:

       1A    -20.547295     2A    -11.324427     3A    -11.229399
       4A    -11.228828     5A    -11.228180     6A    -11.222337
       7A    -11.220585     8A    -11.211008     9A     -1.393040
      10A     -1.095979    11A     -1.044034    12A     -0.999014
      13A     -0.937284    14A     -0.860475    15A     -0.783106
      16A     -0.733039    17A     -0.663463    18A     -0.643932
      19A     -0.627549    20A     -0.620039    21A     -0.595316
      22A     -0.584228    23A     -0.562648    24A     -0.538644
      25A     -0.535411    26A     -0.522618    27A     -0.496147
      28A     -0.488248    29A     -0.467337    30A     -0.465616
      31A     -0.460175    32A     -0.396199

  @DF-RHF Final Energy:  -348.09741484078501

   => Energetics <=

    Nuclear Repulsion Energy =            374.0872712523425321
    One-Electron Energy =               -1212.9183120544703343
    Two-Electron Energy =                 490.7336259613414313
    DFT Exchange-Correlation Energy =       0.0000000000000000
    Empirical Dispersion Energy =           0.0000000000000000
    PCM Polarization Energy =               0.0000000000000000
    EFP Energy =                            0.0000000000000000
    Total Energy =                       -348.0974148407863140

  Mulliken Charges: (a.u.)
   Center  Symbol    Alpha    Beta     Spin     Total
       1     O     4.26248  4.26248  0.00000 -0.52496
       2     C     2.73720  2.73720  0.00000  0.52561
       3     C     3.19926  3.19926  0.00000 -0.39852
       4     C     3.28952  3.28952  0.00000 -0.57905
       5     C     3.16560  3.16560  0.00000 -0.33120
       6     H     0.40126  0.40126  0.00000  0.19748
       7     H     0.41711  0.41711  0.00000  0.16578
       8     C     3.15226  3.15226  0.00000 -0.30452
       9     H     0.40256  0.40256  0.00000  0.19487
      10     H     0.42157  0.42157  0.00000  0.15687
      11     C     3.15256  3.15256  0.00000 -0.30512
      12     H     0.42051  0.42051  0.00000  0.15897
      13     H     0.42182  0.42182  0.00000  0.15636
      14     C     3.24387  3.24387  0.00000 -0.48774
      15     H     0.41939  0.41939  0.00000  0.16122
      16     H     0.42287  0.42287  0.00000  0.15427
      17     H     0.42038  0.42038  0.00000  0.15925
      18     H     0.41807  0.41807  0.00000  0.16386
      19     H     0.41798  0.41798  0.00000  0.16403
      20     H     0.40691  0.40691  0.00000  0.18617
      21     H     0.39710  0.39710  0.00000  0.20579
      22     H     0.40972  0.40972  0.00000  0.18056

   Total alpha = 32.00000, Total beta = 32.00000, Total charge = -0.00000
