  ==> Input File <==

--------------------------------------------------------------------------
set {
	reference rhf
	basis 6-31G*
}

set_num_threads( 4 )
memory 2 gb

molecule MOL {
0 1

H	 -3.531075	 0.153676	 -0.694648
O	 -3.109513	 -0.239161	 0.057402
C	 -1.776244	 -0.071954	 0.007364
C	 -1.152044	 0.600258	 -1.039300
C	 -1.026943	 -0.600189	 1.051194
H	 -1.740172	 1.006652	 -1.844446
C	 0.219759	 0.741584	 -1.037870
H	 -1.531461	 -1.114396	 1.847011
C	 0.344161	 -0.450697	 1.038431
H	 0.714528	 1.257851	 -1.838976
C	 0.984182	 0.218375	 0.000000
H	 0.925288	 -0.859860	 1.847096
C	 2.452467	 0.370529	 0.000000
O	 3.228994	 -0.533774	 0.000000
H	 2.809473	 1.405765	 0.000000

	symmetry c1
}
set optking {
	frozen_dihedral = ("
		7 11 13 14
	")
}

ee = optimize('scf')
oeprop('DIPOLE', 'QUADRUPOLE', 'MULLIKEN_CHARGES')
f=open( 'psi4out.xyz', 'w' )
f.write( "15  " )
f.write( str(ee) + "\n" )
f.write( MOL.save_string_xyz() )
f.close()
--------------------------------------------------------------------------

    Molecular point group: c1
  Charge       = 0
  Multiplicity = 1
  Basis Set: 6-31G*
  Basis Set:
  @DF-RHF Final Energy:  -418.27733047521298
    Total Energy =                       -418.2773304752122385
    Molecular point group: c1
  Basis Set: 6-31G*
  Basis Set:
  Basis Set: 6-31G*
  Basis Set:
  @DF-RHF Final Energy:  -418.27718494174962
    Total Energy =                       -418.2771849417496242
  Basis Set: 6-31G*
  Basis Set:
  Basis Set: 6-31G*
  Basis Set:
  @DF-RHF Final Energy:  -418.27806742401486
    Total Energy =                       -418.2780674240148073
  Basis Set: 6-31G*
  Basis Set:
  Basis Set: 6-31G*
  Basis Set:
  @DF-RHF Final Energy:  -418.27858983352502
    Total Energy =                       -418.2785898335249613
  Basis Set: 6-31G*
  Basis Set:
  Basis Set: 6-31G*
  Basis Set:
  @DF-RHF Final Energy:  -418.27859588719991
    Total Energy =                       -418.2785958872005949
  Basis Set: 6-31G*
  Basis Set:
  Basis Set: 6-31G*
  Basis Set:
  @DF-RHF Final Energy:  -418.27859740980887
    Total Energy =                       -418.2785974098081851
  Basis Set: 6-31G*
  Basis Set:
  Charge       = 0
  Multiplicity = 1
  Basis Set: 6-31G*
  Basis Set:

    Orbital Energies (a.u.)
    -----------------------

    Doubly Occupied:

       1A    -20.605655     2A    -20.566152     3A    -11.332514
       4A    -11.316695     5A    -11.259091     6A    -11.252887
       7A    -11.243773     8A    -11.242202     9A    -11.236413
      10A     -1.425853    11A     -1.405561    12A     -1.168669
      13A     -1.039638    14A     -1.035319    15A     -0.889788
      16A     -0.857829    17A     -0.802553    18A     -0.753547
      19A     -0.699798    20A     -0.682027    21A     -0.646064
      22A     -0.627873    23A     -0.606269    24A     -0.603098
      25A     -0.588598    26A     -0.559310    27A     -0.533588
      28A     -0.503920    29A     -0.488655    30A     -0.421146
      31A     -0.354591    32A     -0.324385

  @DF-RHF Final Energy:  -418.27859757442309

   => Energetics <=

    Nuclear Repulsion Energy =            400.9473031459871208
    One-Electron Energy =               -1364.3048775295992527
    Two-Electron Energy =                 545.0789768091891574
    DFT Exchange-Correlation Energy =       0.0000000000000000
    Empirical Dispersion Energy =           0.0000000000000000
    PCM Polarization Energy =               0.0000000000000000
    EFP Energy =                            0.0000000000000000
    Total Energy =                       -418.2785975744229745
    Molecular point group: c1
  Basis Set: 6-31G*
  Basis Set:

  -Total Gradient:
     Atom            X                  Y                   Z
    ------   -----------------  -----------------  -----------------
       1        0.000016894358    -0.000000621437     0.000004607014
       2       -0.000001056844    -0.000027856743    -0.000008752339
       3       -0.000006175236     0.000061092635     0.000046148926
       4        0.000034232667     0.000022325719    -0.000013883393
       5       -0.000011902390    -0.000049965849    -0.000045217968
       6       -0.000001401486    -0.000001880601    -0.000000234801
       7        0.000195147896    -0.006412933308    -0.003244138902
       8        0.000006582032     0.000000156369     0.000005914322
       9       -0.000010144789     0.000078957626     0.000046274040
      10       -0.000003266816     0.000037749521    -0.000000117964
      11       -0.000460356200     0.008992982306     0.000849869896
      12       -0.000002639134     0.000000951720     0.000006067160
      13        0.000468224541    -0.002172625415     0.011041528620
      14       -0.000247913114    -0.000521869462    -0.008680131922
      15        0.000023774519    -0.000006463079    -0.000007932688

  **** Optimization is complete! (in 7 steps) ****
    Final optimized geometry and variables:
    Molecular point group: c1

    Geometry (in Angstrom), charge = 0, multiplicity = 1:

    H           -3.523672109924     0.112574452402    -0.740608310530
    O           -3.105755025784    -0.266297349488     0.020246051551
    C           -1.772516570094    -0.071110810675    -0.014152755625
    C           -1.146158653591     0.612633951315    -1.043998314898
    C           -1.024024067140    -0.592163375350     1.035816361641
    H           -1.722537350905     1.001298075419    -1.866104941023
    C            0.227313482194     0.790364758611    -1.011791664066
    H           -1.528021327806    -1.128492734202     1.817638939311
    C            0.343929383122    -0.429383504154     1.042560865504
    H            0.704453373009     1.326453587691    -1.814287281298
    C            0.982816794358     0.291425095467     0.036120672041
    H            0.927580053013    -0.859752085113     1.835882919173
    C            2.471216535726     0.371546581924    -0.016463158257
    O            3.185534443590    -0.578721286215     0.017721027160
    H            2.892811051514     1.369910126824    -0.169573123675

  Mulliken Charges: (a.u.)
   Center  Symbol    Alpha    Beta     Spin     Total
       1     H     0.26977  0.26977  0.00000  0.46047
       2     O     4.37480  4.37480  0.00000 -0.74960
       3     C     2.78960  2.78960  0.00000  0.42080
       4     C     3.14438  3.14438  0.00000 -0.28875
       5     C     3.12411  3.12411  0.00000 -0.24821
       6     H     0.39966  0.39966  0.00000  0.20068
       7     C     3.09442  3.09442  0.00000 -0.18883
       8     H     0.38641  0.38641  0.00000  0.22719
       9     C     3.08497  3.08497  0.00000 -0.16995
      10     H     0.39173  0.39173  0.00000  0.21655
      11     C     3.04878  3.04878  0.00000 -0.09755
      12     H     0.38471  0.38471  0.00000  0.23059
      13     C     2.85165  2.85165  0.00000  0.29670
      14     O     4.22922  4.22922  0.00000 -0.45843
      15     H     0.42582  0.42582  0.00000  0.14836

   Total alpha = 32.00000, Total beta = 32.00000, Total charge = -0.00000
