                              Psi4 1.0.54 Driver

  ==> Input File <==

--------------------------------------------------------------------------
set {
	reference rhf
	basis cc-pvtz
}

set_num_threads( 4 )
memory 2 gb

molecule MOL {
0 1

H	 1.348907	 -1.369194	 -0.148028
C	 0.776951	 -0.440197	 -0.183821
N	 -0.537714	 -0.645117	 0.000000
O	 1.301604	 0.612276	 -0.367551
C	 -1.522613	 0.412524	 0.000000
H	 -0.837246	 -1.577813	 0.142623
H	 -2.150256	 0.356137	 -0.880771
H	 -1.005621	 1.357208	 0.000000
H	 -2.150256	 0.356137	 0.880771

	symmetry c1
}
set optking {
	frozen_dihedral = ("
		6 3 5 7
	")
}

ee,wfn = optimize('scf', return_wfn=True)
oeprop( wfn, 'DIPOLE', 'QUADRUPOLE', 'MULLIKEN_CHARGES')
f=open( 'psi4out.xyz', 'w' )
f.write( "9  " )
f.write( str(ee) + "\n" )
f.write( MOL.save_string_xyz() )
f.close()
--------------------------------------------------------------------------

    Molecular point group: c1
  Charge       = 0
  Multiplicity = 1
  Basis Set: CC-PVTZ
  Basis Set:
  @DF-RHF Final Energy:  -208.04354860479953
    Total Energy =                       -208.0435486047994402
    Molecular point group: c1
  Basis Set: CC-PVTZ
  Basis Set:
  Basis Set: CC-PVTZ
  Basis Set:
  @DF-RHF Final Energy:  -208.04356731567339
    Total Energy =                       -208.0435673156734424
  Basis Set: CC-PVTZ
  Basis Set:
  Basis Set: CC-PVTZ
  Basis Set:
  @DF-RHF Final Energy:  -208.04356921731681
    Total Energy =                       -208.0435692173168718
  Basis Set: CC-PVTZ
  Basis Set:
  Basis Set: CC-PVTZ
  Basis Set:
  @DF-RHF Final Energy:  -208.04358101781841
    Total Energy =                       -208.0435810178184965
  Basis Set: CC-PVTZ
  Basis Set:
  Basis Set: CC-PVTZ
  Basis Set:
  @DF-RHF Final Energy:  -208.04358568571513
    Total Energy =                       -208.0435856857151862
  Basis Set: CC-PVTZ
  Basis Set:
  Basis Set: CC-PVTZ
  Basis Set:
  @DF-RHF Final Energy:  -208.04358945357029
    Total Energy =                       -208.0435894535704051
  Basis Set: CC-PVTZ
  Basis Set:
  Charge       = 0
  Multiplicity = 1
  Basis Set: CC-PVTZ
  Basis Set:

    Orbital Energies (a.u.)
    -----------------------

    Doubly Occupied:

       1A    -20.516132     2A    -15.585053     3A    -11.337519
       4A    -11.259265     5A     -1.393661     6A     -1.239883
       7A     -0.970398     8A     -0.808263     9A     -0.748813
      10A     -0.646367    11A     -0.629329    12A     -0.596851
      13A     -0.555368    14A     -0.542108    15A     -0.428257
      16A     -0.395963

  @DF-RHF Final Energy:  -208.04358964478010

   => Energetics <=

    Nuclear Repulsion Energy =            122.7142891032033560
    One-Electron Energy =                -526.2093010987897514
    Two-Electron Energy =                 195.4514223508063253
    DFT Exchange-Correlation Energy =       0.0000000000000000
    Empirical Dispersion Energy =           0.0000000000000000
    PCM Polarization Energy =               0.0000000000000000
    EFP Energy =                            0.0000000000000000
    Total Energy =                       -208.0435896447800985
    Molecular point group: c1
  Basis Set: CC-PVTZ
  Basis Set:

  -Total Gradient:
     Atom            X                  Y                   Z
    ------   -----------------  -----------------  -----------------
       1        0.000003964255     0.000002355352     0.000006357704
       2        0.000003225385    -0.000023110165    -0.000012087233
       3       -0.000017998766     0.000009787077     0.000212521263
       4       -0.000012450895     0.000004007677     0.000004730137
       5        0.000122122103     0.000094002833    -0.000095802352
       6       -0.000004587183    -0.000013380532    -0.000155245803
       7       -0.000085205887    -0.000080673794     0.000056156675
       8       -0.000003986589     0.000005558126    -0.000008187316
       9       -0.000005082421     0.000001453427    -0.000008443075

  **** Optimization is complete! (in 7 steps) ****
    Final optimized geometry and variables:
    Molecular point group: c1

    Geometry (in Angstrom), charge = 0, multiplicity = 1:

    H            1.359565330048    -1.360799527843    -0.021745098342
    C            0.784601248120    -0.433462549204    -0.057385877155
    N           -0.522197053126    -0.633959305641     0.181387257339
    O            1.299300394811     0.616771739083    -0.277603768552
    C           -1.509253664961     0.421404343672     0.154406935204
    H           -0.825115074442    -1.569350918203     0.297444416139
    H           -2.105171547004     0.386315859708    -0.750202566246
    H           -0.998690306664     1.369009857205     0.195555398031
    H           -2.167527598889     0.338237285621     1.009249904847

  Mulliken Charges: (a.u.)
   Center  Symbol    Alpha    Beta     Spin     Total
       1     H     0.46293  0.46293  0.00000  0.07415
       2     C     2.88099  2.88099  0.00000  0.23801
       3     N     3.60786  3.60786  0.00000 -0.21571
       4     O     4.21489  4.21489  0.00000 -0.42978
       5     C     3.08072  3.08072  0.00000 -0.16143
       6     H     0.40971  0.40971  0.00000  0.18058
       7     H     0.45533  0.45533  0.00000  0.08935
       8     H     0.43351  0.43351  0.00000  0.13297
       9     H     0.45406  0.45406  0.00000  0.09187

   Total alpha = 16.00000, Total beta = 16.00000, Total charge = -0.00000

*** Psi4 exiting successfully. Buy a developer a beer!
