  ==> Input File <==

--------------------------------------------------------------------------
set {
	reference rhf
	basis cc-pvtz
}

set_num_threads( 4 )
memory 2 gb

molecule MOL {
0 1

H	 -3.401682	 -1.036167	 0.000000
O	 -3.113760	 -0.140926	 0.000000
C	 -1.775087	 -0.058754	 0.000000
C	 -1.050970	 0.190495	 -1.159295
C	 -1.123158	 -0.232414	 1.209551
H	 -1.563876	 0.324118	 -2.093907
C	 0.320533	 0.264754	 -1.103099
H	 -1.700403	 -0.423690	 2.091719
C	 0.250704	 -0.155015	 1.248793
H	 0.890652	 0.456500	 -1.990402
C	 0.988522	 0.092977	 0.101374
H	 0.757516	 -0.289583	 2.186637
C	 2.459665	 0.171518	 0.167955
O	 3.172150	 0.378661	 -0.757038
H	 2.881778	 0.020865	 1.167418

	symmetry c1
}
set optking {
	frozen_dihedral = ("
		5 3 2 1
	")
}

ee = optimize('scf')
oeprop('DIPOLE', 'QUADRUPOLE', 'MULLIKEN_CHARGES')
f=open( 'psi4out.xyz', 'w' )
f.write( "15  " )
f.write( str(ee) + "\n" )
f.write( MOL.save_string_xyz() )
f.close()
--------------------------------------------------------------------------

    Molecular point group: c1
  Charge       = 0
  Multiplicity = 1
  Basis Set: CC-PVTZ
  Basis Set:
  @DF-RHF Final Energy:  -418.43572239382308
    Total Energy =                       -418.4357223938226298
    Molecular point group: c1
  Basis Set: CC-PVTZ
  Basis Set:
  Basis Set: CC-PVTZ
  Basis Set:
  @DF-RHF Final Energy:  -418.43684411920992
    Total Energy =                       -418.4368441192103774
  Basis Set: CC-PVTZ
  Basis Set:
  Basis Set: CC-PVTZ
  Basis Set:
  @DF-RHF Final Energy:  -418.43679755822569
    Total Energy =                       -418.4367975582256349
  Basis Set: CC-PVTZ
  Basis Set:
  Basis Set: CC-PVTZ
  Basis Set:
  @DF-RHF Final Energy:  -418.43666465828534
    Total Energy =                       -418.4366646582856220
  Basis Set: CC-PVTZ
  Basis Set:
  Basis Set: CC-PVTZ
  Basis Set:
  @DF-RHF Final Energy:  -418.43693596870344
    Total Energy =                       -418.4369359687033239
  Basis Set: CC-PVTZ
  Basis Set:
  Charge       = 0
  Multiplicity = 1
  Basis Set: CC-PVTZ
  Basis Set:

    Orbital Energies (a.u.)
    -----------------------

    Doubly Occupied:

       1A    -20.587950     2A    -20.550726     3A    -11.326366
       4A    -11.312605     5A    -11.258172     6A    -11.251492
       7A    -11.243319     8A    -11.241897     9A    -11.239879
      10A     -1.417086    11A     -1.406861    12A     -1.175695
      13A     -1.045366    14A     -1.040576    15A     -0.891477
      16A     -0.860527    17A     -0.801222    18A     -0.756177
      19A     -0.707989    20A     -0.680333    21A     -0.649257
      22A     -0.636591    23A     -0.622706    24A     -0.609895
      25A     -0.564977    26A     -0.558602    27A     -0.540993
      28A     -0.502694    29A     -0.487675    30A     -0.425231
      31A     -0.359811    32A     -0.345894

  @DF-RHF Final Energy:  -418.43693732086984

   => Energetics <=

    Nuclear Repulsion Energy =            401.6983364909761463
    One-Electron Energy =               -1366.0704599997452533
    Two-Electron Energy =                 545.9351861878989212
    DFT Exchange-Correlation Energy =       0.0000000000000000
    Empirical Dispersion Energy =           0.0000000000000000
    PCM Polarization Energy =               0.0000000000000000
    EFP Energy =                            0.0000000000000000
    Total Energy =                       -418.4369373208702427
    Molecular point group: c1
  Basis Set: CC-PVTZ
  Basis Set:

  -Total Gradient:
     Atom            X                  Y                   Z
    ------   -----------------  -----------------  -----------------
       1        0.000024129764    -0.000036223554    -0.001164315060
       2       -0.000112625476     0.000424943582     0.001510270678
       3        0.000099450968    -0.001135711971    -0.000733407829
       4       -0.000222126363    -0.000059731678     0.000104045095
       5        0.000166054211     0.000838032225     0.000245170241
       6        0.000000255835     0.000008202794    -0.000002500214
       7        0.000197485104    -0.000050367370     0.000132372616
       8        0.000004122406     0.000011282916    -0.000014413889
       9       -0.000145654243    -0.000106048408     0.000089276819
      10       -0.000019533808     0.000007765765    -0.000002978892
      11       -0.000005562652     0.000067746964    -0.000199018603
      12        0.000024430119     0.000017699648    -0.000001742939
      13        0.000019273464     0.000049395622     0.000050271703
      14       -0.000021791933    -0.000019820381    -0.000013142734
      15       -0.000007907394    -0.000017166154     0.000000113009

  **** Optimization is complete! (in 6 steps) ****
    Final optimized geometry and variables:
    Molecular point group: c1

    Geometry (in Angstrom), charge = 0, multiplicity = 1:

    H           -3.439104468673    -1.056705506331     0.009526426914
    O           -3.125266031309    -0.168969071346     0.000695439695
    C           -1.764998915596    -0.132652321473     0.054193019347
    C           -1.050649011539     0.126721956349    -1.105655221479
    C           -1.111940974526    -0.292872958298     1.260289295294
    H           -1.583950939073     0.263421778989    -2.025565452117
    C            0.320956747607     0.212479426892    -1.056406975742
    H           -1.682673624177    -0.470184839401     2.150645591556
    C            0.266165946300    -0.209366387946     1.299649808696
    H            0.888606734493     0.411911187769    -1.943481146371
    C            0.991055182040     0.041542471635     0.148540823637
    H            0.778153174520    -0.334468659554     2.235876790134
    C            2.466203212538     0.130506755012     0.213173364928
    O            3.173019541360     0.337269003730    -0.714542272473
    H            2.890461704427    -0.012843126834     1.212677012946

  Mulliken Charges: (a.u.)
   Center  Symbol    Alpha    Beta     Spin     Total
       1     H     0.38613  0.38613  0.00000  0.22775
       2     O     4.18601  4.18601  0.00000 -0.37201
       3     C     2.86580  2.86580  0.00000  0.26841
       4     C     3.10611  3.10611  0.00000 -0.21221
       5     C     3.11238  3.11238  0.00000 -0.22475
       6     H     0.41268  0.41268  0.00000  0.17464
       7     C     3.06986  3.06986  0.00000 -0.13972
       8     H     0.41544  0.41544  0.00000  0.16912
       9     C     3.07839  3.07839  0.00000 -0.15677
      10     H     0.40674  0.40674  0.00000  0.18651
      11     C     2.99531  2.99531  0.00000  0.00937
      12     H     0.42088  0.42088  0.00000  0.15823
      13     C     2.91018  2.91018  0.00000  0.17963
      14     O     4.17490  4.17490  0.00000 -0.34979
      15     H     0.45920  0.45920  0.00000  0.08160

   Total alpha = 32.00000, Total beta = 32.00000, Total charge = -0.00000
