  ==> Input File <==

--------------------------------------------------------------------------
set {
	reference rhf
	basis cc-pvtz
}

set_num_threads( 4 )
memory 2 gb

molecule MOL {
0 1

O	 -0.694481	 1.313155	 -0.204815
C	 -0.862519	 0.151932	 -0.046791
C	 -2.171428	 -0.477048	 0.339095
O	 0.085519	 -0.757083	 -0.192238
H	 -2.467997	 -1.191667	 -0.417688
H	 -2.923379	 0.287970	 0.444097
H	 -2.053854	 -1.015120	 1.270901
C	 1.392036	 -0.330828	 -0.560749
C	 2.453624	 -1.295842	 -0.075280
H	 1.563768	 0.662146	 -0.175618
H	 1.372742	 -0.291171	 -1.639547
H	 3.426211	 -0.974774	 -0.430866
H	 2.480907	 -1.328879	 1.005251
H	 2.265348	 -2.293549	 -0.453071

	symmetry c1
}
set optking {
	frozen_dihedral = ("
		10 8 4 2
	")
}

ee = optimize('scf')
oeprop('DIPOLE', 'QUADRUPOLE', 'MULLIKEN_CHARGES')
f=open( 'psi4out.xyz', 'w' )
f.write( "14  " )
f.write( str(ee) + "\n" )
f.write( MOL.save_string_xyz() )
f.close()
--------------------------------------------------------------------------

    Molecular point group: c1
  Charge       = 0
  Multiplicity = 1
  Basis Set: CC-PVTZ
  Basis Set:
  @DF-RHF Final Energy:  -305.99005932268221
    Total Energy =                       -305.9900593226823275
    Molecular point group: c1
  Basis Set: CC-PVTZ
  Basis Set:
  Basis Set: CC-PVTZ
  Basis Set:
  @DF-RHF Final Energy:  -305.99093216506532
    Total Energy =                       -305.9909321650654874
  Basis Set: CC-PVTZ
  Basis Set:
  Basis Set: CC-PVTZ
  Basis Set:
  @DF-RHF Final Energy:  -305.99092945103160
    Total Energy =                       -305.9909294510314339
  Basis Set: CC-PVTZ
  Basis Set:
  Basis Set: CC-PVTZ
  Basis Set:
  @DF-RHF Final Energy:  -305.99101184493429
    Total Energy =                       -305.9910118449342917
  Basis Set: CC-PVTZ
  Basis Set:
  Basis Set: CC-PVTZ
  Basis Set:
  @DF-RHF Final Energy:  -305.99111557364347
    Total Energy =                       -305.9911155736433557
  Basis Set: CC-PVTZ
  Basis Set:
  Charge       = 0
  Multiplicity = 1
  Basis Set: CC-PVTZ
  Basis Set:

    Orbital Energies (a.u.)
    -----------------------

    Doubly Occupied:

       1A    -20.594495     2A    -20.532794     3A    -11.367698
       4A    -11.282736     5A    -11.231468     6A    -11.221168
       7A     -1.470287     8A     -1.365990     9A     -1.058932
      10A     -1.000896    11A     -0.874037    12A     -0.780895
      13A     -0.696294    14A     -0.687803    15A     -0.667605
      16A     -0.612251    17A     -0.581988    18A     -0.564582
      19A     -0.557803    20A     -0.539430    21A     -0.513850
      22A     -0.501327    23A     -0.455526    24A     -0.441943

  @DF-RHF Final Energy:  -305.99111654452184

   => Energetics <=

    Nuclear Repulsion Energy =            246.0419400707511954
    One-Electron Energy =                -904.8625153174891693
    Two-Electron Energy =                 352.8294587022157884
    DFT Exchange-Correlation Energy =       0.0000000000000000
    Empirical Dispersion Energy =           0.0000000000000000
    PCM Polarization Energy =               0.0000000000000000
    EFP Energy =                            0.0000000000000000
    Total Energy =                       -305.9911165445221286
    Molecular point group: c1
  Basis Set: CC-PVTZ
  Basis Set:

  -Total Gradient:
     Atom            X                  Y                   Z
    ------   -----------------  -----------------  -----------------
       1       -0.000109465001     0.000082963199     0.000001765398
       2        0.000406691926     0.000125039546     0.001446097556
       3        0.000017454068     0.000009531661    -0.000019099270
       4       -0.000663093237    -0.000139463571    -0.002430419963
       5        0.000003318256     0.000003217644    -0.000002482125
       6        0.000002220102     0.000004668083    -0.000002135359
       7        0.000008685380     0.000005611360    -0.000001464800
       8        0.000995337862    -0.000708851262     0.002445753960
       9       -0.000043570569    -0.000003314628    -0.000012433550
      10       -0.000584103240     0.000650512904    -0.001415410939
      11        0.000001050474    -0.000027512541     0.000008027553
      12       -0.000045729211     0.000019769463    -0.000008042891
      13        0.000001491723     0.000012299850    -0.000003192372
      14        0.000009711468    -0.000034471707    -0.000006963200

  **** Optimization is complete! (in 6 steps) ****
    Final optimized geometry and variables:
    Molecular point group: c1

    Geometry (in Angstrom), charge = 0, multiplicity = 1:

    O           -0.755312977537     1.546603930785    -0.104010953130
    C           -0.897914864732     0.384987583632     0.072019604315
    C           -2.185423447019    -0.262318596081     0.497621727902
    O            0.061392282908    -0.510413311708    -0.085887484111
    H           -2.488301354553    -0.989178322645    -0.244943235283
    H           -2.947729679619     0.490794456634     0.613147035308
    H           -2.035983536461    -0.789134139119     1.431194974580
    C            1.362529725509    -0.069672745277    -0.453427578655
    C            2.366262911006    -1.070603427797     0.069597806302
    H            1.529625029059     0.920226760335    -0.060886685726
    H            1.403191527180    -0.005649610740    -1.533527318551
    H            3.365546001092    -0.775025077313    -0.227765710467
    H            2.331659668547    -1.121740786059     1.150711168928
    H            2.169703266233    -2.058915925534    -0.326530634645

  Mulliken Charges: (a.u.)
   Center  Symbol    Alpha    Beta     Spin     Total
       1     O     4.19789  4.19789  0.00000 -0.39579
       2     C     2.80428  2.80428  0.00000  0.39144
       3     C     3.13930  3.13930  0.00000 -0.27859
       4     O     4.15422  4.15422  0.00000 -0.30844
       5     H     0.44558  0.44558  0.00000  0.10885
       6     H     0.43810  0.43810  0.00000  0.12379
       7     H     0.44626  0.44626  0.00000  0.10747
       8     C     2.98170  2.98170  0.00000  0.03660
       9     C     3.13237  3.13237  0.00000 -0.26475
      10     H     0.44616  0.44616  0.00000  0.10769
      11     H     0.45651  0.45651  0.00000  0.08697
      12     H     0.45447  0.45447  0.00000  0.09106
      13     H     0.45189  0.45189  0.00000  0.09623
      14     H     0.45126  0.45126  0.00000  0.09747

   Total alpha = 24.00000, Total beta = 24.00000, Total charge = -0.00000
