  ==> Input File <==

--------------------------------------------------------------------------
set {
	reference rhf
	basis 6-31G*
}

set_num_threads( 1 )
memory 2 gb

molecule MOL {
0 1

O	 -2.666366	 -0.415245	 0.784775
C	 -2.105666	 -1.382785	 0.367744
C	 -0.871361	 -1.250670	 -0.507096
C	 -2.570982	 -2.780081	 0.711867
C	 0.373411	 -0.949540	 0.343200
H	 -1.044056	 -0.432754	 -1.198105
H	 -0.714981	 -2.155980	 -1.086738
C	 1.631333	 -0.777471	 -0.511575
H	 0.179168	 -0.053265	 0.921426
H	 0.533161	 -1.755922	 1.057326
C	 2.915987	 -0.544314	 0.291766
H	 1.484279	 0.050905	 -1.202149
H	 1.762746	 -1.666369	 -1.125122
C	 3.373361	 0.914346	 0.347591
H	 3.708709	 -1.142521	 -0.150311
H	 2.780642	 -0.921148	 1.303579
H	 3.506512	 1.320010	 -0.651625
H	 4.322697	 0.999599	 0.867103
H	 2.660624	 1.545032	 0.868198
H	 -2.929447	 -3.277134	 -0.185744
H	 -3.368469	 -2.735835	 1.440456
H	 -1.748852	 -3.374355	 1.100126

	symmetry c1
}
set optking {
	frozen_dihedral = ("
		6 3 2 1,
		6 3 5 8,
		3 5 8 12
	")
}

ee = energy('scf')
oeprop('DIPOLE', 'QUADRUPOLE', 'MULLIKEN_CHARGES')
f=open( 'psi4out.xyz', 'w' )
f.write( "22  " )
f.write( str(ee) + "\n" )
f.write( MOL.save_string_xyz() )
f.close()
--------------------------------------------------------------------------

    Molecular point group: c1

    Geometry (in Angstrom), charge = 0, multiplicity = 1:

       Center              X                  Y                   Z               Mass
    ------------   -----------------  -----------------  -----------------  -----------------
           O         -2.679726971259     0.475115807864     0.547728029019    15.994914619560
           C         -2.119026971259    -0.492424192136     0.130697029019    12.000000000000
           C         -0.884721971259    -0.360309192136    -0.744142970981    12.000000000000
           C         -2.584342971259    -1.889720192136     0.474820029019    12.000000000000
           C          0.360050028741    -0.059179192136     0.106153029019    12.000000000000
           H         -1.057416971259     0.457606807864    -1.435151970981     1.007825032070
           H         -0.728341971259    -1.265619192136    -1.323784970981     1.007825032070
           C          1.617972028741     0.112889807864    -0.748621970981    12.000000000000
           H          0.165807028741     0.837095807864     0.684379029019     1.007825032070
           H          0.519800028741    -0.865561192136     0.820279029019     1.007825032070
           C          2.902626028741     0.346046807864     0.054719029019    12.000000000000
           H          1.470918028741     0.941265807864    -1.439195970981     1.007825032070
           H          1.749385028741    -0.776008192136    -1.362168970981     1.007825032070
           C          3.360000028741     1.804706807864     0.110544029019    12.000000000000
           H          3.695348028741    -0.252160192136    -0.387357970981     1.007825032070
           H          2.767281028741    -0.030787192136     1.066532029019     1.007825032070
           H          3.493151028741     2.210370807864    -0.888671970981     1.007825032070
           H          4.309336028741     1.889959807864     0.630056029019     1.007825032070
           H          2.647263028741     2.435392807864     0.631151029019     1.007825032070
           H         -2.942807971259    -2.386773192136    -0.422790970981     1.007825032070
           H         -3.381829971259    -1.845474192136     1.203409029019     1.007825032070
           H         -1.762212971259    -2.483994192136     0.863079029019     1.007825032070

  Charge       = 0
  Multiplicity = 1
  Basis Set: 6-31G*
  Basis Set:

    Orbital Energies (a.u.)
    -----------------------

    Doubly Occupied:

       1A    -20.547290     2A    -11.324475     3A    -11.230066
       4A    -11.228936     5A    -11.228215     6A    -11.221229
       7A    -11.219507     8A    -11.211683     9A     -1.393052
      10A     -1.095073    11A     -1.044526    12A     -1.000265
      13A     -0.938241    14A     -0.851731    15A     -0.793199
      16A     -0.732571    17A     -0.661949    18A     -0.644107
      19A     -0.626391    20A     -0.616619    21A     -0.598885
      22A     -0.581542    23A     -0.561715    24A     -0.548234
      25A     -0.532015    26A     -0.511125    27A     -0.504241
      28A     -0.487447    29A     -0.473560    30A     -0.461701
      31A     -0.457504    32A     -0.396124

  @DF-RHF Final Energy:  -348.09489398256471

   => Energetics <=

    Nuclear Repulsion Energy =            370.4947713057987357
    One-Electron Energy =               -1205.7330430196977886
    Two-Electron Energy =                 487.1433777313341125
    DFT Exchange-Correlation Energy =       0.0000000000000000
    Empirical Dispersion Energy =           0.0000000000000000
    PCM Polarization Energy =               0.0000000000000000
    EFP Energy =                            0.0000000000000000
    Total Energy =                       -348.0948939825649404

  Mulliken Charges: (a.u.)
   Center  Symbol    Alpha    Beta     Spin     Total
       1     O     4.26246  4.26246  0.00000 -0.52491
       2     C     2.73719  2.73719  0.00000  0.52563
       3     C     3.20054  3.20054  0.00000 -0.40107
       4     C     3.28954  3.28954  0.00000 -0.57909
       5     C     3.16316  3.16316  0.00000 -0.32631
       6     H     0.40110  0.40110  0.00000  0.19780
       7     H     0.41691  0.41691  0.00000  0.16618
       8     C     3.15426  3.15426  0.00000 -0.30851
       9     H     0.40522  0.40522  0.00000  0.18956
      10     H     0.42061  0.42061  0.00000  0.15878
      11     C     3.15562  3.15562  0.00000 -0.31125
      12     H     0.41845  0.41845  0.00000  0.16310
      13     H     0.42138  0.42138  0.00000  0.15725
      14     C     3.24025  3.24025  0.00000 -0.48049
      15     H     0.41968  0.41968  0.00000  0.16065
      16     H     0.42045  0.42045  0.00000  0.15909
      17     H     0.42104  0.42104  0.00000  0.15792
      18     H     0.41913  0.41913  0.00000  0.16174
      19     H     0.41930  0.41930  0.00000  0.16139
      20     H     0.40692  0.40692  0.00000  0.18616
      21     H     0.39708  0.39708  0.00000  0.20584
      22     H     0.40973  0.40973  0.00000  0.18054

   Total alpha = 32.00000, Total beta = 32.00000, Total charge = -0.00000
