  ==> Input File <==

--------------------------------------------------------------------------
set {
	reference rhf
	basis cc-pvtz
}

set_num_threads( 4 )
memory 2 gb

molecule MOL {
0 1

H	 -1.744769	 -1.065681	 -3.807950
C	 -1.012198	 -0.958504	 -3.032083
C	 -1.023686	 -1.802696	 -1.930702
C	 -0.046106	 0.017296	 -3.111801
H	 -1.770123	 -2.570188	 -1.851193
C	 -0.086985	 -1.668898	 -0.934353
H	 -0.021138	 0.679859	 -3.956240
C	 0.907496	 0.166298	 -2.114378
H	 -0.087085	 -2.315900	 -0.079333
C	 0.887324	 -0.680037	 -1.021040
H	 1.646006	 0.935491	 -2.206062
O	 1.760432	 -0.625184	 0.000000
C	 2.773565	 0.334879	 0.000000
H	 2.728295	 0.960928	 -0.884150
H	 3.706387	 -0.206610	 0.000000
H	 2.728295	 0.960928	 0.884150

	symmetry c1
}
set optking {
	frozen_dihedral = ("
		10 12 13 14
	")
}

ee = optimize('scf')
oeprop('DIPOLE', 'QUADRUPOLE', 'MULLIKEN_CHARGES')
f=open( 'psi4out.xyz', 'w' )
f.write( "16  " )
f.write( str(ee) + "\n" )
f.write( MOL.save_string_xyz() )
f.close()
--------------------------------------------------------------------------

    Molecular point group: c1
  Charge       = 0
  Multiplicity = 1
  Basis Set: CC-PVTZ
  Basis Set:
  @DF-RHF Final Energy:  -344.69515239185688
    Total Energy =                       -344.6951523918568228
    Molecular point group: c1
  Basis Set: CC-PVTZ
  Basis Set:
  Basis Set: CC-PVTZ
  Basis Set:
  @DF-RHF Final Energy:  -344.69372455184538
    Total Energy =                       -344.6937245518452073
  Basis Set: CC-PVTZ
  Basis Set:
  Basis Set: CC-PVTZ
  Basis Set:
  @DF-RHF Final Energy:  -344.69765106479798
    Total Energy =                       -344.6976510647979808
  Basis Set: CC-PVTZ
  Basis Set:
  Basis Set: CC-PVTZ
  Basis Set:
  @DF-RHF Final Energy:  -344.69793396915088
    Total Energy =                       -344.6979339691508812
  Basis Set: CC-PVTZ
  Basis Set:
  Basis Set: CC-PVTZ
  Basis Set:
  @DF-RHF Final Energy:  -344.69794682874925
    Total Energy =                       -344.6979468287491954
  Basis Set: CC-PVTZ
  Basis Set:
  Basis Set: CC-PVTZ
  Basis Set:
  @DF-RHF Final Energy:  -344.69794972344528
    Total Energy =                       -344.6979497234453902
  Basis Set: CC-PVTZ
  Basis Set:
  Charge       = 0
  Multiplicity = 1
  Basis Set: CC-PVTZ
  Basis Set:

    Orbital Energies (a.u.)
    -----------------------

    Doubly Occupied:

       1A    -20.577964     2A    -11.296214     3A    -11.278790
       4A    -11.230703     5A    -11.229155     6A    -11.220995
       7A    -11.216204     8A    -11.215274     9A     -1.415758
      10A     -1.150342    11A     -1.026112    12A     -1.016567
      13A     -0.944621    14A     -0.833579    15A     -0.808267
      16A     -0.726995    17A     -0.666374    18A     -0.665915
      19A     -0.658165    20A     -0.620944    21A     -0.589444
      22A     -0.576856    23A     -0.531456    24A     -0.521615
      25A     -0.514041    26A     -0.475941    27A     -0.465549
      28A     -0.339072    29A     -0.307132

  @DF-RHF Final Energy:  -344.69795051463529

   => Energetics <=

    Nuclear Repulsion Energy =            347.7647635634234575
    One-Electron Energy =               -1156.6853414959555266
    Two-Electron Energy =                 464.2226274178965468
    DFT Exchange-Correlation Energy =       0.0000000000000000
    Empirical Dispersion Energy =           0.0000000000000000
    PCM Polarization Energy =               0.0000000000000000
    EFP Energy =                            0.0000000000000000
    Total Energy =                       -344.6979505146355223
    Molecular point group: c1
  Basis Set: CC-PVTZ
  Basis Set:

  -Total Gradient:
     Atom            X                  Y                   Z
    ------   -----------------  -----------------  -----------------
       1       -0.000001823494    -0.000001693956     0.000002417030
       2       -0.000001535870     0.000007875520    -0.000001327574
       3        0.000016787983    -0.000015384509     0.000000915852
       4        0.000000805173    -0.000005126519    -0.000001822070
       5       -0.000003058894     0.000001238108    -0.000000121528
       6       -0.000018430949    -0.000006550082    -0.000008982618
       7        0.000001612620    -0.000000189299     0.000002022492
       8        0.000029490543    -0.000025861807    -0.000010008368
       9       -0.000003258734     0.000003064795     0.000001664658
      10       -0.000024317910     0.000057172224     0.000035238764
      11        0.000023758808    -0.000008960700    -0.000000586220
      12       -0.000010283542     0.000014968907     0.000011905018
      13        0.000061089491    -0.000072462817    -0.000050329626
      14       -0.000070740788     0.000058538043     0.000026062876
      15        0.000013780154     0.000008671883    -0.000003844477
      16       -0.000013874585    -0.000015299794    -0.000003204206

  **** Optimization is complete! (in 7 steps) ****
    Final optimized geometry and variables:
    Molecular point group: c1

    Geometry (in Angstrom), charge = 0, multiplicity = 1:

    H           -2.373491482728    -0.477310878998    -2.330960506121
    C           -1.631547741082    -0.354194233907    -1.566524036813
    C           -1.616812333896    -1.184139908009    -0.455483885073
    C           -0.676018860635     0.629774773533    -1.668339858344
    H           -2.352748943773    -1.959233452022    -0.354132970885
    C           -0.666501312163    -1.027213912104     0.524452122832
    H           -0.668826433038     1.283882553413    -2.519770501847
    C            0.290833493026     0.802179640297    -0.687779063955
    H           -0.647580471306    -1.664287696750     1.386602216652
    C            0.298712499126    -0.030123973906     0.417027931277
    H            1.011747239324     1.581852791105    -0.811762405728
    O            1.172360999993     0.023590080859     1.438690592187
    C            2.227698786177     0.939898023871     1.515962635573
    H            2.279498851748     1.608059829528     0.672986980256
    H            3.156926623155     0.389206070951     1.577549493609
    H            2.106628467370     1.528420597482     2.415681147178

  Mulliken Charges: (a.u.)
   Center  Symbol    Alpha    Beta     Spin     Total
       1     H     0.42458  0.42458  0.00000  0.15083
       2     C     3.10259  3.10259  0.00000 -0.20518
       3     C     3.05692  3.05692  0.00000 -0.11385
       4     C     3.05745  3.05745  0.00000 -0.11491
       5     H     0.42296  0.42296  0.00000  0.15408
       6     C     3.11445  3.11445  0.00000 -0.22890
       7     H     0.42385  0.42385  0.00000  0.15230
       8     C     3.14524  3.14524  0.00000 -0.29048
       9     H     0.42092  0.42092  0.00000  0.15816
      10     C     2.84889  2.84889  0.00000  0.30223
      11     H     0.42474  0.42474  0.00000  0.15052
      12     O     4.15558  4.15558  0.00000 -0.31116
      13     C     3.02903  3.02903  0.00000 -0.05805
      14     H     0.46520  0.46520  0.00000  0.06960
      15     H     0.45374  0.45374  0.00000  0.09253
      16     H     0.45386  0.45386  0.00000  0.09229

   Total alpha = 29.00000, Total beta = 29.00000, Total charge = -0.00000
