                              Psi4 1.0.54 Driver

  ==> Input File <==

--------------------------------------------------------------------------
set {
	reference rhf
	basis cc-pvtz
}

set_num_threads( 4 )
memory 2 gb

molecule MOL {
0 1

O	 1.847685	 1.294399	 -0.000190
C	 1.704209	 0.119472	 -0.000093
C	 0.380337	 -0.600947	 -0.000234
O	 2.715427	 -0.733672	 0.000025
C	 -0.824290	 0.329213	 -0.000115
H	 0.371455	 -1.255476	 -0.865660
H	 0.371410	 -1.255787	 0.864952
C	 -0.897142	 1.184896	 -1.261272
H	 -0.783268	 0.966849	 0.875676
H	 -1.729705	 -0.258787	 0.098729
C	 -2.099506	 2.124287	 -1.279600
H	 0.014876	 1.770168	 -1.355770
H	 -0.934821	 0.539386	 -2.135992
C	 -2.172101	 2.979870	 -2.539806
H	 -2.062381	 2.770141	 -0.406874
H	 -3.011073	 1.540665	 -1.186917
H	 -1.288778	 3.601471	 -2.642696
H	 -3.035821	 3.634353	 -2.520470
H	 -2.245372	 2.362288	 -3.428884
C	 4.020999	 -0.192556	 0.000019
H	 4.182809	 0.412891	 -0.879449
H	 4.692590	 -1.035653	 0.000152
H	 4.182726	 0.413087	 0.879368

	symmetry c1
}
set optking {
	frozen_dihedral = ("
		9 5 3 6
	")
}

ee,wfn = optimize('scf', return_wfn=True)
oeprop( wfn, 'DIPOLE', 'QUADRUPOLE', 'MULLIKEN_CHARGES')
f=open( 'psi4out.xyz', 'w' )
f.write( "23  " )
f.write( str(ee) + "\n" )
f.write( MOL.save_string_xyz() )
f.close()
--------------------------------------------------------------------------

    Molecular point group: c1
  Charge       = 0
  Multiplicity = 1
  Basis Set: CC-PVTZ
  Basis Set:
  @DF-RHF Final Energy:  -423.12858150016211
    Total Energy =                       -423.1285815001617721
    Molecular point group: c1
  Basis Set: CC-PVTZ
  Basis Set:
  Basis Set: CC-PVTZ
  Basis Set:
  @DF-RHF Final Energy:  -423.12984776118356
    Total Energy =                       -423.1298477611837825
  Basis Set: CC-PVTZ
  Basis Set:
  Basis Set: CC-PVTZ
  Basis Set:
  @DF-RHF Final Energy:  -423.12788032591942
    Total Energy =                       -423.1278803259187953
  Basis Set: CC-PVTZ
  Basis Set:
  Basis Set: CC-PVTZ
  Basis Set:
  @DF-RHF Final Energy:  -423.13020874366492
    Total Energy =                       -423.1302087436652073
  Basis Set: CC-PVTZ
  Basis Set:
  @DF-RHF Final Energy:  -423.13033953253250
    Total Energy =                       -423.1303395325330712
  Basis Set: CC-PVTZ
  Basis Set:
  @DF-RHF Final Energy:  -423.13038308348155
    Total Energy =                       -423.1303830834809787
  Basis Set: CC-PVTZ
  Basis Set:
  Basis Set: CC-PVTZ
  Basis Set:
  @DF-RHF Final Energy:  -423.13040428261741
    Total Energy =                       -423.1304042826170644
  Basis Set: CC-PVTZ
  Basis Set:
  Basis Set: CC-PVTZ
  Basis Set:
  @DF-RHF Final Energy:  -423.13040630758877
    Total Energy =                       -423.1304063075889417
  Basis Set: CC-PVTZ
  Basis Set:
  Charge       = 0
  Multiplicity = 1
  Basis Set: CC-PVTZ
  Basis Set:

    Orbital Energies (a.u.)
    -----------------------

    Doubly Occupied:

       1A    -20.597461     2A    -20.534119     3A    -11.365387
       4A    -11.278992     5A    -11.234087     6A    -11.218431
       7A    -11.211400     8A    -11.209704     9A    -11.204449
      10A     -1.473105    11A     -1.366261    12A     -1.092198
      13A     -1.042652    14A     -0.987049    15A     -0.931546
      16A     -0.844266    17A     -0.794684    18A     -0.768262
      19A     -0.703338    20A     -0.683981    21A     -0.675398
      22A     -0.641925    23A     -0.613324    24A     -0.600645
      25A     -0.569445    26A     -0.560280    27A     -0.553596
      28A     -0.530468    29A     -0.524424    30A     -0.501478
      31A     -0.491970    32A     -0.468226    33A     -0.464997
      34A     -0.458473    35A     -0.452761    36A     -0.438409

  @DF-RHF Final Energy:  -423.13040652101859

   => Energetics <=

    Nuclear Repulsion Energy =            463.6655455901058076
    One-Electron Energy =               -1495.4175333919490640
    Two-Electron Energy =                 608.6215812808247847
    DFT Exchange-Correlation Energy =       0.0000000000000000
    Empirical Dispersion Energy =           0.0000000000000000
    PCM Polarization Energy =               0.0000000000000000
    EFP Energy =                            0.0000000000000000
    Total Energy =                       -423.1304065210185854
    Molecular point group: c1
  Basis Set: CC-PVTZ
  Basis Set:

  -Total Gradient:
     Atom            X                  Y                   Z
    ------   -----------------  -----------------  -----------------
       1       -0.000018071538    -0.000069174455    -0.000021545188
       2        0.000036470092     0.000072604794     0.000023750697
       3        0.000713660602     0.000905027588    -0.000699824803
       4        0.000033272599     0.000005159563    -0.000002718513
       5        0.000635613430     0.000774685047    -0.000633144386
       6       -0.000690046154    -0.000838029340     0.000665377996
       7       -0.000004474073    -0.000009764625     0.000008687132
       8       -0.000001063969     0.000004998452    -0.000007319320
       9       -0.000666908420    -0.000832340908     0.000642004815
      10       -0.000016180001     0.000003388982     0.000003095052
      11        0.000008043127     0.000001800757     0.000013189129
      12        0.000001026059     0.000007576710     0.000004043208
      13        0.000004580621    -0.000001824502     0.000003789349
      14        0.000003152108    -0.000008501820    -0.000004977467
      15       -0.000001212439     0.000002786772    -0.000000997175
      16        0.000007213522     0.000002987599     0.000003581818
      17       -0.000008715107    -0.000005330158     0.000003192870
      18        0.000004165889    -0.000006762826     0.000001901494
      19        0.000001688359     0.000002726174    -0.000003170130
      20       -0.000018922435     0.000011253867     0.000007601713
      21       -0.000007784653    -0.000011744810     0.000005330277
      22       -0.000008409002    -0.000007384931    -0.000004340468
      23       -0.000007098614    -0.000004137928    -0.000007508098

  **** Optimization is complete! (in 9 steps) ****
    Final optimized geometry and variables:
    Molecular point group: c1

    Geometry (in Angstrom), charge = 0, multiplicity = 1:

    O            1.346050615272     0.513749773721     0.984823550155
    C            1.167919770311    -0.610193139050     0.657369608165
    C           -0.174162326899    -1.293644709692     0.576530863858
    O            2.151945863622    -1.438844598018     0.351858430998
    C           -1.367842721151    -0.346143089663     0.538938240674
    H           -0.172033378102    -1.967234298093    -0.271528689842
    H           -0.229769270914    -1.928960680588     1.456178658801
    C           -1.470858785460     0.480500957094    -0.740180094926
    H           -1.330952964069     0.307563937212     1.402243369842
    H           -2.266656747680    -0.946500002045     0.645390600299
    C           -2.693508327337     1.393424950128    -0.759734391090
    H           -0.576001156061     1.081612177323    -0.856853881931
    H           -1.512291184351    -0.189887605604    -1.596498184920
    C           -2.805301949464     2.214636809925    -2.039785122389
    H           -2.651737047912     2.062883742483     0.094645897978
    H           -3.592699349215     0.795595410096    -0.635814511744
    H           -1.936049117824     2.849666542943    -2.173232040218
    H           -3.681361525275     2.852755409735    -2.021710800514
    H           -2.881762283242     1.573028435329    -2.911544051005
    C            3.471723903944    -0.941618741295     0.445065184107
    H            3.612071891476    -0.105808680983    -0.224047482508
    H            4.117397528607    -1.757180434125     0.162604499719
    H            3.689705111188    -0.625592989805     1.454448661818

  Mulliken Charges: (a.u.)
   Center  Symbol    Alpha    Beta     Spin     Total
       1     O     4.20072  4.20072  0.00000 -0.40145
       2     C     2.80323  2.80323  0.00000  0.39355
       3     C     3.11063  3.11063  0.00000 -0.22126
       4     O     4.14566  4.14566  0.00000 -0.29131
       5     C     3.09065  3.09065  0.00000 -0.18130
       6     H     0.43725  0.43725  0.00000  0.12550
       7     H     0.43436  0.43436  0.00000  0.13127
       8     C     3.09011  3.09011  0.00000 -0.18021
       9     H     0.44554  0.44554  0.00000  0.10892
      10     H     0.44731  0.44731  0.00000  0.10539
      11     C     3.08551  3.08551  0.00000 -0.17103
      12     H     0.44428  0.44428  0.00000  0.11145
      13     H     0.45765  0.45765  0.00000  0.08470
      14     C     3.15005  3.15005  0.00000 -0.30010
      15     H     0.45222  0.45222  0.00000  0.09555
      16     H     0.45588  0.45588  0.00000  0.08825
      17     H     0.45362  0.45362  0.00000  0.09276
      18     H     0.44877  0.44877  0.00000  0.10247
      19     H     0.45630  0.45630  0.00000  0.08741
      20     C     3.03639  3.03639  0.00000 -0.07278
      21     H     0.45419  0.45419  0.00000  0.09161
      22     H     0.44526  0.44526  0.00000  0.10948
      23     H     0.45444  0.45444  0.00000  0.09112

   Total alpha = 36.00000, Total beta = 36.00000, Total charge =  0.00000

*** Psi4 exiting successfully. Buy a developer a beer!
