  ==> Input File <==

--------------------------------------------------------------------------
set {
	reference rhf
	basis 6-31G*
}

set_num_threads( 4 )
memory 2 gb

molecule MOL {
0 1

O	 1.060187	 1.552475	 -0.444908
C	 0.663840	 0.850015	 -1.318121
C	 -0.619514	 0.056142	 -1.292410
O	 1.317955	 0.669329	 -2.458499
C	 -1.412532	 0.227344	 -0.000452
H	 -1.205116	 0.357639	 -2.156658
H	 -0.360270	 -0.985692	 -1.460132
C	 -2.706999	 -0.587347	 -0.000541
H	 -1.639556	 1.279054	 0.144014
H	 -0.793280	 -0.065768	 0.841638
C	 -3.956778	 0.291888	 0.000910
H	 -2.726114	 -1.239230	 -0.871609
H	 -2.725217	 -1.240844	 0.869333
H	 -3.985213	 0.933254	 -0.875158
H	 -4.860123	 -0.309979	 0.000519
H	 -3.984618	 0.931166	 0.878514
C	 2.544087	 1.360708	 -2.612561
H	 2.387973	 2.428399	 -2.556412
H	 2.916153	 1.087964	 -3.587818
H	 3.246589	 1.063722	 -1.847187

	symmetry c1
}
set optking {
	frozen_dihedral = ("
		9 5 8 12
	")
}

ee = optimize('scf')
oeprop('DIPOLE', 'QUADRUPOLE', 'MULLIKEN_CHARGES')
f=open( 'psi4out.xyz', 'w' )
f.write( "20  " )
f.write( str(ee) + "\n" )
f.write( MOL.save_string_xyz() )
f.close()
--------------------------------------------------------------------------

    Molecular point group: c1
  Charge       = 0
  Multiplicity = 1
  Basis Set: 6-31G*
  Basis Set:
  @DF-RHF Final Energy:  -383.93566768335108
    Total Energy =                       -383.9356676833509709
    Molecular point group: c1
  Basis Set: 6-31G*
  Basis Set:
  Basis Set: 6-31G*
  Basis Set:
  @DF-RHF Final Energy:  -383.93592364763691
    Total Energy =                       -383.9359236476368551
  Basis Set: 6-31G*
  Basis Set:
  Basis Set: 6-31G*
  Basis Set:
  @DF-RHF Final Energy:  -383.93600347188817
    Total Energy =                       -383.9360034718885117
  Basis Set: 6-31G*
  Basis Set:
  Basis Set: 6-31G*
  Basis Set:
  @DF-RHF Final Energy:  -383.93572852597237
    Total Energy =                       -383.9357285259723085
  Basis Set: 6-31G*
  Basis Set:
  Basis Set: 6-31G*
  Basis Set:
  @DF-RHF Final Energy:  -383.93601290197273
    Total Energy =                       -383.9360129019726173
  Basis Set: 6-31G*
  Basis Set:
  Charge       = 0
  Multiplicity = 1
  Basis Set: 6-31G*
  Basis Set:

    Orbital Energies (a.u.)
    -----------------------

    Doubly Occupied:

       1A    -20.603715     2A    -20.545651     3A    -11.372198
       4A    -11.280928     5A    -11.236072     6A    -11.220029
       7A    -11.219113     8A    -11.211689     9A     -1.469407
      10A     -1.362870    11A     -1.086684    12A     -1.023205
      13A     -0.968811    14A     -0.886910    15A     -0.804074
      16A     -0.767298    17A     -0.699860    18A     -0.682704
      19A     -0.672365    20A     -0.634320    21A     -0.606578
      22A     -0.595950    23A     -0.574488    24A     -0.544293
      25A     -0.526127    26A     -0.522350    27A     -0.513030
      28A     -0.475388    29A     -0.472337    30A     -0.465530
      31A     -0.455413    32A     -0.436399

  @DF-RHF Final Energy:  -383.93601325905638

   => Energetics <=

    Nuclear Repulsion Energy =            382.2778075250805614
    One-Electron Energy =               -1280.5560728954546903
    Two-Electron Energy =                 514.3422521113176344
    DFT Exchange-Correlation Energy =       0.0000000000000000
    Empirical Dispersion Energy =           0.0000000000000000
    PCM Polarization Energy =               0.0000000000000000
    EFP Energy =                            0.0000000000000000
    Total Energy =                       -383.9360132590564945
    Molecular point group: c1
  Basis Set: 6-31G*
  Basis Set:

  -Total Gradient:
     Atom            X                  Y                   Z
    ------   -----------------  -----------------  -----------------
       1        0.000032957609    -0.000004715566    -0.000035915677
       2       -0.000016809732    -0.000016972677     0.000021266073
       3       -0.000033112911     0.000017487739     0.000036966099
       4        0.000021016057     0.000036074757     0.000017682915
       5       -0.000047584578     0.000050440555     0.001492659890
       6        0.000001231472    -0.000009494397     0.000013584852
       7       -0.000006880015    -0.000012921122    -0.000005298925
       8        0.000728451208    -0.001211441082     0.000621028810
       9       -0.000096165985     0.000169476868    -0.001400264361
      10        0.000000097106    -0.000002478014    -0.000003782487
      11        0.000020950850    -0.000023972217     0.000004632412
      12       -0.000620122494     0.001017971885    -0.000750478394
      13       -0.000014313956     0.000006188355     0.000001541827
      14        0.000014953915    -0.000000445895     0.000009746550
      15       -0.000008840886    -0.000007285237    -0.000009713932
      16        0.000002191840    -0.000007441482     0.000001906986
      17        0.000013652053    -0.000009600907    -0.000013735502
      18       -0.000002107536     0.000000295162     0.000000278169
      19        0.000009500981     0.000007170938    -0.000001099623
      20        0.000000935000     0.000001662339    -0.000001005686

  **** Optimization is complete! (in 6 steps) ****
    Final optimized geometry and variables:
    Molecular point group: c1

    Geometry (in Angstrom), charge = 0, multiplicity = 1:

    O            1.417964570598     0.990860947076     0.582034681630
    C            1.025300583546     0.280022789201    -0.286184477834
    C           -0.250877305435    -0.525191937650    -0.252099639737
    O            1.677830339112     0.099358293196    -1.427548335014
    C           -1.039666408168    -0.359878929006     1.045257302174
    H           -0.845017458563    -0.229344937244    -1.112802501290
    H            0.015738084638    -1.564836151842    -0.420630823426
    C           -2.361020813843    -1.161275047139     1.040591222429
    H           -1.244890142908     0.695545190912     1.187528957618
    H           -0.412532225639    -0.658340182257     1.877166665940
    C           -3.604085470425    -0.269891611688     1.022115663446
    H           -2.395140486093    -1.815930512551     0.173191219310
    H           -2.403842393752    -1.809905492850     1.909997202711
    H           -3.607889244176     0.378954734937     0.150330053383
    H           -4.513363894995    -0.862670915963     0.997401585211
    H           -3.643508122232     0.363451481050     1.903366079996
    C            2.897201882629     0.800965063220    -1.588824776269
    H            2.731695195550     1.867484740059    -1.537240553301
    H            3.268679973507     0.526959869754    -2.563959292345
    H            3.604775571931     0.513967919011    -0.824309292104

  Mulliken Charges: (a.u.)
   Center  Symbol    Alpha    Beta     Spin     Total
       1     O     4.28591  4.28591  0.00000 -0.57182
       2     C     2.60608  2.60608  0.00000  0.78784
       3     C     3.20976  3.20976  0.00000 -0.41953
       4     O     4.30712  4.30712  0.00000 -0.61424
       5     C     3.15573  3.15573  0.00000 -0.31145
       6     H     0.40086  0.40086  0.00000  0.19827
       7     H     0.40026  0.40026  0.00000  0.19948
       8     C     3.15829  3.15829  0.00000 -0.31658
       9     H     0.40862  0.40862  0.00000  0.18277
      10     H     0.40919  0.40919  0.00000  0.18161
      11     C     3.23979  3.23979  0.00000 -0.47958
      12     H     0.42113  0.42113  0.00000  0.15774
      13     H     0.41711  0.41711  0.00000  0.16578
      14     H     0.42254  0.42254  0.00000  0.15492
      15     H     0.41967  0.41967  0.00000  0.16066
      16     H     0.41893  0.41893  0.00000  0.16214
      17     C     3.09244  3.09244  0.00000 -0.18488
      18     H     0.40907  0.40907  0.00000  0.18186
      19     H     0.40844  0.40844  0.00000  0.18313
      20     H     0.40906  0.40906  0.00000  0.18189

   Total alpha = 32.00000, Total beta = 32.00000, Total charge = -0.00000
