                              Psi4 1.0.54 Driver

  ==> Input File <==

--------------------------------------------------------------------------
set {
	reference rhf
	basis cc-pvtz
}

set_num_threads( 4 )
memory 2 gb

molecule MOL {
0 1

H	 -2.502669	 -3.154034	 -1.118850
O	 -2.475583	 -2.240356	 -0.902855
C	 -1.178821	 -1.874983	 -0.511284
C	 -1.175688	 -0.398187	 -0.171891
H	 -0.864947	 -2.454757	 0.354232
H	 -0.469453	 -2.072388	 -1.312320
C	 0.196029	 0.106276	 0.266738
H	 -1.904894	 -0.224431	 0.613149
H	 -1.516276	 0.155049	 -1.041285
C	 1.330220	 -0.826136	 -0.155230
H	 0.359542	 1.097229	 -0.145561
H	 0.212134	 0.218135	 1.348778
C	 2.719700	 -0.407669	 0.328325
H	 1.339388	 -0.911200	 -1.239363
H	 1.119001	 -1.821953	 0.224128
C	 3.241564	 0.893452	 -0.276737
H	 3.418299	 -1.204729	 0.093035
H	 2.711776	 -0.323368	 1.411960
H	 3.254204	 0.841071	 -1.360784
H	 2.634460	 1.745075	 0.005842
H	 4.254264	 1.092401	 0.054971

	symmetry c1
}
set optking {
	frozen_dihedral = ("
		8 4 7 10
	")
}

ee,wfn = optimize('scf', return_wfn=True)
oeprop( wfn, 'DIPOLE', 'QUADRUPOLE', 'MULLIKEN_CHARGES')
f=open( 'psi4out.xyz', 'w' )
f.write( "21  " )
f.write( str(ee) + "\n" )
f.write( MOL.save_string_xyz() )
f.close()
--------------------------------------------------------------------------

    Molecular point group: c1
  Charge       = 0
  Multiplicity = 1
  Basis Set: CC-PVTZ
  Basis Set:
  @DF-RHF Final Energy:  -310.32069773318358
    Total Energy =                       -310.3206977331836924
    Molecular point group: c1
  Basis Set: CC-PVTZ
  Basis Set:
  Basis Set: CC-PVTZ
  Basis Set:
  @DF-RHF Final Energy:  -310.31785387126837
    Total Energy =                       -310.3178538712685395
  Basis Set: CC-PVTZ
  Basis Set:
  Basis Set: CC-PVTZ
  Basis Set:
  @DF-RHF Final Energy:  -310.32417565462123
    Total Energy =                       -310.3241756546215697
  Basis Set: CC-PVTZ
  Basis Set:
  Basis Set: CC-PVTZ
  Basis Set:
  @DF-RHF Final Energy:  -310.32465019861877
    Total Energy =                       -310.3246501986186558
  Basis Set: CC-PVTZ
  Basis Set:
  Basis Set: CC-PVTZ
  Basis Set:
  @DF-RHF Final Energy:  -310.32467702627781
    Total Energy =                       -310.3246770262778114
  Basis Set: CC-PVTZ
  Basis Set:
  Basis Set: CC-PVTZ
  Basis Set:
  @DF-RHF Final Energy:  -310.32470719307906
    Total Energy =                       -310.3247071930788934
  Basis Set: CC-PVTZ
  Basis Set:
  Basis Set: CC-PVTZ
  Basis Set:
  @DF-RHF Final Energy:  -310.32471372936851
    Total Energy =                       -310.3247137293683409
  Basis Set: CC-PVTZ
  Basis Set:
  Charge       = 0
  Multiplicity = 1
  Basis Set: CC-PVTZ
  Basis Set:

    Orbital Energies (a.u.)
    -----------------------

    Doubly Occupied:

       1A    -20.544645     2A    -11.263977     3A    -11.214538
       4A    -11.213698     5A    -11.213109     6A    -11.209290
       7A    -11.206665     8A     -1.362461     9A     -1.085962
      10A     -1.030994    11A     -0.951889    12A     -0.887189
      13A     -0.814960    14A     -0.764317    15A     -0.698779
      16A     -0.659581    17A     -0.624723    18A     -0.609170
      19A     -0.581889    20A     -0.572506    21A     -0.539703
      22A     -0.528654    23A     -0.513684    24A     -0.487006
      25A     -0.481818    26A     -0.461063    27A     -0.452218
      28A     -0.442480    29A     -0.432249

  @DF-RHF Final Energy:  -310.32471383616320

   => Energetics <=

    Nuclear Repulsion Energy =            317.0560738536922258
    One-Electron Energy =               -1049.0631491929682397
    Two-Electron Energy =                 421.6823615031128156
    DFT Exchange-Correlation Energy =       0.0000000000000000
    Empirical Dispersion Energy =           0.0000000000000000
    PCM Polarization Energy =               0.0000000000000000
    EFP Energy =                            0.0000000000000000
    Total Energy =                       -310.3247138361632551
    Molecular point group: c1
  Basis Set: CC-PVTZ
  Basis Set:

  -Total Gradient:
     Atom            X                  Y                   Z
    ------   -----------------  -----------------  -----------------
       1       -0.000002298858    -0.000005871813     0.000001269508
       2       -0.000001265676     0.000004136944    -0.000004909399
       3       -0.000002347175    -0.000000144080     0.000001190026
       4       -0.001589980883     0.005044625211    -0.001671130758
       5        0.000003753354    -0.000004056137     0.000002218450
       6       -0.000002839996     0.000002303341    -0.000000632334
       7        0.000934369484     0.001345470202    -0.004880406746
       8        0.001122146584    -0.004720551371     0.002755648664
       9        0.000000271972     0.000003726975    -0.000000548805
      10       -0.000470461453    -0.001671220415     0.003786443779
      11        0.000005385970    -0.000006199093    -0.000000656446
      12       -0.000013581634     0.000004003717     0.000000291439
      13        0.000001035615     0.000005672377     0.000014177494
      14       -0.000006398004    -0.000014536024    -0.000008863103
      15        0.000000270030     0.000011213279     0.000001289545
      16        0.000008739322    -0.000004678272     0.000001327829
      17        0.000002354123     0.000006856894    -0.000002114567
      18        0.000009490137     0.000000308640     0.000007835793
      19        0.000001555628     0.000002676875    -0.000003538840
      20        0.000001237308    -0.000004555987     0.000002129355
      21       -0.000001435846     0.000000818737    -0.000001020886

  **** Optimization is complete! (in 8 steps) ****
    Final optimized geometry and variables:
    Molecular point group: c1

    Geometry (in Angstrom), charge = 0, multiplicity = 1:

    H           -2.989810020913    -2.544780304649    -0.624525251753
    O           -2.898719462865    -1.615914600456    -0.519594073343
    C           -1.570217466045    -1.295941823010    -0.195564133688
    C           -1.487820434279     0.216183967358    -0.062304128917
    H           -1.286274632177    -1.774431398608     0.738814460522
    H           -0.898588072753    -1.656837131028    -0.968219740423
    C           -0.115162496066     0.788225394544     0.358237309297
    H           -2.225116887507     0.478182009310     0.687164622499
    H           -1.810956454635     0.646325364486    -1.002535653871
    C            1.109974820534    -0.097864918967     0.116980594118
    H            0.020721683362     1.742123514598    -0.135343395898
    H           -0.145633635048     1.008397112772     1.421835386057
    C            2.424941463923     0.521739786198     0.596582339678
    H            1.199854485555    -0.334635109755    -0.940720339854
    H            0.977415671554    -1.042955580374     0.631563301957
    C            2.881124807881     1.748404267066    -0.189833485674
    H            3.200641085161    -0.235503033556     0.535882262799
    H            2.336627790711     0.779933258645     1.648667732644
    H            2.971292873435     1.521047314485    -1.247267421587
    H            2.192215203387     2.577819196758    -0.087544910846
    H            3.850443719236     2.087323701400     0.157530092353

  Mulliken Charges: (a.u.)
   Center  Symbol    Alpha    Beta     Spin     Total
       1     H     0.39752  0.39752  0.00000  0.20496
       2     O     4.19580  4.19580  0.00000 -0.39160
       3     C     2.96953  2.96953  0.00000  0.06093
       4     C     3.08742  3.08742  0.00000 -0.17484
       5     H     0.47234  0.47234  0.00000  0.05532
       6     H     0.47096  0.47096  0.00000  0.05808
       7     C     3.10670  3.10670  0.00000 -0.21340
       8     H     0.44804  0.44804  0.00000  0.10392
       9     H     0.44877  0.44877  0.00000  0.10247
      10     C     3.10443  3.10443  0.00000 -0.20885
      11     H     0.44660  0.44660  0.00000  0.10679
      12     H     0.45262  0.45262  0.00000  0.09476
      13     C     3.09038  3.09038  0.00000 -0.18076
      14     H     0.45235  0.45235  0.00000  0.09531
      15     H     0.44662  0.44662  0.00000  0.10676
      16     C     3.15179  3.15179  0.00000 -0.30358
      17     H     0.44856  0.44856  0.00000  0.10289
      18     H     0.45453  0.45453  0.00000  0.09094
      19     H     0.45505  0.45505  0.00000  0.08991
      20     H     0.45343  0.45343  0.00000  0.09313
      21     H     0.44657  0.44657  0.00000  0.10687

   Total alpha = 29.00000, Total beta = 29.00000, Total charge = -0.00000

*** Psi4 exiting successfully. Buy a developer a beer!
