  ==> Input File <==

--------------------------------------------------------------------------
set {
	reference rhf
	basis cc-pvtz
}

set_num_threads( 4 )
memory 2 gb

molecule MOL {
0 1

H	 -3.034039	 -0.667848	 0.004703
O	 -2.240597	 -1.171748	 0.000934
C	 -1.159675	 -0.364500	 0.000370
C	 0.119249	 -0.840127	 -0.205901
C	 -1.376784	 0.987186	 0.219144
H	 0.290043	 -1.887853	 -0.373708
C	 1.178241	 0.051217	 -0.189506
H	 -2.382812	 1.324084	 0.378337
C	 -0.319868	 1.874948	 0.232807
H	 2.175044	 -0.315490	 -0.346609
C	 0.969678	 1.394433	 0.027470
C	 -0.558427	 3.348319	 0.447081
H	 1.802416	 2.071824	 0.039679
H	 0.173452	 3.765689	 1.127506
H	 -1.543149	 3.533033	 0.854449
H	 -0.479168	 3.888382	 -0.490305

	symmetry c1
}
set optking {
	frozen_dihedral = ("
		5 3 2 1
	")
}

ee = optimize('scf')
oeprop('DIPOLE', 'QUADRUPOLE', 'MULLIKEN_CHARGES')
f=open( 'psi4out.xyz', 'w' )
f.write( "16  " )
f.write( str(ee) + "\n" )
f.write( MOL.save_string_xyz() )
f.close()
--------------------------------------------------------------------------

    Molecular point group: c1
  Charge       = 0
  Multiplicity = 1
  Basis Set: CC-PVTZ
  Basis Set:
  @DF-RHF Final Energy:  -344.71858628503452
    Total Energy =                       -344.7185862850341209
    Molecular point group: c1
  Basis Set: CC-PVTZ
  Basis Set:
  Basis Set: CC-PVTZ
  Basis Set:
  @DF-RHF Final Energy:  -344.72033747489661
    Total Energy =                       -344.7203374748965530
  Basis Set: CC-PVTZ
  Basis Set:
  Basis Set: CC-PVTZ
  Basis Set:
  @DF-RHF Final Energy:  -344.72048638384734
    Total Energy =                       -344.7204863838473443
  Basis Set: CC-PVTZ
  Basis Set:
  Basis Set: CC-PVTZ
  Basis Set:
  @DF-RHF Final Energy:  -344.72050693843437
    Total Energy =                       -344.7205069384341982
  Basis Set: CC-PVTZ
  Basis Set:
  @DF-RHF Final Energy:  -344.72051460790442
    Total Energy =                       -344.7205146079042493
  @DF-RHF Final Energy:  -344.72051881795210
    Total Energy =                       -344.7205188179520974
  @DF-RHF Final Energy:  -344.72053405011519
    Total Energy =                       -344.7205340501151341
  @DF-RHF Final Energy:  -344.72057187380409
    Total Energy =                       -344.7205718738042037
  @DF-RHF Final Energy:  -344.72059439049508
    Total Energy =                       -344.7205943904946253
  @DF-RHF Final Energy:  -344.72060943383070
    Total Energy =                       -344.7206094338304183
  @DF-RHF Final Energy:  -344.72061737133617
    Total Energy =                       -344.7206173713359476
  Basis Set: CC-PVTZ
  Basis Set:
  @DF-RHF Final Energy:  -344.72062402770382
    Total Energy =                       -344.7206240277037637
  Basis Set: CC-PVTZ
  Basis Set:
  Basis Set: CC-PVTZ
  Basis Set:
  @DF-RHF Final Energy:  -344.72062911702824
    Total Energy =                       -344.7206291170282952
  Basis Set: CC-PVTZ
  Basis Set:
  Basis Set: CC-PVTZ
  Basis Set:
  @DF-RHF Final Energy:  -344.72063264967380
    Total Energy =                       -344.7206326496739734
  Basis Set: CC-PVTZ
  Basis Set:
  Charge       = 0
  Multiplicity = 1
  Basis Set: CC-PVTZ
  Basis Set:

    Orbital Energies (a.u.)
    -----------------------

    Doubly Occupied:

       1A    -20.582976     2A    -11.295443     3A    -11.242234
       4A    -11.231008     5A    -11.221632     6A    -11.219075
       7A    -11.215029     8A    -11.213146     9A     -1.413641
      10A     -1.154494    11A     -1.047749    12A     -1.006786
      13A     -0.941019    14A     -0.845464    15A     -0.802701
      16A     -0.732955    17A     -0.683815    18A     -0.651896
      19A     -0.601769    20A     -0.597068    21A     -0.581497
      22A     -0.573820    23A     -0.569975    24A     -0.537372
      25A     -0.506892    26A     -0.484711    27A     -0.472684
      28A     -0.333851    29A     -0.310707

  @DF-RHF Final Energy:  -344.72063332758768

   => Energetics <=

    Nuclear Repulsion Energy =            346.4374054208554412
    One-Electron Energy =               -1154.1732528639872726
    Two-Electron Energy =                 463.0152141155440972
    DFT Exchange-Correlation Energy =       0.0000000000000000
    Empirical Dispersion Energy =           0.0000000000000000
    PCM Polarization Energy =               0.0000000000000000
    EFP Energy =                            0.0000000000000000
    Total Energy =                       -344.7206333275877910
    Molecular point group: c1
  Basis Set: CC-PVTZ
  Basis Set:

  -Total Gradient:
     Atom            X                  Y                   Z
    ------   -----------------  -----------------  -----------------
       1        0.000051584957     0.000011056140    -0.000969572880
       2       -0.000051108497    -0.000078502302     0.001601717722
       3       -0.000045806034     0.000154122137    -0.001343460156
       4        0.000009670639     0.000009476180    -0.000014708040
       5        0.000034686418    -0.000103681790     0.000766169871
       6       -0.000009096256    -0.000002046476    -0.000000655392
       7        0.000002535131     0.000013469977     0.000028642930
       8        0.000004954552    -0.000000986201    -0.000005991420
       9       -0.000015379312     0.000012997855    -0.000102804517
      10       -0.000001109122     0.000000768571    -0.000003452927
      11        0.000007705685    -0.000021288510     0.000003496661
      12       -0.000005106470    -0.000003819319     0.000010675827
      13       -0.000000664289     0.000008937053    -0.000001746281
      14        0.000007292251     0.000004472802     0.000016693424
      15       -0.000008651804     0.000005926311     0.000005470719
      16        0.000018492152    -0.000010902426     0.000009524459

  **** Optimization is complete! (in 15 steps) ****
    Final optimized geometry and variables:
    Molecular point group: c1

    Geometry (in Angstrom), charge = 0, multiplicity = 1:

    H           -2.544622874999    -1.415937815306    -0.211260091894
    O           -1.719480465826    -1.864694954681    -0.174811529401
    C           -0.696685425214    -0.986683338580    -0.111029066278
    C            0.588256300633    -1.489692692308    -0.244674853610
    C           -0.897601734381     0.362042790714     0.099194771620
    H            0.727380137374    -2.540555631198    -0.403693013484
    C            1.653053378230    -0.622924190720    -0.167727542739
    H           -1.899875036953     0.737988754822     0.210919814015
    C            0.179275419955     1.237643610650     0.170986283057
    H            2.651020706711    -1.005686643680    -0.269497976805
    C            1.458791457660     0.734445056685     0.037398209213
    C           -0.064208633615     2.710023699822     0.386629529433
    H            2.304027001594     1.393086034721     0.093545202249
    H            0.864587782951     3.241013710470     0.543596540180
    H           -0.697583451419     2.877783331918     1.249850403857
    H           -0.559178251531     3.149315824122    -0.472491468582

  Mulliken Charges: (a.u.)
   Center  Symbol    Alpha    Beta     Spin     Total
       1     H     0.38691  0.38691  0.00000  0.22619
       2     O     4.17528  4.17528  0.00000 -0.35055
       3     C     2.83887  2.83887  0.00000  0.32227
       4     C     3.12396  3.12396  0.00000 -0.24793
       5     C     3.15405  3.15405  0.00000 -0.30809
       6     H     0.41968  0.41968  0.00000  0.16064
       7     C     3.04714  3.04714  0.00000 -0.09428
       8     H     0.43730  0.43730  0.00000  0.12541
       9     C     2.94598  2.94598  0.00000  0.10805
      10     H     0.42325  0.42325  0.00000  0.15349
      11     C     3.12621  3.12621  0.00000 -0.25242
      12     C     3.14936  3.14936  0.00000 -0.29871
      13     H     0.42675  0.42675  0.00000  0.14649
      14     H     0.44958  0.44958  0.00000  0.10084
      15     H     0.44833  0.44833  0.00000  0.10335
      16     H     0.44737  0.44737  0.00000  0.10526

   Total alpha = 29.00000, Total beta = 29.00000, Total charge =  0.00000
