  ==> Input File <==

--------------------------------------------------------------------------
set {
	reference rhf
	basis cc-pvtz
}

set_num_threads( 4 )
memory 2 gb

molecule MOL {
0 1

H	 -2.266619	 1.169943	 0.000098
O	 -1.438073	 1.611259	 0.000041
C	 -0.408657	 0.734701	 0.000005
C	 0.340282	 0.650967	 -1.159084
C	 -0.105416	 -0.051753	 1.105286
H	 0.074457	 1.274477	 -1.990049
C	 1.405087	 -0.222077	 -1.229467
C	 0.969729	 -0.919976	 1.006394
C	 -0.923676	 0.040813	 2.369440
H	 1.981992	 -0.281677	 -2.132578
C	 1.726530	 -1.014388	 -0.144411
H	 1.216988	 -1.534654	 1.851972
H	 -1.964795	 -0.216323	 2.195451
H	 -0.545858	 -0.639245	 3.119251
H	 -0.895303	 1.039709	 2.795735
H	 2.553442	 -1.695804	 -0.191923

	symmetry c1
}
set optking {
	frozen_dihedral = ("
		4 3 2 1
	")
}

ee = optimize('scf')
oeprop('DIPOLE', 'QUADRUPOLE', 'MULLIKEN_CHARGES')
f=open( 'psi4out.xyz', 'w' )
f.write( "16  " )
f.write( str(ee) + "\n" )
f.write( MOL.save_string_xyz() )
f.close()
--------------------------------------------------------------------------

    Molecular point group: c1
  Charge       = 0
  Multiplicity = 1
  Basis Set: CC-PVTZ
  Basis Set:
  @DF-RHF Final Energy:  -344.71574958847702
    Total Energy =                       -344.7157495884770242
    Molecular point group: c1
  Basis Set: CC-PVTZ
  Basis Set:
  Basis Set: CC-PVTZ
  Basis Set:
  @DF-RHF Final Energy:  -344.71639949394955
    Total Energy =                       -344.7163994939501208
  Basis Set: CC-PVTZ
  Basis Set:
  Basis Set: CC-PVTZ
  Basis Set:
  @DF-RHF Final Energy:  -344.71646942547665
    Total Energy =                       -344.7164694254764754
  Basis Set: CC-PVTZ
  Basis Set:
  Basis Set: CC-PVTZ
  Basis Set:
  @DF-RHF Final Energy:  -344.71648330597537
    Total Energy =                       -344.7164833059754301
  Basis Set: CC-PVTZ
  Basis Set:
  Basis Set: CC-PVTZ
  Basis Set:
  @DF-RHF Final Energy:  -344.71648643749887
    Total Energy =                       -344.7164864374987019
  Basis Set: CC-PVTZ
  Basis Set:
  Charge       = 0
  Multiplicity = 1
  Basis Set: CC-PVTZ
  Basis Set:

    Orbital Energies (a.u.)
    -----------------------

    Doubly Occupied:

       1A    -20.571019     2A    -11.283309     3A    -11.234068
       4A    -11.226961     5A    -11.226685     6A    -11.222473
       7A    -11.221847     8A    -11.221840     9A     -1.397600
      10A     -1.153692    11A     -1.049081    12A     -1.007294
      13A     -0.937495    14A     -0.830426    15A     -0.812955
      16A     -0.730455    17A     -0.673220    18A     -0.656266
      19A     -0.625432    20A     -0.595080    21A     -0.574077
      22A     -0.570487    23A     -0.548700    24A     -0.524477
      25A     -0.503344    26A     -0.488131    27A     -0.467842
      28A     -0.333459    29A     -0.321416

  @DF-RHF Final Energy:  -344.71648695471708

   => Energetics <=

    Nuclear Repulsion Energy =            350.5388368550482028
    One-Electron Energy =               -1162.4923863311366858
    Two-Electron Energy =                 467.2370625213711719
    DFT Exchange-Correlation Energy =       0.0000000000000000
    Empirical Dispersion Energy =           0.0000000000000000
    PCM Polarization Energy =               0.0000000000000000
    EFP Energy =                            0.0000000000000000
    Total Energy =                       -344.7164869547173112
    Molecular point group: c1
  Basis Set: CC-PVTZ
  Basis Set:

  -Total Gradient:
     Atom            X                  Y                   Z
    ------   -----------------  -----------------  -----------------
       1       -0.000015493138     0.000059475620    -0.001263349015
       2       -0.000310242563    -0.000336693345     0.001411467699
       3        0.000912375740     0.000876335993     0.000195718418
       4       -0.000612167913    -0.000587382633    -0.000363186208
       5       -0.000007515277    -0.000002128423     0.000012805839
       6        0.000004771802    -0.000009333246     0.000015787605
       7        0.000021287047    -0.000032885970     0.000014045623
       8       -0.000033475569     0.000046037274     0.000018184206
       9        0.000002173211    -0.000011636919    -0.000025400085
      10        0.000007993714    -0.000003385811    -0.000005672085
      11        0.000021514509     0.000004943110    -0.000030095697
      12        0.000000746632    -0.000006165600     0.000006983287
      13       -0.000001015826     0.000009287076    -0.000007110747
      14       -0.000001724597    -0.000006981640     0.000009670623
      15        0.000018827851    -0.000001352736     0.000009835026
      16       -0.000008055621     0.000001867253     0.000000315510

  **** Optimization is complete! (in 6 steps) ****
    Final optimized geometry and variables:
    Molecular point group: c1

    Geometry (in Angstrom), charge = 0, multiplicity = 1:

    H           -2.385656629679     1.051700099311    -0.226157827268
    O           -1.552626488143     1.489746362745    -0.221902638615
    C           -0.527745477100     0.584843549008    -0.276893005388
    C            0.221051145552     0.506711235668    -1.431986967569
    C           -0.230882017063    -0.204031845532     0.827961173480
    H           -0.038423363260     1.139197641101    -2.258441471055
    C            1.290008360884    -0.366495403947    -1.506113356563
    C            0.839852078799    -1.076317633865     0.729388232880
    C           -1.051545546958    -0.100062054533     2.087220726367
    H            1.872936174815    -0.422205948103    -2.405394754667
    C            1.599033937884    -1.163053400595    -0.423363706807
    H            1.087545279836    -1.694679645693     1.571920342288
    H           -2.071830154601    -0.435282786256     1.927767861773
    H           -0.626410731049    -0.709608090548     2.872698015384
    H           -1.100974340278     0.923874873482     2.435286172164
    H            2.426218479091    -1.844908595830    -0.469900707442

  Mulliken Charges: (a.u.)
   Center  Symbol    Alpha    Beta     Spin     Total
       1     H     0.38835  0.38835  0.00000  0.22330
       2     O     4.18840  4.18840  0.00000 -0.37679
       3     C     2.88431  2.88431  0.00000  0.23138
       4     C     3.10691  3.10691  0.00000 -0.21383
       5     C     2.99748  2.99748  0.00000  0.00505
       6     H     0.41756  0.41756  0.00000  0.16488
       7     C     3.07562  3.07562  0.00000 -0.15124
       8     C     3.09299  3.09299  0.00000 -0.18599
       9     C     3.15079  3.15079  0.00000 -0.30158
      10     H     0.42209  0.42209  0.00000  0.15581
      11     C     3.08012  3.08012  0.00000 -0.16024
      12     H     0.42470  0.42470  0.00000  0.15060
      13     H     0.45613  0.45613  0.00000  0.08774
      14     H     0.45054  0.45054  0.00000  0.09892
      15     H     0.43993  0.43993  0.00000  0.12014
      16     H     0.42408  0.42408  0.00000  0.15184

   Total alpha = 29.00000, Total beta = 29.00000, Total charge = -0.00000
