  ==> Input File <==

--------------------------------------------------------------------------
set {
	reference rhf
	basis 6-31G*
}

set_num_threads( 4 )
memory 2 gb

molecule MOL {
0 1

H	 3.893188	 0.355400	 -0.101367
N	 3.092854	 -0.246221	 -0.068770
C	 1.865559	 0.531981	 0.018834
H	 3.199514	 -0.826043	 0.741946
C	 0.645745	 -0.382037	 -0.029944
H	 1.841966	 1.207024	 -0.831236
H	 1.815756	 1.155410	 0.915079
C	 -0.679275	 0.379305	 0.025956
H	 0.698998	 -0.976915	 -0.937203
H	 0.693479	 -1.083846	 0.802235
C	 -1.901500	 -0.540046	 0.062464
H	 -0.753660	 1.037904	 -0.838083
H	 -0.691847	 1.025159	 0.902633
C	 -3.223448	 0.224998	 0.114159
H	 -1.891770	 -1.185360	 -0.813144
H	 -1.831249	 -1.197623	 0.926358
H	 -3.339167	 0.866863	 -0.754712
H	 -4.070455	 -0.453665	 0.138630
H	 -3.278276	 0.854216	 0.998167

	symmetry c1
}
set optking {
	frozen_dihedral = ("
		12 8 5 9
	")
}

ee = optimize('scf')
oeprop('DIPOLE', 'QUADRUPOLE', 'MULLIKEN_CHARGES')
f=open( 'psi4out.xyz', 'w' )
f.write( "19  " )
f.write( str(ee) + "\n" )
f.write( MOL.save_string_xyz() )
f.close()
--------------------------------------------------------------------------

    Molecular point group: c1
  Charge       = 0
  Multiplicity = 1
  Basis Set: 6-31G*
  Basis Set:
  @DF-RHF Final Energy:  -251.35169716633754
    Total Energy =                       -251.3516971663377149
    Molecular point group: c1
  Basis Set: 6-31G*
  Basis Set:
  Basis Set: 6-31G*
  Basis Set:
  @DF-RHF Final Energy:  -251.35169907351653
    Total Energy =                       -251.3516990735163290
  Basis Set: 6-31G*
  Basis Set:
  Basis Set: 6-31G*
  Basis Set:
  @DF-RHF Final Energy:  -251.35170367136931
    Total Energy =                       -251.3517036713693642
  Basis Set: 6-31G*
  Basis Set:
  Charge       = 0
  Multiplicity = 1
  Basis Set: 6-31G*
  Basis Set:

    Orbital Energies (a.u.)
    -----------------------

    Doubly Occupied:

       1A    -15.532468     2A    -11.239701     3A    -11.213949
       4A    -11.212753     5A    -11.209474     6A    -11.207502
       7A     -1.176568     8A     -1.072944     9A     -0.998373
      10A     -0.900155    11A     -0.812875    12A     -0.789227
      13A     -0.664869    14A     -0.642067    15A     -0.616480
      16A     -0.589050    17A     -0.564311    18A     -0.548081
      19A     -0.530789    20A     -0.498078    21A     -0.481094
      22A     -0.464889    23A     -0.461329    24A     -0.449480
      25A     -0.380959

  @DF-RHF Final Energy:  -251.35170456014723

   => Energetics <=

    Nuclear Repulsion Energy =            245.6474570965130226
    One-Electron Energy =                -825.4833941931390200
    Two-Electron Energy =                 328.4842325364787712
    DFT Exchange-Correlation Energy =       0.0000000000000000
    Empirical Dispersion Energy =           0.0000000000000000
    PCM Polarization Energy =               0.0000000000000000
    EFP Energy =                            0.0000000000000000
    Total Energy =                       -251.3517045601472546
    Molecular point group: c1
  Basis Set: 6-31G*
  Basis Set:

  -Total Gradient:
     Atom            X                  Y                   Z
    ------   -----------------  -----------------  -----------------
       1       -0.000002485900    -0.000001469218     0.000004457570
       2        0.000008522116     0.000006400125     0.000011641820
       3       -0.000005552706    -0.000013115211    -0.000021889863
       4        0.000005877508    -0.000003138058     0.000000742332
       5       -0.000421665410    -0.000727993446     0.000279899678
       6       -0.000000133267     0.000001108716    -0.000001479276
       7        0.000005922262     0.000006277046    -0.000001567055
       8        0.000419451137     0.000698556217     0.000319491759
       9        0.000265629295     0.000498460739    -0.000313668513
      10        0.000006556526     0.000014635879     0.000011703373
      11        0.000003190355     0.000003291332     0.000036361347
      12       -0.000254367188    -0.000458596177    -0.000329280382
      13       -0.000017745855    -0.000014294688     0.000010700057
      14       -0.000002717622    -0.000002620169    -0.000016832289
      15        0.000000169939     0.000003079177     0.000004863537
      16       -0.000010105299    -0.000009154920     0.000003945988
      17        0.000001740156     0.000005319860     0.000004307951
      18       -0.000001674377    -0.000000629949    -0.000007708044
      19       -0.000000611672    -0.000006117255     0.000004310009

  **** Optimization is complete! (in 4 steps) ****
    Final optimized geometry and variables:
    Molecular point group: c1

    Geometry (in Angstrom), charge = 0, multiplicity = 1:

    H            3.891615164204     0.357866272495    -0.146258939538
    N            3.091940383944    -0.244404400024    -0.109765784913
    C            1.864928257513     0.532662982208    -0.008585095244
    H            3.205654899300    -0.827728962827     0.697510440920
    C            0.644992097730    -0.382039518963    -0.049392486728
    H            1.833245526822     1.210787683018    -0.856035911203
    H            1.822884666329     1.152850490709     0.890228576279
    C           -0.679346839776     0.380517628483     0.008175352512
    H            0.696006439297    -0.975594131052    -0.957515776329
    H            0.696961991860    -1.081935897411     0.784009263661
    C           -1.902144973385    -0.538788118371     0.037058547059
    H           -0.752186882484     1.039451990615    -0.855572395910
    H           -0.694850520841     1.023058287685     0.887159239063
    C           -3.224378541898     0.226477134166     0.076285568168
    H           -1.885496195295    -1.186118590062    -0.836971195610
    H           -1.839023941932    -1.194404565203     0.902967794209
    H           -3.333250246669     0.866071758890    -0.795105189618
    H           -4.071667415866    -0.452054891910     0.095914236470
    H           -3.286084190222     0.858018294996     0.958211772606

  Mulliken Charges: (a.u.)
   Center  Symbol    Alpha    Beta     Spin     Total
       1     H     0.33249  0.33249  0.00000  0.33503
       2     N     3.92191  3.92191  0.00000 -0.84382
       3     C     3.06024  3.06024  0.00000 -0.12049
       4     H     0.33538  0.33538  0.00000  0.32924
       5     C     3.15164  3.15164  0.00000 -0.30327
       6     H     0.42091  0.42091  0.00000  0.15818
       7     H     0.43478  0.43478  0.00000  0.13045
       8     C     3.15487  3.15487  0.00000 -0.30974
       9     H     0.41294  0.41294  0.00000  0.17413
      10     H     0.42770  0.42770  0.00000  0.14460
      11     C     3.15091  3.15091  0.00000 -0.30182
      12     H     0.42336  0.42336  0.00000  0.15328
      13     H     0.42486  0.42486  0.00000  0.15028
      14     C     3.23930  3.23930  0.00000 -0.47861
      15     H     0.42192  0.42192  0.00000  0.15617
      16     H     0.42336  0.42336  0.00000  0.15328
      17     H     0.42177  0.42177  0.00000  0.15646
      18     H     0.41938  0.41938  0.00000  0.16124
      19     H     0.42229  0.42229  0.00000  0.15541

   Total alpha = 25.00000, Total beta = 25.00000, Total charge =  0.00000
