                              Psi4 1.0.54 Driver

  ==> Input File <==

--------------------------------------------------------------------------
set {
	reference rhf
	basis cc-pvtz
}

set_num_threads( 4 )
memory 2 gb

molecule MOL {
0 1

O	 -0.608335	 0.511071	 -1.936652
C	 -0.953471	 0.828232	 -0.849733
C	 -1.799593	 2.029933	 -0.535973
O	 -0.637375	 0.157174	 0.243149
H	 -1.261758	 2.688141	 0.134264
H	 -2.043149	 2.548548	 -1.448857
H	 -2.704670	 1.716044	 -0.032111
C	 0.162530	 -1.009518	 0.097799
C	 1.587210	 -0.664190	 0.477086
H	 0.096803	 -1.356267	 -0.924704
H	 -0.233803	 -1.785900	 0.736810
C	 2.256770	 0.342732	 -0.454344
H	 2.154716	 -1.590834	 0.479041
H	 1.598751	 -0.289614	 1.496104
C	 3.698146	 0.643205	 -0.057145
H	 2.235038	 -0.042575	 -1.470299
H	 1.683491	 1.262594	 -0.461300
H	 4.150202	 1.356548	 -0.736242
H	 4.305463	 -0.255904	 -0.069842
H	 3.749130	 1.061068	 0.942759

	symmetry c1
}
set optking {
	frozen_dihedral = ("
		2 4 8 10
	")
}

ee,wfn = optimize('scf', return_wfn=True)
oeprop( wfn, 'DIPOLE', 'QUADRUPOLE', 'MULLIKEN_CHARGES')
f=open( 'psi4out.xyz', 'w' )
f.write( "20  " )
f.write( str(ee) + "\n" )
f.write( MOL.save_string_xyz() )
f.close()
--------------------------------------------------------------------------

    Molecular point group: c1
  Charge       = 0
  Multiplicity = 1
  Basis Set: CC-PVTZ
  Basis Set:
  @DF-RHF Final Energy:  -384.08323306118353
    Total Energy =                       -384.0832330611840462
    Molecular point group: c1
  Basis Set: CC-PVTZ
  Basis Set:
  Basis Set: CC-PVTZ
  Basis Set:
  @DF-RHF Final Energy:  -384.08451108524105
    Total Energy =                       -384.0845110852413882
  Basis Set: CC-PVTZ
  Basis Set:
  Basis Set: CC-PVTZ
  Basis Set:
  @DF-RHF Final Energy:  -384.08174646551885
    Total Energy =                       -384.0817464655187905
  Basis Set: CC-PVTZ
  Basis Set:
  Basis Set: CC-PVTZ
  Basis Set:
  @DF-RHF Final Energy:  -384.08503679585340
    Total Energy =                       -384.0850367958535116
  Basis Set: CC-PVTZ
  Basis Set:
  Basis Set: CC-PVTZ
  Basis Set:
  @DF-RHF Final Energy:  -384.08516212518020
    Total Energy =                       -384.0851621251802044
  Basis Set: CC-PVTZ
  Basis Set:
  Basis Set: CC-PVTZ
  Basis Set:
  @DF-RHF Final Energy:  -384.08519523801658
    Total Energy =                       -384.0851952380165812
  Basis Set: CC-PVTZ
  Basis Set:
  Basis Set: CC-PVTZ
  Basis Set:
  @DF-RHF Final Energy:  -384.08519926727814
    Total Energy =                       -384.0851992672779716
  Basis Set: CC-PVTZ
  Basis Set:
  Charge       = 0
  Multiplicity = 1
  Basis Set: CC-PVTZ
  Basis Set:

    Orbital Energies (a.u.)
    -----------------------

    Doubly Occupied:

       1A    -20.593180     2A    -20.531909     3A    -11.367805
       4A    -11.279319     5A    -11.231111     6A    -11.222106
       7A    -11.215711     8A    -11.209131     9A     -1.468434
      10A     -1.365321    11A     -1.083951    12A     -1.029106
      13A     -0.980815    14A     -0.887356    15A     -0.808873
      16A     -0.769166    17A     -0.696257    18A     -0.684479
      19A     -0.664808    20A     -0.630294    21A     -0.603083
      22A     -0.594108    23A     -0.572751    24A     -0.548692
      25A     -0.547792    26A     -0.531279    27A     -0.504948
      28A     -0.497251    29A     -0.474818    30A     -0.469652
      31A     -0.443850    32A     -0.440227

  @DF-RHF Final Energy:  -384.08519994118632

   => Energetics <=

    Nuclear Repulsion Energy =            393.7087651001430118
    One-Electron Energy =               -1303.6927665877637992
    Two-Electron Energy =                 525.8988015464341288
    DFT Exchange-Correlation Energy =       0.0000000000000000
    Empirical Dispersion Energy =           0.0000000000000000
    PCM Polarization Energy =               0.0000000000000000
    EFP Energy =                            0.0000000000000000
    Total Energy =                       -384.0851999411867155
    Molecular point group: c1
  Basis Set: CC-PVTZ
  Basis Set:

  -Total Gradient:
     Atom            X                  Y                   Z
    ------   -----------------  -----------------  -----------------
       1        0.000019267427    -0.000015396257    -0.000043244379
       2        0.000630323224     0.000499951208     0.000077271596
       3        0.000002629492     0.000008075540    -0.000002949609
       4       -0.001152254078    -0.000829772337     0.000010482175
       5       -0.000001699612     0.000006548532     0.000009669365
       6        0.000007473409    -0.000012728966     0.000006392515
       7       -0.000004164780     0.000000592928     0.000002934134
       8        0.001167789930     0.000919280648    -0.000343961419
       9       -0.000006469020     0.000005359105    -0.000008405263
      10       -0.000672414169    -0.000568043368     0.000283067083
      11        0.000009003346     0.000004121275     0.000000788606
      12        0.000007805860    -0.000007119590     0.000000831916
      13        0.000006419212    -0.000006293788     0.000004041531
      14       -0.000000053900    -0.000003521878     0.000004736813
      15       -0.000000058598    -0.000003638008     0.000003125215
      16        0.000000058804     0.000004830411    -0.000006041300
      17       -0.000011511952     0.000000802127    -0.000001821239
      18       -0.000005226686    -0.000004188322     0.000002897860
      19        0.000001246219    -0.000001035231     0.000000222340
      20        0.000001835870     0.000002175972    -0.000000037942

  **** Optimization is complete! (in 8 steps) ****
    Final optimized geometry and variables:
    Molecular point group: c1

    Geometry (in Angstrom), charge = 0, multiplicity = 1:

    O           -1.258989495863     0.164196292609    -1.533990388974
    C           -1.519150975100     0.444329739187    -0.413947653846
    C           -2.409254932296     1.585047775411    -0.007059475777
    O           -1.068420810291    -0.209103251011     0.642919422410
    H           -1.859420587076     2.265295919937     0.630517143032
    H           -2.760993143522     2.100718298436    -0.885678851130
    H           -3.246775343451     1.205189162632     0.563631106018
    C           -0.203670639898    -1.328298785475     0.475186766277
    C            1.235739394041    -0.980107675546     0.807461919593
    H           -0.303406233103    -1.709319614589    -0.528450403777
    H           -0.569864156361    -2.073286683259     1.167079538295
    C            1.903695156463     0.001209450164    -0.151588641570
    H            1.793180144648    -1.913562866698     0.813769132439
    H            1.274531319982    -0.589849116656     1.820252255816
    C            3.361156170247     0.266727219361     0.210781067434
    H            1.842040313105    -0.384384371897    -1.163702704980
    H            1.360195082346     0.939635092102    -0.151611547873
    H            3.813164764378     0.968352570971    -0.480316586991
    H            3.945451197021    -0.647149057777     0.183221544943
    H            3.448094662476     0.683140525563     1.209019776703

  Mulliken Charges: (a.u.)
   Center  Symbol    Alpha    Beta     Spin     Total
       1     O     4.19839  4.19839  0.00000 -0.39677
       2     C     2.80297  2.80297  0.00000  0.39405
       3     C     3.13829  3.13829  0.00000 -0.27657
       4     O     4.16098  4.16098  0.00000 -0.32196
       5     H     0.44700  0.44700  0.00000  0.10599
       6     H     0.43835  0.43835  0.00000  0.12330
       7     H     0.44507  0.44507  0.00000  0.10985
       8     C     2.99825  2.99825  0.00000  0.00349
       9     C     3.08700  3.08700  0.00000 -0.17401
      10     H     0.44329  0.44329  0.00000  0.11342
      11     H     0.44132  0.44132  0.00000  0.11736
      12     C     3.08826  3.08826  0.00000 -0.17653
      13     H     0.45307  0.45307  0.00000  0.09387
      14     H     0.45264  0.45264  0.00000  0.09472
      15     C     3.15003  3.15003  0.00000 -0.30006
      16     H     0.44536  0.44536  0.00000  0.10928
      17     H     0.45214  0.45214  0.00000  0.09571
      18     H     0.44666  0.44666  0.00000  0.10669
      19     H     0.45522  0.45522  0.00000  0.08956
      20     H     0.45570  0.45570  0.00000  0.08859

   Total alpha = 32.00000, Total beta = 32.00000, Total charge =  0.00000

*** Psi4 exiting successfully. Buy a developer a beer!
