  ==> Input File <==

--------------------------------------------------------------------------
set {
	reference rhf
	basis 6-31G*
}

set_num_threads( 1 )
memory 2 gb

molecule MOL {
0 1

H	 -2.698709	 -0.000305	 0.034435
C	 -1.693833	 0.000034	 0.434417
O	 -0.828952	 -0.000968	 -0.659236
H	 -1.574200	 0.882896	 1.055746
H	 -1.574147	 -0.881698	 1.057355
C	 -1.322442	 -0.425131	 -1.908659
C	 -1.742120	 -1.893724	 -1.904184
C	 -2.420314	 0.490744	 -2.446068
H	 -0.461482	 -0.328121	 -2.559327
H	 -0.959755	 -2.507213	 -1.470495
H	 -1.916818	 -2.232811	 -2.920420
H	 -2.657129	 -2.057991	 -1.343881
H	 -2.107682	 1.527664	 -2.386771
H	 -2.623772	 0.255424	 -3.486114
H	 -3.351218	 0.381289	 -1.899005

	symmetry c1
}
set optking {
	frozen_dihedral = ("
		9 6 3 2
	")
}

ee = energy('scf')
oeprop('DIPOLE', 'QUADRUPOLE', 'MULLIKEN_CHARGES')
f=open( 'psi4out.xyz', 'w' )
f.write( "15  " )
f.write( str(ee) + "\n" )
f.write( MOL.save_string_xyz() )
f.close()
--------------------------------------------------------------------------

    Molecular point group: c1

    Geometry (in Angstrom), charge = 0, multiplicity = 1:

       Center              X                  Y                   Z               Mass
    ------------   -----------------  -----------------  -----------------  -----------------
           H         -1.085650483661     0.363552707911     1.309738156537     1.007825032070
           C         -0.080774483661     0.363891707911     1.709720156537    12.000000000000
           O          0.784106516339     0.362889707911     0.616067156537    15.994914619560
           H          0.038858516339     1.246753707911     2.331049156537     1.007825032070
           H          0.038911516339    -0.517840292089     2.332658156537     1.007825032070
           C          0.290616516339    -0.061273292089    -0.633355843463    12.000000000000
           C         -0.129061483661    -1.529866292089    -0.628880843463    12.000000000000
           C         -0.807255483661     0.854601707911    -1.170764843463    12.000000000000
           H          1.151576516339     0.035736707911    -1.284023843463     1.007825032070
           H          0.653303516339    -2.143355292089    -0.195191843463     1.007825032070
           H         -0.303759483661    -1.868953292089    -1.645116843463     1.007825032070
           H         -1.044070483661    -1.694133292089    -0.068577843463     1.007825032070
           H         -0.494623483661     1.891521707911    -1.111467843463     1.007825032070
           H         -1.010713483661     0.619281707911    -2.210810843463     1.007825032070
           H         -1.738159483661     0.745146707911    -0.623701843463     1.007825032070

  Charge       = 0
  Multiplicity = 1
  Basis Set: 6-31G*
  Basis Set:

    Orbital Energies (a.u.)
    -----------------------

    Doubly Occupied:

       1A    -20.545469     2A    -11.275627     3A    -11.261154
       4A    -11.211282     5A    -11.210770     6A     -1.369536
       7A     -1.050528     8A     -0.940178     9A     -0.931357
      10A     -0.781736    11A     -0.677613    12A     -0.638636
      13A     -0.632528    14A     -0.574380    15A     -0.564271
      16A     -0.550181    17A     -0.537169    18A     -0.501747
      19A     -0.497743    20A     -0.439246    21A     -0.404245

  @DF-RHF Final Energy:  -232.13341685081932

   => Energetics <=

    Nuclear Repulsion Energy =            198.9670583171092346
    One-Electron Energy =                -709.0100668977141822
    Two-Electron Energy =                 277.9095917297855181
    DFT Exchange-Correlation Energy =       0.0000000000000000
    Empirical Dispersion Energy =           0.0000000000000000
    PCM Polarization Energy =               0.0000000000000000
    EFP Energy =                            0.0000000000000000
    Total Energy =                       -232.1334168508194011

  Mulliken Charges: (a.u.)
   Center  Symbol    Alpha    Beta     Spin     Total
       1     H     0.43301  0.43301  0.00000  0.13397
       2     C     3.07591  3.07591  0.00000 -0.15182
       3     O     4.31469  4.31469  0.00000 -0.62938
       4     H     0.41709  0.41709  0.00000  0.16582
       5     H     0.42516  0.42516  0.00000  0.14969
       6     C     2.91153  2.91153  0.00000  0.17694
       7     C     3.25171  3.25171  0.00000 -0.50342
       8     C     3.25294  3.25294  0.00000 -0.50588
       9     H     0.41455  0.41455  0.00000  0.17089
      10     H     0.41117  0.41117  0.00000  0.17766
      11     H     0.41966  0.41966  0.00000  0.16067
      12     H     0.42189  0.42189  0.00000  0.15622
      13     H     0.41092  0.41092  0.00000  0.17815
      14     H     0.41901  0.41901  0.00000  0.16198
      15     H     0.42075  0.42075  0.00000  0.15849

   Total alpha = 21.00000, Total beta = 21.00000, Total charge = -0.00000
