  ==> Input File <==

--------------------------------------------------------------------------
set {
	reference rhf
	basis 6-31G*
}

set_num_threads( 4 )
memory 2 gb

molecule MOL {
0 1

H	 -2.798360	 -0.862255	 -0.071053
N	 -1.863561	 -0.715187	 0.256814
C	 -1.344686	 0.554728	 -0.219830
H	 -1.300452	 -1.461917	 -0.101532
C	 0.081427	 0.741154	 0.254071
H	 -1.362155	 0.656231	 -1.305829
H	 -1.952773	 1.354456	 0.191809
O	 0.874168	 -0.245412	 -0.342030
H	 0.444037	 1.730782	 -0.023037
H	 0.121165	 0.653424	 1.337565
C	 1.759650	 0.232848	 -1.303675
H	 2.311642	 -0.612798	 -1.690825
H	 1.232689	 0.714382	 -2.125513
H	 2.461208	 0.947214	 -0.877874

	symmetry c1
}
set optking {
	frozen_dihedral = ("
		11 8 5 3
	")
}

ee = optimize('scf')
oeprop('DIPOLE', 'QUADRUPOLE', 'MULLIKEN_CHARGES')
f=open( 'psi4out.xyz', 'w' )
f.write( "14  " )
f.write( str(ee) + "\n" )
f.write( MOL.save_string_xyz() )
f.close()
--------------------------------------------------------------------------

    Molecular point group: c1
  Charge       = 0
  Multiplicity = 1
  Basis Set: 6-31G*
  Basis Set:
  @DF-RHF Final Energy:  -248.12037581696984
    Total Energy =                       -248.1203758169698403
    Molecular point group: c1
  Basis Set: 6-31G*
  Basis Set:
  Basis Set: 6-31G*
  Basis Set:
  @DF-RHF Final Energy:  -248.12095242974937
    Total Energy =                       -248.1209524297493090
  Basis Set: 6-31G*
  Basis Set:
  Basis Set: 6-31G*
  Basis Set:
  @DF-RHF Final Energy:  -248.12108585067875
    Total Energy =                       -248.1210858506788668
  Basis Set: 6-31G*
  Basis Set:
  Basis Set: 6-31G*
  Basis Set:
  @DF-RHF Final Energy:  -248.12108835043384
    Total Energy =                       -248.1210883504336948
  Basis Set: 6-31G*
  Basis Set:
  Charge       = 0
  Multiplicity = 1
  Basis Set: 6-31G*
  Basis Set:

    Orbital Energies (a.u.)
    -----------------------

    Doubly Occupied:

       1A    -20.555263     2A    -15.528493     3A    -11.268478
       4A    -11.265913     5A    -11.241125     6A     -1.377503
       7A     -1.173835     8A     -0.997327     9A     -0.913797
      10A     -0.812840    11A     -0.682876    12A     -0.673815
      13A     -0.641357    14A     -0.617559    15A     -0.600733
      16A     -0.542229    17A     -0.531980    18A     -0.504847
      19A     -0.470968    20A     -0.414144    21A     -0.377987

  @DF-RHF Final Energy:  -248.12108888897623

   => Energetics <=

    Nuclear Repulsion Energy =            195.0605341771296537
    One-Electron Energy =                -723.9771028099314663
    Two-Electron Energy =                 280.7954797438254673
    DFT Exchange-Correlation Energy =       0.0000000000000000
    Empirical Dispersion Energy =           0.0000000000000000
    PCM Polarization Energy =               0.0000000000000000
    EFP Energy =                            0.0000000000000000
    Total Energy =                       -248.1210888889763737
    Molecular point group: c1
  Basis Set: 6-31G*
  Basis Set:

  -Total Gradient:
     Atom            X                  Y                   Z
    ------   -----------------  -----------------  -----------------
       1        0.000005359790     0.000015828988     0.000004301158
       2        0.000005234916     0.000021207746    -0.000008683188
       3       -0.000115287995    -0.000463284608     0.000580006171
       4        0.000003232216     0.000033429513     0.000005549071
       5        0.000433525066     0.000617244076    -0.000521240213
       6       -0.000011914563    -0.000009481466     0.000001364974
       7       -0.000024396299    -0.000013877738     0.000000474271
       8       -0.000891375892    -0.000352346032    -0.000675771819
       9       -0.000001737214    -0.000004655684    -0.000014518669
      10       -0.000007853288     0.000016302709     0.000014962841
      11        0.000605532873     0.000126560927     0.000618152927
      12        0.000002556113     0.000006626751    -0.000006473359
      13       -0.000003840258    -0.000000219379     0.000006829596
      14        0.000000964537     0.000006664196    -0.000004953761

  **** Optimization is complete! (in 5 steps) ****
    Final optimized geometry and variables:
    Molecular point group: c1

    Geometry (in Angstrom), charge = 0, multiplicity = 1:

    H           -2.703782706861    -0.988561758698     0.211043753226
    N           -1.774433997362    -0.822614112215     0.544848657096
    C           -1.278139694874     0.460640769970     0.082675654009
    H           -1.191997030021    -1.555624028377     0.188661255512
    C            0.159961394190     0.646269514516     0.532201593937
    H           -1.325913653166     0.583048618321    -1.002074988595
    H           -1.885967781083     1.246638506227     0.521649785423
    O            0.984704946021    -0.333955016650    -0.047192265447
    H            0.509026849953     1.642772884838     0.274378986777
    H            0.216467630391     0.532448736233     1.608124114210
    C            1.877089059492     0.118513331687    -1.016666937608
    H            2.418870353735    -0.741769206581    -1.385824947430
    H            1.364504888220     0.591851165375    -1.851799935908
    H            2.589196468749     0.828083090154    -0.601459607244

  Mulliken Charges: (a.u.)
   Center  Symbol    Alpha    Beta     Spin     Total
       1     H     0.33286  0.33286  0.00000  0.33427
       2     N     3.92458  3.92458  0.00000 -0.84916
       3     C     3.06534  3.06534  0.00000 -0.13067
       4     H     0.32373  0.32373  0.00000  0.35254
       5     C     2.99673  2.99673  0.00000  0.00654
       6     H     0.43376  0.43376  0.00000  0.13248
       7     H     0.42199  0.42199  0.00000  0.15601
       8     O     4.31122  4.31122  0.00000 -0.62243
       9     H     0.42902  0.42902  0.00000  0.14197
      10     H     0.41020  0.41020  0.00000  0.17961
      11     C     3.07940  3.07940  0.00000 -0.15881
      12     H     0.41259  0.41259  0.00000  0.17481
      13     H     0.43084  0.43084  0.00000  0.13831
      14     H     0.42773  0.42773  0.00000  0.14453

   Total alpha = 21.00000, Total beta = 21.00000, Total charge = -0.00000
