                              Psi4 1.0.54 Driver

  ==> Input File <==

--------------------------------------------------------------------------
set {
	reference rhf
	basis cc-pvtz
}

set_num_threads( 4 )
memory 2 gb

molecule MOL {
0 1

H	 1.385127	 1.760950	 0.090460
C	 1.693028	 0.721940	 0.061925
N	 0.526300	 -0.128137	 0.000000
H	 2.247614	 0.518839	 0.969241
H	 2.369644	 0.600634	 -0.786631
C	 -0.247113	 0.037112	 -1.209233
H	 0.794964	 -1.082417	 0.104056
H	 -0.996493	 -0.743733	 -1.271440
H	 0.397975	 -0.057351	 -2.073512
H	 -0.763794	 0.997171	 -1.271673

	symmetry c1
}
set optking {
	frozen_dihedral = ("
		2 3 6 8
	")
}

ee,wfn = optimize('scf', return_wfn=True)
oeprop( wfn, 'DIPOLE', 'QUADRUPOLE', 'MULLIKEN_CHARGES')
f=open( 'psi4out.xyz', 'w' )
f.write( "10  " )
f.write( str(ee) + "\n" )
f.write( MOL.save_string_xyz() )
f.close()
--------------------------------------------------------------------------

    Molecular point group: c1
  Charge       = 0
  Multiplicity = 1
  Basis Set: CC-PVTZ
  Basis Set:
  @DF-RHF Final Energy:  -134.29188372312422
    Total Energy =                       -134.2918837231241582
    Molecular point group: c1
  Basis Set: CC-PVTZ
  Basis Set:
  Basis Set: CC-PVTZ
  Basis Set:
  @DF-RHF Final Energy:  -134.29277698950273
    Total Energy =                       -134.2927769895027552
  Basis Set: CC-PVTZ
  Basis Set:
  Basis Set: CC-PVTZ
  Basis Set:
  @DF-RHF Final Energy:  -134.29290890162196
    Total Energy =                       -134.2929089016219564
  Basis Set: CC-PVTZ
  Basis Set:
  Charge       = 0
  Multiplicity = 1
  Basis Set: CC-PVTZ
  Basis Set:

    Orbital Energies (a.u.)
    -----------------------

    Doubly Occupied:

       1A    -15.532747     2A    -11.234350     3A    -11.234294
       4A     -1.201200     5A     -0.948383     6A     -0.854579
       7A     -0.662810     8A     -0.613739     9A     -0.592478
      10A     -0.539871    11A     -0.510340    12A     -0.506635
      13A     -0.364847

  @DF-RHF Final Energy:  -134.29290984914843

   => Energetics <=

    Nuclear Repulsion Energy =             84.7498851199957386
    One-Electron Energy =                -348.4930444088008130
    Two-Electron Energy =                 129.4502494396567158
    DFT Exchange-Correlation Energy =       0.0000000000000000
    Empirical Dispersion Energy =           0.0000000000000000
    PCM Polarization Energy =               0.0000000000000000
    EFP Energy =                            0.0000000000000000
    Total Energy =                       -134.2929098491483728
    Molecular point group: c1
  Basis Set: CC-PVTZ
  Basis Set:

  -Total Gradient:
     Atom            X                  Y                   Z
    ------   -----------------  -----------------  -----------------
       1        0.000016581977     0.000013212704     0.000005980581
       2        0.000492616221    -0.000739412691    -0.000502468791
       3       -0.000603117499     0.000855517320     0.000410728920
       4       -0.000009405958    -0.000019794175    -0.000002357517
       5        0.000006770143     0.000002043295     0.000003743046
       6       -0.000798327547     0.000669470504     0.000644139810
       7       -0.000044087418     0.000010034608    -0.000025902031
       8        0.000907922538    -0.000799647009    -0.000594054893
       9        0.000017693413     0.000007500255     0.000020435765
      10        0.000013354130     0.000001075189     0.000039755111

  **** Optimization is complete! (in 4 steps) ****
    Final optimized geometry and variables:
    Molecular point group: c1

    Geometry (in Angstrom), charge = 0, multiplicity = 1:

    H            0.718212227150     1.557805983545     0.470623953780
    C            1.020740743437     0.516680282802     0.464450883918
    N           -0.148971724567    -0.329584684901     0.404049447279
    H            1.563998301113     0.327645920369     1.381600634435
    H            1.705187454397     0.376410943046    -0.374624683159
    C           -0.908724736948    -0.179545385590    -0.816477739929
    H            0.119935584015    -1.282566510274     0.518086788754
    H           -1.660680546702    -0.955866025690    -0.876944801026
    H           -0.296071263068    -0.237491398360    -1.718709801264
    H           -1.414471834794     0.779218678060    -0.822513171164

  Mulliken Charges: (a.u.)
   Center  Symbol    Alpha    Beta     Spin     Total
       1     H     0.45713  0.45713  0.00000  0.08574
       2     C     3.08148  3.08148  0.00000 -0.16296
       3     N     3.62795  3.62795  0.00000 -0.25590
       4     H     0.45246  0.45246  0.00000  0.09508
       5     H     0.47446  0.47446  0.00000  0.05109
       6     C     3.07978  3.07978  0.00000 -0.15956
       7     H     0.44084  0.44084  0.00000  0.11833
       8     H     0.45333  0.45333  0.00000  0.09335
       9     H     0.47633  0.47633  0.00000  0.04733
      10     H     0.45625  0.45625  0.00000  0.08750

   Total alpha = 13.00000, Total beta = 13.00000, Total charge =  0.00000

*** Psi4 exiting successfully. Buy a developer a beer!
