  ==> Input File <==

--------------------------------------------------------------------------
set {
	reference rhf
	basis 6-31G*
}

set_num_threads( 1 )
memory 2 gb

molecule MOL {
0 1

H	 2.108074	 -3.393748	 1.560080
C	 2.284180	 -2.497561	 0.973919
C	 1.013122	 -1.657350	 0.858086
H	 3.081098	 -1.939216	 1.457033
H	 2.643737	 -2.807862	 -0.003158
C	 1.217350	 -0.386724	 0.039429
H	 0.656407	 -1.379213	 1.844891
H	 0.226493	 -2.255761	 0.401457
N	 0.000003	 0.397874	 -0.023260
H	 1.984232	 0.223125	 0.509473
H	 1.596240	 -0.648193	 -0.954278
C	 -1.217365	 -0.386708	 0.039277
H	 -0.000031	 1.072115	 0.718656
C	 -2.452633	 0.504241	 -0.042481
H	 -1.215291	 -1.074557	 -0.802042
H	 -1.269739	 -1.003477	 0.942735
C	 -3.758029	 -0.289423	 -0.010781
H	 -2.394220	 1.093569	 -0.952170
H	 -2.440793	 1.210787	 0.785871
H	 -3.816659	 -0.981993	 -0.845726
H	 -4.617837	 0.370165	 -0.069296
H	 -3.847478	 -0.867502	 0.904682

	symmetry c1
}
set optking {
	frozen_dihedral = ("
		15 12 14 18
	")
}

ee = energy('scf')
oeprop('DIPOLE', 'QUADRUPOLE', 'MULLIKEN_CHARGES')
f=open( 'psi4out.xyz', 'w' )
f.write( "22  " )
f.write( str(ee) + "\n" )
f.write( MOL.save_string_xyz() )
f.close()
--------------------------------------------------------------------------

    Molecular point group: c1

    Geometry (in Angstrom), charge = 0, multiplicity = 1:

       Center              X                  Y                   Z               Mass
    ------------   -----------------  -----------------  -----------------  -----------------
           H          2.526618350495    -2.766085742434     1.288078557241     1.007825032070
           C          2.702724350495    -1.869898742434     0.701917557241    12.000000000000
           C          1.431666350495    -1.029687742434     0.586084557241    12.000000000000
           H          3.499642350495    -1.311553742434     1.185031557241     1.007825032070
           H          3.062281350495    -2.180199742434    -0.275159442759     1.007825032070
           C          1.635894350495     0.240938257566    -0.232572442759    12.000000000000
           H          1.074951350495    -0.751550742434     1.572889557241     1.007825032070
           H          0.645037350495    -1.628098742434     0.129455557241     1.007825032070
           N          0.418547350495     1.025536257566    -0.295261442759    14.003074004780
           H          2.402776350495     0.850787257566     0.237471557241     1.007825032070
           H          2.014784350495    -0.020530742434    -1.226279442759     1.007825032070
           C         -0.798820649505     0.240954257566    -0.232724442759    12.000000000000
           H          0.418513350495     1.699777257566     0.446654557241     1.007825032070
           C         -2.034088649505     1.131903257566    -0.314482442759    12.000000000000
           H         -0.796746649505    -0.446894742434    -1.074043442759     1.007825032070
           H         -0.851194649505    -0.375814742434     0.670733557241     1.007825032070
           C         -3.339484649505     0.338239257566    -0.282782442759    12.000000000000
           H         -1.975675649505     1.721231257566    -1.224171442759     1.007825032070
           H         -2.022248649505     1.838449257566     0.513869557241     1.007825032070
           H         -3.398114649505    -0.354330742434    -1.117727442759     1.007825032070
           H         -4.199292649505     0.997827257566    -0.341297442759     1.007825032070
           H         -3.428933649505    -0.239839742434     0.632680557241     1.007825032070

  Charge       = 0
  Multiplicity = 1
  Basis Set: 6-31G*
  Basis Set:

    Orbital Energies (a.u.)
    -----------------------

    Doubly Occupied:

       1A    -15.531999     2A    -11.238755     3A    -11.235826
       4A    -11.212112     5A    -11.211604     6A    -11.209340
       7A    -11.209163     8A     -1.207813     9A     -1.055251
      10A     -1.026660    11A     -0.928824    12A     -0.877481
      13A     -0.818040    14A     -0.781532    15A     -0.669273
      16A     -0.628314    17A     -0.619886    18A     -0.606401
      19A     -0.577103    20A     -0.560726    21A     -0.541747
      22A     -0.528087    23A     -0.500877    24A     -0.493904
      25A     -0.483041    26A     -0.468466    27A     -0.466095
      28A     -0.458283    29A     -0.351671

  @DF-RHF Final Energy:  -290.36960003583590

   => Energetics <=

    Nuclear Repulsion Energy =            322.0603397765518139
    One-Electron Energy =               -1029.8634215676313488
    Two-Electron Energy =                 417.4334817552418144
    DFT Exchange-Correlation Energy =       0.0000000000000000
    Empirical Dispersion Energy =           0.0000000000000000
    PCM Polarization Energy =               0.0000000000000000
    EFP Energy =                            0.0000000000000000
    Total Energy =                       -290.3696000358377205

  Mulliken Charges: (a.u.)
   Center  Symbol    Alpha    Beta     Spin     Total
       1     H     0.41886  0.41886  0.00000  0.16229
       2     C     3.24030  3.24030  0.00000 -0.48061
       3     C     3.16922  3.16922  0.00000 -0.33843
       4     H     0.42268  0.42268  0.00000  0.15464
       5     H     0.42097  0.42097  0.00000  0.15805
       6     C     3.04885  3.04885  0.00000 -0.09769
       7     H     0.42307  0.42307  0.00000  0.15386
       8     H     0.41589  0.41589  0.00000  0.16821
       9     N     3.85292  3.85292  0.00000 -0.70585
      10     H     0.42282  0.42282  0.00000  0.15437
      11     H     0.42191  0.42191  0.00000  0.15618
      12     C     3.06023  3.06023  0.00000 -0.12046
      13     H     0.33382  0.33382  0.00000  0.33237
      14     C     3.15258  3.15258  0.00000 -0.30516
      15     H     0.42061  0.42061  0.00000  0.15878
      16     H     0.43023  0.43023  0.00000  0.13954
      17     C     3.24320  3.24320  0.00000 -0.48640
      18     H     0.41335  0.41335  0.00000  0.17330
      19     H     0.42750  0.42750  0.00000  0.14501
      20     H     0.42102  0.42102  0.00000  0.15796
      21     H     0.41778  0.41778  0.00000  0.16443
      22     H     0.42219  0.42219  0.00000  0.15562

   Total alpha = 29.00000, Total beta = 29.00000, Total charge = -0.00000
