  ==> Input File <==

--------------------------------------------------------------------------
set {
	reference rhf
	basis 6-31G*
}

set_num_threads( 4 )
memory 2 gb

molecule MOL {
0 1

H	 -0.821032	 -1.655889	 0.000000
O	 -1.037828	 -0.728600	 0.000000
C	 0.100509	 -0.036935	 0.000000
C	 0.216329	 0.849043	 1.207282
O	 0.903982	 -0.135345	 -0.868314
H	 -0.616708	 1.541971	 1.232127
H	 1.149202	 1.390823	 1.170211
H	 0.170305	 0.246711	 2.107167

	symmetry c1
}
set optking {
	frozen_dihedral = ("
		4 3 2 1
	")
}

ee = optimize('scf')
oeprop('DIPOLE', 'QUADRUPOLE', 'MULLIKEN_CHARGES')
f=open( 'psi4out.xyz', 'w' )
f.write( "8  " )
f.write( str(ee) + "\n" )
f.write( MOL.save_string_xyz() )
f.close()
--------------------------------------------------------------------------

    Molecular point group: c1
  Charge       = 0
  Multiplicity = 1
  Basis Set: 6-31G*
  Basis Set:
  @DF-RHF Final Energy:  -227.79358580683819
    Total Energy =                       -227.7935858068382800
    Molecular point group: c1
  Basis Set: 6-31G*
  Basis Set:
  Basis Set: 6-31G*
  Basis Set:
  @DF-RHF Final Energy:  -227.79239856283829
    Total Energy =                       -227.7923985628382582
  Basis Set: 6-31G*
  Basis Set:
  Basis Set: 6-31G*
  Basis Set:
  @DF-RHF Final Energy:  -227.79447996052517
    Total Energy =                       -227.7944799605250239
  Basis Set: 6-31G*
  Basis Set:
  Basis Set: 6-31G*
  Basis Set:
  @DF-RHF Final Energy:  -227.79476072893954
    Total Energy =                       -227.7947607289394796
  Basis Set: 6-31G*
  Basis Set:
  @DF-RHF Final Energy:  -227.79480004185177
    Total Energy =                       -227.7948000418516870
  @DF-RHF Final Energy:  -227.76958257969250
    Total Energy =                       -227.7695825796926385
  Basis Set: 6-31G*
  Basis Set:
  @DF-RHF Final Energy:  -227.79399678689543
    Total Energy =                       -227.7939967868955762
  Basis Set: 6-31G*
  Basis Set:
  Basis Set: 6-31G*
  Basis Set:
  @DF-RHF Final Energy:  -227.79481492301565
    Total Energy =                       -227.7948149230156787
  Basis Set: 6-31G*
  Basis Set:
  Basis Set: 6-31G*
  Basis Set:
  @DF-RHF Final Energy:  -227.79482056950320
    Total Energy =                       -227.7948205695032016
  Basis Set: 6-31G*
  Basis Set:
  Charge       = 0
  Multiplicity = 1
  Basis Set: 6-31G*
  Basis Set:

    Orbital Energies (a.u.)
    -----------------------

    Doubly Occupied:

       1A    -20.601084     2A    -20.560994     3A    -11.386655
       4A    -11.241247     5A     -1.466161     6A     -1.369055
       7A     -1.024003     8A     -0.827188     9A     -0.705177
      10A     -0.675614    11A     -0.657826    12A     -0.584578
      13A     -0.579114    14A     -0.527860    15A     -0.489485
      16A     -0.449786

  @DF-RHF Final Energy:  -227.79482068248149

   => Energetics <=

    Nuclear Repulsion Energy =            121.9237294529778666
    One-Electron Energy =                -553.1454487696703382
    Two-Electron Energy =                 203.4268986342111134
    DFT Exchange-Correlation Energy =       0.0000000000000000
    Empirical Dispersion Energy =           0.0000000000000000
    PCM Polarization Energy =               0.0000000000000000
    EFP Energy =                            0.0000000000000000
    Total Energy =                       -227.7948206824813724
    Molecular point group: c1
  Basis Set: 6-31G*
  Basis Set:

  -Total Gradient:
     Atom            X                  Y                   Z
    ------   -----------------  -----------------  -----------------
       1       -0.000459165438     0.000096170156     0.011472854419
       2        0.001678905803    -0.002349059973    -0.012695424269
       3       -0.004096908955     0.007354077970    -0.002407627543
       4        0.002980388022    -0.005363742302     0.003737120973
       5       -0.000097809006     0.000260290500    -0.000105087203
       6        0.000002158237     0.000005999925    -0.000020189225
       7        0.000008825930    -0.000003267611     0.000022007555
       8       -0.000016394592    -0.000000468665    -0.000003654707

  **** Optimization is complete! (in 10 steps) ****
    Final optimized geometry and variables:
    Molecular point group: c1

    Geometry (in Angstrom), charge = 0, multiplicity = 1:

    H           -0.942876475442    -1.591409296230    -0.120850855833
    O           -1.100122793386    -0.654676188353    -0.135185556843
    C            0.073557607470     0.019357251702    -0.093553199568
    C            0.177930316847     0.917789922982     1.106652474424
    O            0.933641862079    -0.159833744035    -0.883835393241
    H           -0.705264138181     1.538095597320     1.201273139564
    H            1.064459891935     1.530568316053     1.038455964657
    H            0.231430282905     0.291158224798     1.990924209443

  Mulliken Charges: (a.u.)
   Center  Symbol    Alpha    Beta     Spin     Total
       1     H     0.26478  0.26478  0.00000  0.47044
       2     O     4.36000  4.36000  0.00000 -0.72000
       3     C     2.64305  2.64305  0.00000  0.71391
       4     C     3.28259  3.28259  0.00000 -0.56518
       5     O     4.25276  4.25276  0.00000 -0.50551
       6     H     0.39810  0.39810  0.00000  0.20379
       7     H     0.39643  0.39643  0.00000  0.20714
       8     H     0.40229  0.40229  0.00000  0.19541

   Total alpha = 16.00000, Total beta = 16.00000, Total charge =  0.00000
