  ==> Input File <==

--------------------------------------------------------------------------
set {
	reference rhf
	basis 6-31G*
}

set_num_threads( 1 )
memory 2 gb

molecule MOL {
0 1

H	 2.201262	 -1.310452	 0.164896
N	 2.434251	 -0.367735	 -0.081097
C	 1.267428	 0.496480	 0.024474
H	 2.770698	 -0.389672	 -1.025151
C	 -0.016086	 -0.325158	 -0.029487
H	 1.288818	 1.183521	 -0.816092
H	 1.267576	 1.109062	 0.929528
C	 -1.282277	 0.529072	 0.046735
H	 -0.012495	 -0.908639	 -0.945788
H	 -0.015903	 -1.041248	 0.791956
C	 -2.563920	 -0.301775	 -0.006060
H	 -1.284084	 1.244622	 -0.773004
H	 -1.271387	 1.115393	 0.963286
H	 -2.621848	 -0.873522	 -0.927727
H	 -3.445135	 0.329952	 0.047812
H	 -2.609542	 -1.004582	 0.821105

	symmetry c1
}
set optking {
	frozen_dihedral = ("
		6 3 5 9,
		12 8 5 9
	")
}

ee = energy('scf')
oeprop('DIPOLE', 'QUADRUPOLE', 'MULLIKEN_CHARGES')
f=open( 'psi4out.xyz', 'w' )
f.write( "16  " )
f.write( str(ee) + "\n" )
f.write( MOL.save_string_xyz() )
f.close()
--------------------------------------------------------------------------

    Molecular point group: c1

    Geometry (in Angstrom), charge = 0, multiplicity = 1:

       Center              X                  Y                   Z               Mass
    ------------   -----------------  -----------------  -----------------  -----------------
           H          2.212378649196    -1.297921734005     0.185184389671     1.007825032070
           N          2.445367649196    -0.355204734005    -0.060808610329    14.003074004780
           C          1.278544649196     0.509010265995     0.044762389671    12.000000000000
           H          2.781814649196    -0.377141734005    -1.004862610329     1.007825032070
           C         -0.004969350804    -0.312627734005    -0.009198610329    12.000000000000
           H          1.299934649196     1.196051265995    -0.795803610329     1.007825032070
           H          1.278692649196     1.121592265995     0.949816389671     1.007825032070
           C         -1.271160350804     0.541602265995     0.067023389671    12.000000000000
           H         -0.001378350804    -0.896108734005    -0.925499610329     1.007825032070
           H         -0.004786350804    -1.028717734005     0.812244389671     1.007825032070
           C         -2.552803350804    -0.289244734005     0.014228389671    12.000000000000
           H         -1.272967350804     1.257152265995    -0.752715610329     1.007825032070
           H         -1.260270350804     1.127923265995     0.983574389671     1.007825032070
           H         -2.610731350804    -0.860991734005    -0.907438610329     1.007825032070
           H         -3.434018350804     0.342482265995     0.068100389671     1.007825032070
           H         -2.598425350804    -0.992051734005     0.841393389671     1.007825032070

  Charge       = 0
  Multiplicity = 1
  Basis Set: 6-31G*
  Basis Set:

    Orbital Energies (a.u.)
    -----------------------

    Doubly Occupied:

       1A    -15.530183     2A    -11.240474     3A    -11.218022
       4A    -11.214732     5A    -11.210844     6A     -1.178180
       7A     -1.061974     8A     -0.959577     9A     -0.847286
      10A     -0.799336    11A     -0.672721    12A     -0.631219
      13A     -0.594503    14A     -0.588890    15A     -0.560926
      16A     -0.524691    17A     -0.507321    18A     -0.479370
      19A     -0.474583    20A     -0.467318    21A     -0.373114

  @DF-RHF Final Energy:  -212.31240047809268

   => Energetics <=

    Nuclear Repulsion Energy =            186.7913619729449692
    One-Electron Energy =                -655.9370418296723528
    Two-Electron Energy =                 256.8332793786346429
    DFT Exchange-Correlation Energy =       0.0000000000000000
    Empirical Dispersion Energy =           0.0000000000000000
    PCM Polarization Energy =               0.0000000000000000
    EFP Energy =                            0.0000000000000000
    Total Energy =                       -212.3124004780927407

  Mulliken Charges: (a.u.)
   Center  Symbol    Alpha    Beta     Spin     Total
       1     H     0.33260  0.33260  0.00000  0.33480
       2     N     3.92467  3.92467  0.00000 -0.84935
       3     C     3.05142  3.05142  0.00000 -0.10284
       4     H     0.33261  0.33261  0.00000  0.33478
       5     C     3.16440  3.16440  0.00000 -0.32880
       6     H     0.42454  0.42454  0.00000  0.15092
       7     H     0.42031  0.42031  0.00000  0.15939
       8     C     3.15547  3.15547  0.00000 -0.31094
       9     H     0.42521  0.42521  0.00000  0.14958
      10     H     0.42395  0.42395  0.00000  0.15210
      11     C     3.23886  3.23886  0.00000 -0.47772
      12     H     0.42272  0.42272  0.00000  0.15456
      13     H     0.42110  0.42110  0.00000  0.15779
      14     H     0.42188  0.42188  0.00000  0.15623
      15     H     0.41881  0.41881  0.00000  0.16239
      16     H     0.42145  0.42145  0.00000  0.15711

   Total alpha = 21.00000, Total beta = 21.00000, Total charge =  0.00000
