  ==> Input File <==

--------------------------------------------------------------------------
set {
	reference rhf
	basis 6-31G*
}

set_num_threads( 4 )
memory 2 gb

molecule MOL {
0 1

H	 1.543482	 1.518008	 -1.780538
O	 0.664642	 1.337288	 -1.479708
C	 0.702312	 0.627605	 -0.264544
C	 -0.714990	 0.596302	 0.266387
H	 1.347335	 1.127674	 0.452904
H	 1.070246	 -0.384984	 -0.415585
O	 -1.405996	 -0.526611	 -0.195820
H	 -1.257453	 1.468809	 -0.075599
H	 -0.688972	 0.618407	 1.353696
H	 -0.890587	 -1.292708	 0.022039

	symmetry c1
}
set optking {
	frozen_dihedral = ("
		5 3 4 7
	")
}

ee = optimize('scf')
oeprop('DIPOLE', 'QUADRUPOLE', 'MULLIKEN_CHARGES')
f=open( 'psi4out.xyz', 'w' )
f.write( "10  " )
f.write( str(ee) + "\n" )
f.write( MOL.save_string_xyz() )
f.close()
--------------------------------------------------------------------------

    Molecular point group: c1
  Charge       = 0
  Multiplicity = 1
  Basis Set: 6-31G*
  Basis Set:
  @DF-RHF Final Energy:  -228.91477727789223
    Total Energy =                       -228.9147772778922842
    Molecular point group: c1
  Basis Set: 6-31G*
  Basis Set:
  Basis Set: 6-31G*
  Basis Set:
  @DF-RHF Final Energy:  -228.91615928004447
    Total Energy =                       -228.9161592800444112
  Basis Set: 6-31G*
  Basis Set:
  Basis Set: 6-31G*
  Basis Set:
  @DF-RHF Final Energy:  -228.91662622498660
    Total Energy =                       -228.9166262249865440
  Basis Set: 6-31G*
  Basis Set:
  Basis Set: 6-31G*
  Basis Set:
  @DF-RHF Final Energy:  -228.91670683871530
    Total Energy =                       -228.9167068387154131
  Basis Set: 6-31G*
  Basis Set:
  Basis Set: 6-31G*
  Basis Set:
  @DF-RHF Final Energy:  -228.91673852069135
    Total Energy =                       -228.9167385206913536
  Basis Set: 6-31G*
  Basis Set:
  Basis Set: 6-31G*
  Basis Set:
  @DF-RHF Final Energy:  -228.91674136233451
    Total Energy =                       -228.9167413623345624
  Basis Set: 6-31G*
  Basis Set:
  Charge       = 0
  Multiplicity = 1
  Basis Set: 6-31G*
  Basis Set:

    Orbital Energies (a.u.)
    -----------------------

    Doubly Occupied:

       1A    -20.559192     2A    -20.554634     3A    -11.275458
       4A    -11.270176     5A     -1.373758     6A     -1.355956
       7A     -1.000068     8A     -0.846383     9A     -0.718901
      10A     -0.684178    11A     -0.648371    12A     -0.595350
      13A     -0.576005    14A     -0.534116    15A     -0.484811
      16A     -0.445215    17A     -0.434817

  @DF-RHF Final Energy:  -228.91674155264920

   => Energetics <=

    Nuclear Repulsion Energy =            132.3191504202174826
    One-Electron Energy =                -575.7570051486275133
    Two-Electron Energy =                 214.5211131757607745
    DFT Exchange-Correlation Energy =       0.0000000000000000
    Empirical Dispersion Energy =           0.0000000000000000
    PCM Polarization Energy =               0.0000000000000000
    EFP Energy =                            0.0000000000000000
    Total Energy =                       -228.9167415526492277
    Molecular point group: c1
  Basis Set: 6-31G*
  Basis Set:

  -Total Gradient:
     Atom            X                  Y                   Z
    ------   -----------------  -----------------  -----------------
       1       -0.000002851976     0.000000027326    -0.000004711274
       2        0.000011471433    -0.000021280390     0.000029054163
       3       -0.000773560115     0.004068354151    -0.001093392709
       4       -0.001319390620     0.001648674012    -0.003144675474
       5        0.000950585116    -0.003807595710     0.001640399236
       6        0.000000771837     0.000001796735    -0.000004305303
       7        0.001114262813    -0.001911103164     0.002584718415
       8        0.000008447624     0.000009257812     0.000000830990
       9        0.000013491794     0.000010002248    -0.000001495101
      10       -0.000003227905     0.000001866979    -0.000006422945

  **** Optimization is complete! (in 7 steps) ****
    Final optimized geometry and variables:
    Molecular point group: c1

    Geometry (in Angstrom), charge = 0, multiplicity = 1:

    H            1.724563877331     0.884778291879    -1.408267600053
    O            0.863034316788     0.895862182998    -1.016370024619
    C            0.876170890979     0.176550288953     0.183655759218
    C           -0.546896920825     0.052220990805     0.709977565941
    H            1.505661001812     0.654876230125     0.933054364997
    H            1.280769954487    -0.824192586387     0.032449280506
    O           -1.237712484274    -1.055293730636     0.199937185223
    H           -1.105278307570     0.930748836626     0.420699411260
    H           -0.524320441477     0.011221191822     1.797748320841
    H           -0.855590421955    -1.851078042251     0.541358945679

  Mulliken Charges: (a.u.)
   Center  Symbol    Alpha    Beta     Spin     Total
       1     H     0.27964  0.27964  0.00000  0.44071
       2     O     4.36510  4.36510  0.00000 -0.73021
       3     C     3.00312  3.00312  0.00000 -0.00624
       4     C     3.00489  3.00489  0.00000 -0.00978
       5     H     0.43131  0.43131  0.00000  0.13737
       6     H     0.43454  0.43454  0.00000  0.13093
       7     O     4.36537  4.36537  0.00000 -0.73073
       8     H     0.40135  0.40135  0.00000  0.19730
       9     H     0.43106  0.43106  0.00000  0.13787
      10     H     0.28361  0.28361  0.00000  0.43278

   Total alpha = 17.00000, Total beta = 17.00000, Total charge =  0.00000
