                              Psi4 1.0.54 Driver

  ==> Input File <==

--------------------------------------------------------------------------
set {
	reference rhf
	basis cc-pvtz
}

set_num_threads( 4 )
memory 2 gb

molecule MOL {
0 1

O	 2.868453	 1.353349	 -0.000734
C	 2.841259	 0.166180	 -0.000295
C	 1.542794	 -0.614730	 -0.000853
C	 4.113372	 -0.651103	 0.000743
C	 0.288398	 0.247429	 0.000314
H	 1.557171	 -1.273139	 -0.866508
H	 1.557484	 -1.274998	 0.863344
C	 -0.993089	 -0.581367	 -0.000217
H	 0.305153	 0.900562	 -0.864701
H	 0.305567	 0.898805	 0.866656
C	 -2.258482	 0.271340	 0.000669
H	 -1.002280	 -1.233920	 -0.870484
H	 -1.002061	 -1.235367	 0.868958
C	 -2.126748	 1.552694	 0.818907
H	 -3.086861	 -0.317124	 0.387465
H	 -2.519988	 0.525624	 -1.023578
C	 -3.395175	 2.399375	 0.815079
H	 -1.866528	 1.299427	 1.843154
H	 -1.299763	 2.142144	 0.432173
H	 -4.233951	 1.849295	 1.228489
H	 -3.268263	 3.300320	 1.404326
H	 -3.662849	 2.698452	 -0.192864
H	 4.145311	 -1.294584	 -0.871587
H	 4.970080	 0.004978	 -0.000091
H	 4.145223	 -1.291980	 0.874988

	symmetry c1
}
set optking {
	frozen_dihedral = ("
		15 11 8 12
	")
}

ee,wfn = optimize('scf', return_wfn=True)
oeprop( wfn, 'DIPOLE', 'QUADRUPOLE', 'MULLIKEN_CHARGES')
f=open( 'psi4out.xyz', 'w' )
f.write( "25  " )
f.write( str(ee) + "\n" )
f.write( MOL.save_string_xyz() )
f.close()
--------------------------------------------------------------------------

    Molecular point group: c1
  Charge       = 0
  Multiplicity = 1
  Basis Set: CC-PVTZ
  Basis Set:
  @DF-RHF Final Energy:  -387.26766328637564
    Total Energy =                       -387.2676632863751820
    Molecular point group: c1
  Basis Set: CC-PVTZ
  Basis Set:
  Basis Set: CC-PVTZ
  Basis Set:
  @DF-RHF Final Energy:  -387.26487655440286
    Total Energy =                       -387.2648765544022353
  Basis Set: CC-PVTZ
  Basis Set:
  Basis Set: CC-PVTZ
  Basis Set:
  @DF-RHF Final Energy:  -387.26968790467811
    Total Energy =                       -387.2696879046785625
  Basis Set: CC-PVTZ
  Basis Set:
  Basis Set: CC-PVTZ
  Basis Set:
  @DF-RHF Final Energy:  -387.26996522440919
    Total Energy =                       -387.2699652244090203
  Basis Set: CC-PVTZ
  Basis Set:
  @DF-RHF Final Energy:  -387.26911505498356
    Total Energy =                       -387.2691150549834447
  Basis Set: CC-PVTZ
  Basis Set:
  @DF-RHF Final Energy:  -387.26997460870678
    Total Energy =                       -387.2699746087066615
  Basis Set: CC-PVTZ
  Basis Set:
  Basis Set: CC-PVTZ
  Basis Set:
  @DF-RHF Final Energy:  -387.26999847088729
    Total Energy =                       -387.2699984708872307
  Basis Set: CC-PVTZ
  Basis Set:
  Basis Set: CC-PVTZ
  Basis Set:
  @DF-RHF Final Energy:  -387.26999948162376
    Total Energy =                       -387.2699994816236995
  Basis Set: CC-PVTZ
  Basis Set:
  Charge       = 0
  Multiplicity = 1
  Basis Set: CC-PVTZ
  Basis Set:

    Orbital Energies (a.u.)
    -----------------------

    Doubly Occupied:

       1A    -20.538865     2A    -11.320474     3A    -11.229942
       4A    -11.226552     5A    -11.215751     6A    -11.214055
       7A    -11.212282     8A    -11.210628     9A    -11.204778
      10A     -1.398873    11A     -1.094385    12A     -1.055281
      13A     -1.013788    14A     -0.969164    15A     -0.889358
      16A     -0.833221    17A     -0.770762    18A     -0.732011
      19A     -0.660367    20A     -0.652743    21A     -0.634760
      22A     -0.625196    23A     -0.598967    24A     -0.581330
      25A     -0.569517    26A     -0.562259    27A     -0.551090
      28A     -0.518791    29A     -0.503399    30A     -0.498833
      31A     -0.492292    32A     -0.481404    33A     -0.459759
      34A     -0.455603    35A     -0.446249    36A     -0.401788

  @DF-RHF Final Energy:  -387.27000000321999

   => Energetics <=

    Nuclear Repulsion Energy =            446.8000921504729490
    One-Electron Energy =               -1410.4911543231719406
    Two-Electron Energy =                 576.4210621694791143
    DFT Exchange-Correlation Energy =       0.0000000000000000
    Empirical Dispersion Energy =           0.0000000000000000
    PCM Polarization Energy =               0.0000000000000000
    EFP Energy =                            0.0000000000000000
    Total Energy =                       -387.2700000032199341
    Molecular point group: c1
  Basis Set: CC-PVTZ
  Basis Set:

  -Total Gradient:
     Atom            X                  Y                   Z
    ------   -----------------  -----------------  -----------------
       1        0.000016294460     0.000005579077    -0.000001707325
       2       -0.000013782801    -0.000028594149    -0.000001655467
       3        0.000007228388     0.000011348124     0.000008608938
       4        0.000004491799     0.000009042877    -0.000003715255
       5       -0.000007977748    -0.000005029216    -0.000001336537
       6       -0.000000117007     0.000000473879    -0.000000440800
       7       -0.000004323331    -0.000001424597    -0.000006264731
       8       -0.002276816613    -0.004567272496     0.005063404082
       9        0.000002148048    -0.000004994690     0.000006799172
      10       -0.000000323999    -0.000002879490    -0.000004295857
      11       -0.001237245207    -0.001490551657    -0.006925501879
      12        0.002119611656     0.004104814120    -0.003237015227
      13        0.000001981434    -0.000000180937    -0.000001423856
      14       -0.000000220249     0.000004943256    -0.000011763955
      15        0.001396325215     0.001958704812     0.005104832491
      16       -0.000000216517     0.000001872287     0.000002737613
      17       -0.000002013494    -0.000002892320     0.000006449292
      18       -0.000002187299     0.000001464295    -0.000005076147
      19       -0.000001691050    -0.000004592793     0.000003419360
      20       -0.000000446897     0.000002171201    -0.000002775204
      21       -0.000001280438    -0.000000196328     0.000000473605
      22        0.000003014117    -0.000001386162     0.000002741485
      23       -0.000001811328     0.000001840973     0.000006403949
      24        0.000003341370     0.000002081756    -0.000000372334
      25       -0.000003982507     0.000005658177    -0.000002525418

  **** Optimization is complete! (in 9 steps) ****
    Final optimized geometry and variables:
    Molecular point group: c1

    Geometry (in Angstrom), charge = 0, multiplicity = 1:

    O            2.546490343295     1.008724860632    -0.483222806967
    C            2.552257704256    -0.178487541871    -0.508772379354
    C            1.289414207210    -0.999384587181    -0.342774985081
    C            3.833369484788    -0.955798384681    -0.711244315157
    C            0.024447360661    -0.176140595255    -0.143024946646
    H            1.199818697168    -1.641765962196    -1.215834606252
    H            1.445862189085    -1.674256219040     0.495944617147
    C           -1.211620888751    -1.061302686697     0.028826355470
    H           -0.106739252198     0.482801487535    -0.994460855197
    H            0.159918285836     0.466864203889     0.716187580829
    C           -2.549282568531    -0.309363917455     0.106406791243
    H           -1.248006516893    -1.722312333398    -0.832904978034
    H           -1.087416794257    -1.682658544290     0.910927223051
    C           -2.539984565844     0.971192054442     0.943724649744
    H           -3.281029170555    -0.971371942553     0.560695568785
    H           -2.898519487176    -0.075221029581    -0.894612385352
    C           -3.930291963558     1.583521690774     1.082043865351
    H           -2.144669635188     0.753686406879     1.932827708380
    H           -1.873798577358     1.703888551831     0.502997271159
    H           -4.616579026044     0.896523897086     1.566133431042
    H           -3.901568435341     2.492652089775     1.671590525032
    H           -4.345471372369     1.833027990841     0.111001332715
    H            3.757275856196    -1.577801346302    -1.596304688231
    H            4.662949028118    -0.273779299246    -0.816751514118
    H            4.007738273252    -1.615194798714     0.131850143852

  Mulliken Charges: (a.u.)
   Center  Symbol    Alpha    Beta     Spin     Total
       1     O     4.17085  4.17085  0.00000 -0.34171
       2     C     2.86119  2.86119  0.00000  0.27762
       3     C     3.11619  3.11619  0.00000 -0.23239
       4     C     3.15157  3.15157  0.00000 -0.30314
       5     C     3.08628  3.08628  0.00000 -0.17256
       6     H     0.44456  0.44456  0.00000  0.11087
       7     H     0.44550  0.44550  0.00000  0.10901
       8     C     3.09909  3.09909  0.00000 -0.19817
       9     H     0.44555  0.44555  0.00000  0.10890
      10     H     0.44219  0.44219  0.00000  0.11562
      11     C     3.09170  3.09170  0.00000 -0.18341
      12     H     0.45194  0.45194  0.00000  0.09612
      13     H     0.45254  0.45254  0.00000  0.09492
      14     C     3.09037  3.09037  0.00000 -0.18073
      15     H     0.45155  0.45155  0.00000  0.09690
      16     H     0.45186  0.45186  0.00000  0.09629
      17     C     3.15109  3.15109  0.00000 -0.30218
      18     H     0.45398  0.45398  0.00000  0.09205
      19     H     0.44727  0.44727  0.00000  0.10546
      20     H     0.45546  0.45546  0.00000  0.08909
      21     H     0.44774  0.44774  0.00000  0.10452
      22     H     0.45536  0.45536  0.00000  0.08928
      23     H     0.45029  0.45029  0.00000  0.09941
      24     H     0.43539  0.43539  0.00000  0.12922
      25     H     0.45049  0.45049  0.00000  0.09902

   Total alpha = 36.00000, Total beta = 36.00000, Total charge =  0.00000

*** Psi4 exiting successfully. Buy a developer a beer!
