  ==> Input File <==

--------------------------------------------------------------------------
set {
	reference rhf
	basis 6-31G*
}

set_num_threads( 4 )
memory 2 gb

molecule MOL {
0 1

H	 -3.092969	 2.154762	 -0.478257
O	 -2.393526	 1.562067	 -0.713620
C	 -2.306886	 0.532354	 0.237577
C	 -1.177863	 -0.397191	 -0.171080
H	 -2.113158	 0.941308	 1.228301
H	 -3.244023	 -0.020199	 0.290492
C	 0.198102	 0.111031	 0.262842
H	 -1.208843	 -0.518759	 -1.250427
H	 -1.368741	 -1.376554	 0.258909
C	 1.331804	 -0.827780	 -0.158768
H	 0.361943	 1.100838	 -0.156218
H	 0.217265	 0.229072	 1.345532
C	 2.723619	 -0.410569	 0.329459
H	 1.342964	 -0.912588	 -1.244120
H	 1.116806	 -1.824343	 0.220779
C	 3.243875	 0.895854	 -0.272975
H	 3.424222	 -1.207124	 0.091250
H	 2.714788	 -0.329854	 1.414619
H	 3.251977	 0.848779	 -1.358681
H	 2.637085	 1.747371	 0.016682
H	 4.259473	 1.094070	 0.055697

	symmetry c1
}
set optking {
	frozen_dihedral = ("
		2 3 4 8
	")
}

ee = optimize('scf')
oeprop('DIPOLE', 'QUADRUPOLE', 'MULLIKEN_CHARGES')
f=open( 'psi4out.xyz', 'w' )
f.write( "21  " )
f.write( str(ee) + "\n" )
f.write( MOL.save_string_xyz() )
f.close()
--------------------------------------------------------------------------

    Molecular point group: c1
  Charge       = 0
  Multiplicity = 1
  Basis Set: 6-31G*
  Basis Set:
  @DF-RHF Final Energy:  -310.21134193387530
    Total Energy =                       -310.2113419338752465
    Molecular point group: c1
  Basis Set: 6-31G*
  Basis Set:
  Basis Set: 6-31G*
  Basis Set:
  @DF-RHF Final Energy:  -310.21163831337407
    Total Energy =                       -310.2116383133740101
  Basis Set: 6-31G*
  Basis Set:
  Basis Set: 6-31G*
  Basis Set:
  @DF-RHF Final Energy:  -310.21171356864369
    Total Energy =                       -310.2117135686438587
  Basis Set: 6-31G*
  Basis Set:
  Basis Set: 6-31G*
  Basis Set:
  @DF-RHF Final Energy:  -310.21171669155740
    Total Energy =                       -310.2117166915579105
  Basis Set: 6-31G*
  Basis Set:
  Charge       = 0
  Multiplicity = 1
  Basis Set: 6-31G*
  Basis Set:

    Orbital Energies (a.u.)
    -----------------------

    Doubly Occupied:

       1A    -20.552719     2A    -11.267604     3A    -11.211831
       4A    -11.211306     5A    -11.209616     6A    -11.208050
       7A    -11.204189     8A     -1.358939     9A     -1.081649
      10A     -1.029942    11A     -0.952497    12A     -0.874623
      13A     -0.803083    14A     -0.774074    15A     -0.705408
      16A     -0.636818    17A     -0.628262    18A     -0.600183
      19A     -0.589862    20A     -0.561684    21A     -0.539978
      22A     -0.517565    23A     -0.502835    24A     -0.493457
      25A     -0.476053    26A     -0.457161    27A     -0.455096
      28A     -0.444010    29A     -0.424333

  @DF-RHF Final Energy:  -310.21171617903019

   => Energetics <=

    Nuclear Repulsion Energy =            316.5186481793192570
    One-Electron Energy =               -1047.9150795426626246
    Two-Electron Energy =                 421.1847151843131769
    DFT Exchange-Correlation Energy =       0.0000000000000000
    Empirical Dispersion Energy =           0.0000000000000000
    PCM Polarization Energy =               0.0000000000000000
    EFP Energy =                            0.0000000000000000
    Total Energy =                       -310.2117161790301907
    Molecular point group: c1
  Basis Set: 6-31G*
  Basis Set:

  -Total Gradient:
     Atom            X                  Y                   Z
    ------   -----------------  -----------------  -----------------
       1       -0.000012727913     0.000071544054    -0.000050801386
       2       -0.002049395409    -0.001638983148    -0.001644942499
       3        0.003196829282     0.002714078695     0.002130108387
       4       -0.003679684961    -0.004367925893    -0.000093584290
       5       -0.000002926749     0.000028497276    -0.000046967579
       6       -0.000028363088     0.000003154634     0.000027973319
       7        0.000009451028     0.000023703100     0.000126562986
       8        0.002527517550     0.003071013651    -0.000349660218
       9       -0.000008642324     0.000069342271    -0.000038820445
      10       -0.000005578691     0.000015273132    -0.000055869141
      11       -0.000000993094    -0.000026121840    -0.000000226687
      12       -0.000015888148     0.000021361065     0.000015775347
      13       -0.000011034499     0.000014492647     0.000025291288
      14        0.000008042458    -0.000004702749    -0.000013487585
      15        0.000022156177     0.000014019427    -0.000024529223
      16        0.000040965991    -0.000005615739    -0.000013404574
      17        0.000004142537    -0.000003945892     0.000024000383
      18       -0.000021349452     0.000017589501    -0.000001823013
      19       -0.000009683688     0.000006946006    -0.000013615396
      20        0.000036135601    -0.000016369207     0.000016345443
      21        0.000001027395    -0.000007350991    -0.000018325117

  **** Optimization is complete! (in 5 steps) ****
    Final optimized geometry and variables:
    Molecular point group: c1

    Geometry (in Angstrom), charge = 0, multiplicity = 1:

    H           -3.167025147036     1.958930043340    -0.417168948085
    O           -2.527331626935     1.305665291644    -0.662313259793
    C           -2.493547857333     0.287040051300     0.307119516288
    C           -1.367189661770    -0.672830814439    -0.049650963287
    H           -2.338681941681     0.702727259049     1.301315269810
    H           -3.444257222970    -0.243065185207     0.319237137494
    C            0.012775037137    -0.157724729208     0.370179585227
    H           -1.377032236173    -0.799021208309    -1.128208552365
    H           -1.557039708073    -1.641894348237     0.404572831092
    C            1.149166956807    -1.078613358772    -0.080798278759
    H            0.148310731542     0.837289842117    -0.041254528951
    H            0.044415344501    -0.054710550751     1.454417534351
    C            2.543116649217    -0.655829307665     0.396931901335
    H            1.148208253291    -1.144784170350    -1.167616401119
    H            0.950124098625    -2.084747466517     0.283915382759
    C            3.043077339242     0.663452634612    -0.194496315006
    H            3.248772263019    -1.442430768542     0.140622836803
    H            2.545852828629    -0.588991572622     1.483156701750
    H            3.038362019929     0.630300649399    -1.280663468027
    H            2.430271280624     1.504209565217     0.112686840604
    H            4.060547550528     0.867972920264     0.124765987382

  Mulliken Charges: (a.u.)
   Center  Symbol    Alpha    Beta     Spin     Total
       1     H     0.28096  0.28096  0.00000  0.43807
       2     O     4.37052  4.37052  0.00000 -0.74105
       3     C     2.99789  2.99789  0.00000  0.00422
       4     C     3.15970  3.15970  0.00000 -0.31939
       5     H     0.43201  0.43201  0.00000  0.13598
       6     H     0.42933  0.42933  0.00000  0.14134
       7     C     3.15858  3.15858  0.00000 -0.31717
       8     H     0.41046  0.41046  0.00000  0.17907
       9     H     0.42292  0.42292  0.00000  0.15416
      10     C     3.15275  3.15275  0.00000 -0.30551
      11     H     0.40969  0.40969  0.00000  0.18062
      12     H     0.42759  0.42759  0.00000  0.14483
      13     C     3.15203  3.15203  0.00000 -0.30406
      14     H     0.42289  0.42289  0.00000  0.15421
      15     H     0.42419  0.42419  0.00000  0.15161
      16     C     3.24096  3.24096  0.00000 -0.48192
      17     H     0.42179  0.42179  0.00000  0.15642
      18     H     0.42435  0.42435  0.00000  0.15129
      19     H     0.42168  0.42168  0.00000  0.15665
      20     H     0.41930  0.41930  0.00000  0.16140
      21     H     0.42039  0.42039  0.00000  0.15922

   Total alpha = 29.00000, Total beta = 29.00000, Total charge =  0.00000
