                              Psi4 1.0.54 Driver

  ==> Input File <==

--------------------------------------------------------------------------
set {
	reference rhf
	basis cc-pvtz
}

set_num_threads( 4 )
memory 2 gb

molecule MOL {
0 1

H	 -2.662722	 0.958741	 -0.622726
N	 -1.683587	 1.011794	 -0.439557
C	 -0.913394	 0.622911	 -1.606482
H	 -1.485080	 0.397066	 0.321167
C	 0.567484	 0.697701	 -1.313135
H	 -1.142833	 -0.380703	 -1.962377
H	 -1.134137	 1.312579	 -2.413750
O	 0.881195	 -0.248324	 -0.336237
H	 1.134648	 0.499500	 -2.221548
H	 0.820921	 1.696104	 -0.964008
C	 2.208068	 -0.234417	 0.074171
H	 2.725499	 -1.027054	 -0.446768
H	 2.688377	 0.712084	 -0.164856
H	 2.295137	 -0.403407	 1.144883

	symmetry c1
}
set optking {
	frozen_dihedral = ("
		5 8 11 13
	")
}

ee,wfn = optimize('scf', return_wfn=True)
oeprop( wfn, 'DIPOLE', 'QUADRUPOLE', 'MULLIKEN_CHARGES')
f=open( 'psi4out.xyz', 'w' )
f.write( "14  " )
f.write( str(ee) + "\n" )
f.write( MOL.save_string_xyz() )
f.close()
--------------------------------------------------------------------------

    Molecular point group: c1
  Charge       = 0
  Multiplicity = 1
  Basis Set: CC-PVTZ
  Basis Set:
  @DF-RHF Final Energy:  -248.22281839422979
    Total Energy =                       -248.2228183942295914
    Molecular point group: c1
  Basis Set: CC-PVTZ
  Basis Set:
  Basis Set: CC-PVTZ
  Basis Set:
  @DF-RHF Final Energy:  -248.22335081752794
    Total Energy =                       -248.2233508175280008
  Basis Set: CC-PVTZ
  Basis Set:
  Basis Set: CC-PVTZ
  Basis Set:
  @DF-RHF Final Energy:  -248.22347402745629
    Total Energy =                       -248.2234740274562341
  Basis Set: CC-PVTZ
  Basis Set:
  Basis Set: CC-PVTZ
  Basis Set:
  @DF-RHF Final Energy:  -248.22347503224225
    Total Energy =                       -248.2234750322420496
  Basis Set: CC-PVTZ
  Basis Set:
  Charge       = 0
  Multiplicity = 1
  Basis Set: CC-PVTZ
  Basis Set:

    Orbital Energies (a.u.)
    -----------------------

    Doubly Occupied:

       1A    -20.548166     2A    -15.523158     3A    -11.264406
       4A    -11.263345     5A    -11.239488     6A     -1.380981
       7A     -1.175607     8A     -1.000519     9A     -0.907885
      10A     -0.815535    11A     -0.683889    12A     -0.674304
      13A     -0.645898    14A     -0.611913    15A     -0.607510
      16A     -0.541063    17A     -0.533958    18A     -0.497813
      19A     -0.473797    20A     -0.415917    21A     -0.383547

  @DF-RHF Final Energy:  -248.22347514610269

   => Energetics <=

    Nuclear Repulsion Energy =            194.4902358776325002
    One-Electron Energy =                -723.0500217385535962
    Two-Electron Energy =                 280.3363107148186373
    DFT Exchange-Correlation Energy =       0.0000000000000000
    Empirical Dispersion Energy =           0.0000000000000000
    PCM Polarization Energy =               0.0000000000000000
    EFP Energy =                            0.0000000000000000
    Total Energy =                       -248.2234751461024871
    Molecular point group: c1
  Basis Set: CC-PVTZ
  Basis Set:

  -Total Gradient:
     Atom            X                  Y                   Z
    ------   -----------------  -----------------  -----------------
       1        0.000000580869    -0.000001298322     0.000003340146
       2       -0.000004672509    -0.000003835318     0.000004860409
       3        0.000002927596     0.000020825151    -0.000003202104
       4       -0.000002202762    -0.000001803778     0.000001651438
       5       -0.000480505455     0.001261306411     0.001359254212
       6        0.000011188416     0.000005560492     0.000005959685
       7       -0.000003905278     0.000001939921    -0.000006745974
       8        0.000898715099    -0.002080479107    -0.002601984504
       9        0.000001322331     0.000001393759     0.000003412329
      10       -0.000005672649    -0.000008588904     0.000002252661
      11       -0.001131262996     0.001650636114     0.003395032594
      12       -0.000003559983     0.000009397815     0.000006577077
      13        0.000715354106    -0.000855913177    -0.002152578697
      14        0.000001693219     0.000000858944    -0.000017829273

  **** Optimization is complete! (in 5 steps) ****
    Final optimized geometry and variables:
    Molecular point group: c1

    Geometry (in Angstrom), charge = 0, multiplicity = 1:

    H           -2.891819950401     0.508330797584     0.097429902256
    N           -1.913935816676     0.591835961473     0.275772970053
    C           -1.138110000048     0.241108843814    -0.899419828782
    H           -1.690731018310    -0.024406958807     1.028321059994
    C            0.341234335245     0.360001661566    -0.612725553204
    H           -1.337379630913    -0.765156324770    -1.265757251798
    H           -1.384613145953     0.932500935195    -1.697832259973
    O            0.685043211884    -0.583083619551     0.358088773906
    H            0.906625740379     0.187510474116    -1.527463230293
    H            0.564037529691     1.362274985483    -0.256514414407
    C            2.010044850378    -0.558634759688     0.788489944919
    H            2.585991123538    -1.337473395893     0.296392636476
    H            2.486871970361     0.391751563007     0.570868732039
    H            2.036781456436    -0.730299477554     1.856181199928

  Mulliken Charges: (a.u.)
   Center  Symbol    Alpha    Beta     Spin     Total
       1     H     0.43032  0.43032  0.00000  0.13936
       2     N     3.69426  3.69426  0.00000 -0.38852
       3     C     3.02358  3.02358  0.00000 -0.04716
       4     H     0.42224  0.42224  0.00000  0.15551
       5     C     2.96838  2.96838  0.00000  0.06325
       6     H     0.46472  0.46472  0.00000  0.07057
       7     H     0.45872  0.45872  0.00000  0.08256
       8     O     4.18361  4.18361  0.00000 -0.36722
       9     H     0.47062  0.47062  0.00000  0.05877
      10     H     0.46774  0.46774  0.00000  0.06451
      11     C     3.02825  3.02825  0.00000 -0.05650
      12     H     0.46286  0.46286  0.00000  0.07429
      13     H     0.47219  0.47219  0.00000  0.05562
      14     H     0.45252  0.45252  0.00000  0.09496

   Total alpha = 21.00000, Total beta = 21.00000, Total charge = -0.00000

*** Psi4 exiting successfully. Buy a developer a beer!
