  ==> Input File <==

--------------------------------------------------------------------------
set {
	reference rhf
	basis 6-31G*
}

set_num_threads( 1 )
memory 2 gb

molecule MOL {
0 1

O	 3.225979	 0.970355	 -0.599647
C	 2.701189	 0.057885	 -0.047330
C	 1.245376	 -0.013843	 0.345420
O	 3.347903	 -1.046386	 0.304773
C	 0.455112	 1.231400	 -0.050772
H	 0.838542	 -0.913825	 -0.103701
H	 1.208210	 -0.175333	 1.419774
C	 -0.998893	 1.219485	 0.433193
H	 0.482531	 1.345121	 -1.130325
H	 0.957290	 2.103070	 0.354729
C	 -1.883438	 0.145884	 -0.207175
H	 -1.431207	 2.195402	 0.224832
H	 -1.019646	 1.105716	 1.516076
C	 -3.347647	 0.245583	 0.225435
H	 -1.822183	 0.231698	 -1.291012
H	 -1.510341	 -0.844814	 0.042401
C	 -3.520285	 0.621451	 1.698204
H	 -3.843821	 -0.705067	 0.037522
H	 -3.856941	 0.981852	 -0.394425
C	 -4.985336	 0.715175	 2.123107
H	 -3.011100	 -0.112710	 2.318994
H	 -3.028716	 1.573549	 1.887017
H	 -5.074951	 0.983098	 3.171340
H	 -5.496637	 -0.232480	 1.979174
H	 -5.514436	 1.466351	 1.543398
C	 4.728119	 -1.109107	 -0.004993
H	 4.882018	 -1.033965	 -1.071845
H	 5.068212	 -2.067527	 0.355250
H	 5.265056	 -0.311663	 0.488280

	symmetry c1
}
set optking {
	frozen_dihedral = ("
		21 17 14 11,
		15 11 8 5,
		6 3 5 9,
		11 8 5 9,
		2 4 26 27,
		1 2 4 26,
		6 3 2 1
	")
}

ee = energy('scf')
oeprop('DIPOLE', 'QUADRUPOLE', 'MULLIKEN_CHARGES')
f=open( 'psi4out.xyz', 'w' )
f.write( "29  " )
f.write( str(ee) + "\n" )
f.write( MOL.save_string_xyz() )
f.close()
--------------------------------------------------------------------------

    Molecular point group: c1

    Geometry (in Angstrom), charge = 0, multiplicity = 1:

       Center              X                  Y                   Z               Mass
    ------------   -----------------  -----------------  -----------------  -----------------
           O          3.094198002460     0.706123861074    -0.984776925479    15.994914619560
           C          2.569408002460    -0.206346138926    -0.432459925479    12.000000000000
           C          1.113595002460    -0.278074138926    -0.039709925479    12.000000000000
           O          3.216122002460    -1.310617138926    -0.080356925479    15.994914619560
           C          0.323331002460     0.967168861074    -0.435901925479    12.000000000000
           H          0.706761002460    -1.178056138926    -0.488830925479     1.007825032070
           H          1.076429002460    -0.439564138926     1.034644074521     1.007825032070
           C         -1.130673997540     0.955253861074     0.048063074521    12.000000000000
           H          0.350750002460     1.080889861074    -1.515454925479     1.007825032070
           H          0.825509002460     1.838838861074    -0.030400925479     1.007825032070
           C         -2.015218997540    -0.118347138926    -0.592304925479    12.000000000000
           H         -1.562987997540     1.931170861074    -0.160297925479     1.007825032070
           H         -1.151426997540     0.841484861074     1.130946074521     1.007825032070
           C         -3.479427997540    -0.018648138926    -0.159694925479    12.000000000000
           H         -1.953963997540    -0.032533138926    -1.676141925479     1.007825032070
           H         -1.642121997540    -1.109045138926    -0.342728925479     1.007825032070
           C         -3.652065997540     0.357219861074     1.313074074521    12.000000000000
           H         -3.975601997540    -0.969298138926    -0.347607925479     1.007825032070
           H         -3.988721997540     0.717620861074    -0.779554925479     1.007825032070
           C         -5.117116997540     0.450943861074     1.737977074521    12.000000000000
           H         -3.142880997540    -0.376941138926     1.933864074521     1.007825032070
           H         -3.160496997540     1.309317861074     1.501887074521     1.007825032070
           H         -5.206731997540     0.718866861074     2.786210074521     1.007825032070
           H         -5.628417997540    -0.496711138926     1.594044074521     1.007825032070
           H         -5.646216997540     1.202119861074     1.158268074521     1.007825032070
           C          4.596338002460    -1.373338138926    -0.390122925479    12.000000000000
           H          4.750237002460    -1.298196138926    -1.456974925479     1.007825032070
           H          4.936431002460    -2.331758138926    -0.029879925479     1.007825032070
           H          5.133275002460    -0.575894138926     0.103150074521     1.007825032070

  Charge       = 0
  Multiplicity = 1
  Basis Set: 6-31G*
  Basis Set:

    Orbital Energies (a.u.)
    -----------------------

    Doubly Occupied:

       1A    -20.603258     2A    -20.545028     3A    -11.371844
       4A    -11.280576     5A    -11.234534     6A    -11.218475
       7A    -11.216629     8A    -11.215611     9A    -11.214892
      10A    -11.214046    11A    -11.208553    12A     -1.468937
      13A     -1.362363    14A     -1.100213    15A     -1.066147
      16A     -1.016297    17A     -0.977046    18A     -0.928758
      19A     -0.861462    20A     -0.822038    21A     -0.774065
      22A     -0.756957    23A     -0.700902    24A     -0.682159
      25A     -0.671658    26A     -0.646975    27A     -0.627705
      28A     -0.604005    29A     -0.600062    30A     -0.581493
      31A     -0.565978    32A     -0.554633    33A     -0.546394
      34A     -0.523892    35A     -0.516172    36A     -0.506713
      37A     -0.491329    38A     -0.485233    39A     -0.475046
      40A     -0.456819    41A     -0.451192    42A     -0.450168
      43A     -0.441976    44A     -0.436906

  @DF-RHF Final Energy:  -501.03769068633676

   => Energetics <=

    Nuclear Repulsion Energy =            618.6117905975162330
    One-Electron Energy =               -1908.3485149037958308
    Two-Electron Energy =                 788.6990336199409057
    DFT Exchange-Correlation Energy =       0.0000000000000000
    Empirical Dispersion Energy =           0.0000000000000000
    PCM Polarization Energy =               0.0000000000000000
    EFP Energy =                            0.0000000000000000
    Total Energy =                       -501.0376906863385784

  Mulliken Charges: (a.u.)
   Center  Symbol    Alpha    Beta     Spin     Total
       1     O     4.28601  4.28601  0.00000 -0.57203
       2     C     2.60473  2.60473  0.00000  0.79054
       3     C     3.20977  3.20977  0.00000 -0.41955
       4     O     4.30753  4.30753  0.00000 -0.61506
       5     C     3.15193  3.15193  0.00000 -0.30387
       6     H     0.39884  0.39884  0.00000  0.20233
       7     H     0.40143  0.40143  0.00000  0.19713
       8     C     3.16451  3.16451  0.00000 -0.32903
       9     H     0.41354  0.41354  0.00000  0.17291
      10     H     0.40914  0.40914  0.00000  0.18172
      11     C     3.15501  3.15501  0.00000 -0.31003
      12     H     0.41830  0.41830  0.00000  0.16340
      13     H     0.41921  0.41921  0.00000  0.16158
      14     C     3.15125  3.15125  0.00000 -0.30251
      15     H     0.42035  0.42035  0.00000  0.15930
      16     H     0.42328  0.42328  0.00000  0.15345
      17     C     3.15833  3.15833  0.00000 -0.31666
      18     H     0.42138  0.42138  0.00000  0.15725
      19     H     0.42291  0.42291  0.00000  0.15417
      20     C     3.23789  3.23789  0.00000 -0.47578
      21     H     0.42398  0.42398  0.00000  0.15205
      22     H     0.41790  0.41790  0.00000  0.16420
      23     H     0.41965  0.41965  0.00000  0.16071
      24     H     0.42221  0.42221  0.00000  0.15558
      25     H     0.42172  0.42172  0.00000  0.15656
      26     C     3.09240  3.09240  0.00000 -0.18479
      27     H     0.40909  0.40909  0.00000  0.18182
      28     H     0.40854  0.40854  0.00000  0.18291
      29     H     0.40915  0.40915  0.00000  0.18170

   Total alpha = 44.00000, Total beta = 44.00000, Total charge =  0.00000
