  ==> Input File <==

--------------------------------------------------------------------------
set {
	reference rhf
	basis 6-31G*
}

set_num_threads( 1 )
memory 2 gb

molecule MOL {
0 1

O	 0.501101	 0.382679	 0.979300
C	 1.122059	 0.121804	 -0.000188
C	 0.838840	 0.648784	 -1.385819
O	 2.172624	 -0.688929	 0.000216
C	 -0.362236	 1.587621	 -1.443635
H	 1.741363	 1.142134	 -1.736265
H	 0.699374	 -0.209536	 -2.037426
C	 -0.627114	 2.106388	 -2.857879
H	 -0.196989	 2.422852	 -0.770147
H	 -1.240436	 1.069353	 -1.071256
C	 -1.829656	 3.046799	 -2.925132
H	 0.256167	 2.624099	 -3.226482
H	 -0.789430	 1.265398	 -3.529042
H	 -1.682947	 3.915873	 -2.290435
H	 -1.995376	 3.400258	 -3.937989
H	 -2.736100	 2.547290	 -2.595753
C	 3.452279	 -0.082609	 0.000533
H	 3.583069	 0.529321	 -0.880332
H	 4.163299	 -0.894027	 0.001117
H	 3.582335	 0.529955	 0.881077

	symmetry c1
}
set optking {
	frozen_dihedral = ("
		9 5 8 12,
		1 2 3 6,
		9 5 3 6
	")
}

ee = energy('scf')
oeprop('DIPOLE', 'QUADRUPOLE', 'MULLIKEN_CHARGES')
f=open( 'psi4out.xyz', 'w' )
f.write( "20  " )
f.write( str(ee) + "\n" )
f.write( MOL.save_string_xyz() )
f.close()
--------------------------------------------------------------------------

    Molecular point group: c1

    Geometry (in Angstrom), charge = 0, multiplicity = 1:

       Center              X                  Y                   Z               Mass
    ------------   -----------------  -----------------  -----------------  -----------------
           O         -0.182220675615    -0.502315874467     1.918595575229    15.994914619560
           C          0.438737324385    -0.763190874467     0.939107575229    12.000000000000
           C          0.155518324385    -0.236210874467    -0.446523424771    12.000000000000
           O          1.489302324385    -1.573923874467     0.939511575229    15.994914619560
           C         -1.045557675615     0.702626125533    -0.504339424771    12.000000000000
           H          1.058041324385     0.257139125533    -0.796969424771     1.007825032070
           H          0.016052324385    -1.094530874467    -1.098130424771     1.007825032070
           C         -1.310435675615     1.221393125533    -1.918583424771    12.000000000000
           H         -0.880310675615     1.537857125533     0.169148575229     1.007825032070
           H         -1.923757675615     0.184358125533    -0.131960424771     1.007825032070
           C         -2.512977675615     2.161804125533    -1.985836424771    12.000000000000
           H         -0.427154675615     1.739104125533    -2.287186424771     1.007825032070
           H         -1.472751675615     0.380403125533    -2.589746424771     1.007825032070
           H         -2.366268675615     3.030878125533    -1.351139424771     1.007825032070
           H         -2.678697675615     2.515263125533    -2.998693424771     1.007825032070
           H         -3.419421675615     1.662295125533    -1.656457424771     1.007825032070
           C          2.768957324385    -0.967603874467     0.939828575229    12.000000000000
           H          2.899747324385    -0.355673874467     0.058963575229     1.007825032070
           H          3.479977324385    -1.779021874467     0.940412575229     1.007825032070
           H          2.899013324385    -0.355039874467     1.820372575229     1.007825032070

  Charge       = 0
  Multiplicity = 1
  Basis Set: 6-31G*
  Basis Set:

    Orbital Energies (a.u.)
    -----------------------

    Doubly Occupied:

       1A    -20.588370     2A    -20.555081     3A    -11.373958
       4A    -11.296614     5A    -11.237715     6A    -11.221998
       7A    -11.220778     8A    -11.211971     9A     -1.464235
      10A     -1.368264    11A     -1.089342    12A     -1.018826
      13A     -0.979183    14A     -0.897495    15A     -0.807787
      16A     -0.768898    17A     -0.695431    18A     -0.682620
      19A     -0.677866    20A     -0.645005    21A     -0.618224
      22A     -0.588834    23A     -0.588089    24A     -0.555043
      25A     -0.538060    26A     -0.514431    27A     -0.493526
      28A     -0.486549    29A     -0.479057    30A     -0.472107
      31A     -0.453408    32A     -0.432132

  @DF-RHF Final Energy:  -383.91851656707718

   => Energetics <=

    Nuclear Repulsion Energy =            383.2822701968925685
    One-Electron Energy =               -1282.3598633460026122
    Two-Electron Energy =                 515.1590765820329807
    DFT Exchange-Correlation Energy =       0.0000000000000000
    Empirical Dispersion Energy =           0.0000000000000000
    PCM Polarization Energy =               0.0000000000000000
    EFP Energy =                            0.0000000000000000
    Total Energy =                       -383.9185165670770630

  Mulliken Charges: (a.u.)
   Center  Symbol    Alpha    Beta     Spin     Total
       1     O     4.25771  4.25771  0.00000 -0.51543
       2     C     2.61432  2.61432  0.00000  0.77135
       3     C     3.21559  3.21559  0.00000 -0.43118
       4     O     4.30885  4.30885  0.00000 -0.61770
       5     C     3.15117  3.15117  0.00000 -0.30235
       6     H     0.40839  0.40839  0.00000  0.18323
       7     H     0.39857  0.39857  0.00000  0.20286
       8     C     3.15392  3.15392  0.00000 -0.30783
       9     H     0.41314  0.41314  0.00000  0.17373
      10     H     0.41036  0.41036  0.00000  0.17927
      11     C     3.23935  3.23935  0.00000 -0.47870
      12     H     0.42444  0.42444  0.00000  0.15113
      13     H     0.42273  0.42273  0.00000  0.15455
      14     H     0.42014  0.42014  0.00000  0.15973
      15     H     0.41875  0.41875  0.00000  0.16251
      16     H     0.41940  0.41940  0.00000  0.16120
      17     C     3.09407  3.09407  0.00000 -0.18814
      18     H     0.42055  0.42055  0.00000  0.15890
      19     H     0.39996  0.39996  0.00000  0.20008
      20     H     0.40861  0.40861  0.00000  0.18279

   Total alpha = 32.00000, Total beta = 32.00000, Total charge = -0.00000
