                              Psi4 1.0.54 Driver

  ==> Input File <==

--------------------------------------------------------------------------
set {
	reference rhf
	basis cc-pvtz
}

set_num_threads( 4 )
memory 2 gb

molecule MOL {
0 1

O	 0.496141	 1.205094	 0.577132
C	 0.485107	 0.171416	 -0.000134
C	 1.606966	 -0.836201	 0.000174
O	 -0.533035	 -0.241686	 -0.734517
C	 2.988788	 -0.202529	 -0.000115
H	 1.465110	 -1.474645	 -0.864821
H	 1.465209	 -1.474077	 0.865596
H	 3.131767	 0.419673	 -0.873407
H	 3.750876	 -0.972315	 0.000098
H	 3.131883	 0.420264	 0.872742
C	 -1.668911	 0.606260	 -0.829715
C	 -2.683439	 -0.078650	 -1.715219
H	 -1.364573	 1.559455	 -1.238548
H	 -2.062059	 0.782490	 0.161598
H	 -2.278371	 -0.250743	 -2.704500
H	 -3.565608	 0.543547	 -1.809460
H	 -2.979889	 -1.032093	 -1.296370

	symmetry c1
}
set optking {
	frozen_dihedral = ("
		4 2 3 6
	")
}

ee,wfn = optimize('scf', return_wfn=True)
oeprop( wfn, 'DIPOLE', 'QUADRUPOLE', 'MULLIKEN_CHARGES')
f=open( 'psi4out.xyz', 'w' )
f.write( "17  " )
f.write( str(ee) + "\n" )
f.write( MOL.save_string_xyz() )
f.close()
--------------------------------------------------------------------------

    Molecular point group: c1
  Charge       = 0
  Multiplicity = 1
  Basis Set: CC-PVTZ
  Basis Set:
  @DF-RHF Final Energy:  -345.03930736903919
    Total Energy =                       -345.0393073690392498
    Molecular point group: c1
  Basis Set: CC-PVTZ
  Basis Set:
  Basis Set: CC-PVTZ
  Basis Set:
  @DF-RHF Final Energy:  -345.03650887644210
    Total Energy =                       -345.0365088764422126
  Basis Set: CC-PVTZ
  Basis Set:
  Basis Set: CC-PVTZ
  Basis Set:
  @DF-RHF Final Energy:  -345.03960793718693
    Total Energy =                       -345.0396079371866449
  Basis Set: CC-PVTZ
  Basis Set:
  Basis Set: CC-PVTZ
  Basis Set:
  @DF-RHF Final Energy:  -345.03922366973109
    Total Energy =                       -345.0392236697308590
  Basis Set: CC-PVTZ
  Basis Set:
  Basis Set: CC-PVTZ
  Basis Set:
  @DF-RHF Final Energy:  -345.03964711572104
    Total Energy =                       -345.0396471157212090
  Basis Set: CC-PVTZ
  Basis Set:
  Basis Set: CC-PVTZ
  Basis Set:
  @DF-RHF Final Energy:  -345.03965299654345
    Total Energy =                       -345.0396529965437367
  Basis Set: CC-PVTZ
  Basis Set:
  Charge       = 0
  Multiplicity = 1
  Basis Set: CC-PVTZ
  Basis Set:

    Orbital Energies (a.u.)
    -----------------------

    Doubly Occupied:

       1A    -20.595226     2A    -20.531004     3A    -11.363477
       4A    -11.282693     5A    -11.235262     6A    -11.220565
       7A    -11.216556     8A     -1.471018     9A     -1.364254
      10A     -1.070670    11A     -1.032985    12A     -0.911346
      13A     -0.849535    14A     -0.776497    15A     -0.697218
      16A     -0.690956    17A     -0.668732    18A     -0.626041
      19A     -0.589096    20A     -0.576117    21A     -0.557260
      22A     -0.528010    23A     -0.524371    24A     -0.512170
      25A     -0.504818    26A     -0.492246    27A     -0.456142
      28A     -0.437736

  @DF-RHF Final Energy:  -345.03965361530680

   => Energetics <=

    Nuclear Repulsion Energy =            315.3005331774893989
    One-Electron Energy =               -1095.1163712436541573
    Two-Electron Energy =                 434.7761844508580680
    DFT Exchange-Correlation Energy =       0.0000000000000000
    Empirical Dispersion Energy =           0.0000000000000000
    PCM Polarization Energy =               0.0000000000000000
    EFP Energy =                            0.0000000000000000
    Total Energy =                       -345.0396536153067473
    Molecular point group: c1
  Basis Set: CC-PVTZ
  Basis Set:

  -Total Gradient:
     Atom            X                  Y                   Z
    ------   -----------------  -----------------  -----------------
       1       -0.000081796349    -0.000241592496    -0.000106529985
       2       -0.000475462567    -0.000495796491     0.001481109691
       3        0.000786498188     0.001022439843    -0.001413874806
       4        0.000333990619     0.000434650110    -0.000822967102
       5       -0.000038957497    -0.000012370875     0.000064937476
       6       -0.000560525269    -0.000776625835     0.000813206082
       7        0.000015572691     0.000020485745     0.000007858511
       8       -0.000026585367    -0.000002054847    -0.000018467498
       9       -0.000018535972    -0.000003455251     0.000007627936
      10        0.000027579744     0.000024399328     0.000016511572
      11        0.000060275285     0.000064362848    -0.000109956135
      12       -0.000012976074    -0.000016896439     0.000037538110
      13       -0.000012026343     0.000023544818    -0.000001164869
      14        0.000001744972    -0.000017325654     0.000045496057
      15        0.000013263531     0.000010873108    -0.000016497207
      16        0.000006894694     0.000000521950     0.000004095476
      17       -0.000018954289    -0.000035159860     0.000011076691

  **** Optimization is complete! (in 7 steps) ****
    Final optimized geometry and variables:
    Molecular point group: c1

    Geometry (in Angstrom), charge = 0, multiplicity = 1:

    O            0.430470182318     1.229930577978     0.768509728589
    C            0.433879180903     0.139888300152     0.304908566383
    C            1.628517877721    -0.782300631019     0.302240085096
    O           -0.625579207870    -0.414394716175    -0.255003469537
    C            2.947443628489    -0.041872802800     0.122540620137
    H            1.484403860467    -1.545851786954    -0.449024515831
    H            1.615679945181    -1.288657616596     1.263318296867
    H            2.990826517914     0.448865895233    -0.842481156119
    H            3.776141641612    -0.736287920533     0.183621102011
    H            3.071795419712     0.712775230781     0.885931414722
    C           -1.833835180618     0.333624270263    -0.269251179796
    C           -2.889627470691    -0.508156564134    -0.946962161656
    H           -1.667074602015     1.262367241884    -0.796163450332
    H           -2.110765680761     0.575566757456     0.747209227639
    H           -2.600670351052    -0.744631475796    -1.963336211657
    H           -3.827189140619     0.034417179968    -0.974701242019
    H           -3.046479998900    -1.435917471789    -0.411131688721

  Mulliken Charges: (a.u.)
   Center  Symbol    Alpha    Beta     Spin     Total
       1     O     4.20103  4.20103  0.00000 -0.40205
       2     C     2.81311  2.81311  0.00000  0.37379
       3     C     3.08809  3.08809  0.00000 -0.17618
       4     O     4.14845  4.14845  0.00000 -0.29690
       5     C     3.14230  3.14230  0.00000 -0.28460
       6     H     0.43869  0.43869  0.00000  0.12262
       7     H     0.44653  0.44653  0.00000  0.10693
       8     H     0.45326  0.45326  0.00000  0.09347
       9     H     0.45006  0.45006  0.00000  0.09988
      10     H     0.44203  0.44203  0.00000  0.11594
      11     C     2.97793  2.97793  0.00000  0.04413
      12     C     3.13319  3.13319  0.00000 -0.26637
      13     H     0.45399  0.45399  0.00000  0.09202
      14     H     0.45429  0.45429  0.00000  0.09142
      15     H     0.45135  0.45135  0.00000  0.09729
      16     H     0.45427  0.45427  0.00000  0.09145
      17     H     0.45143  0.45143  0.00000  0.09714

   Total alpha = 28.00000, Total beta = 28.00000, Total charge = -0.00000

*** Psi4 exiting successfully. Buy a developer a beer!
