  ==> Input File <==

--------------------------------------------------------------------------
set {
	reference rhf
	basis cc-pvtz
}

set_num_threads( 4 )
memory 2 gb

molecule MOL {
0 1

H	 -3.642953	 0.223825	 0.000000
C	 -2.571844	 0.155001	 0.000000
C	 -1.957580	 -1.086132	 0.000000
C	 -1.807160	 1.303787	 0.000000
H	 -2.551493	 -1.979629	 0.000000
C	 -0.582719	 -1.174294	 0.000000
H	 -2.279934	 2.266806	 0.000000
C	 -0.427220	 1.213406	 0.000000
H	 -0.094904	 -2.127556	 0.000000
C	 0.196908	 -0.024061	 0.000000
H	 0.151409	 2.115254	 0.000000
C	 1.690041	 -0.173233	 0.000000
C	 2.375903	 -0.695845	 -1.241422
O	 2.325952	 0.115527	 0.963118
H	 2.016215	 -1.687222	 -1.489969
H	 3.437499	 -0.734184	 -1.056286
H	 2.179798	 -0.049844	 -2.088892

	symmetry c1
}
set optking {
	frozen_dihedral = ("
		13 12 10 8
	")
}

ee = optimize('scf')
oeprop('DIPOLE', 'QUADRUPOLE', 'MULLIKEN_CHARGES')
f=open( 'psi4out.xyz', 'w' )
f.write( "17  " )
f.write( str(ee) + "\n" )
f.write( MOL.save_string_xyz() )
f.close()
--------------------------------------------------------------------------

    Molecular point group: c1
  Charge       = 0
  Multiplicity = 1
  Basis Set: CC-PVTZ
  Basis Set:
  @DF-RHF Final Energy:  -382.59744837833153
    Total Energy =                       -382.5974483783319329
    Molecular point group: c1
  Basis Set: CC-PVTZ
  Basis Set:
  Basis Set: CC-PVTZ
  Basis Set:
  @DF-RHF Final Energy:  -382.59773143010108
    Total Energy =                       -382.5977314301007937
  Basis Set: CC-PVTZ
  Basis Set:
  Basis Set: CC-PVTZ
  Basis Set:
  @DF-RHF Final Energy:  -382.59742488760958
    Total Energy =                       -382.5974248876091224
  Basis Set: CC-PVTZ
  Basis Set:
  Basis Set: CC-PVTZ
  Basis Set:
  @DF-RHF Final Energy:  -382.59857794740162
    Total Energy =                       -382.5985779474015089
  Basis Set: CC-PVTZ
  Basis Set:
  Basis Set: CC-PVTZ
  Basis Set:
  @DF-RHF Final Energy:  -382.59859284646484
    Total Energy =                       -382.5985928464650669
  Basis Set: CC-PVTZ
  Basis Set:
  Basis Set: CC-PVTZ
  Basis Set:
  @DF-RHF Final Energy:  -382.59859849244287
    Total Energy =                       -382.5985984924432159
  Basis Set: CC-PVTZ
  Basis Set:
  Charge       = 0
  Multiplicity = 1
  Basis Set: CC-PVTZ
  Basis Set:

    Orbital Energies (a.u.)
    -----------------------

    Doubly Occupied:

       1A    -20.547079     2A    -11.330307     3A    -11.246681
       4A    -11.243035     5A    -11.240899     6A    -11.240063
       7A    -11.239074     8A    -11.237928     9A    -11.231169
      10A     -1.406951    11A     -1.171503    12A     -1.054389
      13A     -1.030182    14A     -1.001028    15A     -0.862951
      16A     -0.841533    17A     -0.765406    18A     -0.707309
      19A     -0.665919    20A     -0.649225    21A     -0.630180
      22A     -0.623805    23A     -0.602845    24A     -0.592564
      25A     -0.564297    26A     -0.527116    27A     -0.517596
      28A     -0.509869    29A     -0.496890    30A     -0.413652
      31A     -0.349165    32A     -0.347053

  @DF-RHF Final Energy:  -382.59859928433866

   => Energetics <=

    Nuclear Repulsion Energy =            403.7807418021143349
    One-Electron Energy =               -1318.9833499192577619
    Two-Electron Energy =                 532.6040088328044249
    DFT Exchange-Correlation Energy =       0.0000000000000000
    Empirical Dispersion Energy =           0.0000000000000000
    PCM Polarization Energy =               0.0000000000000000
    EFP Energy =                            0.0000000000000000
    Total Energy =                       -382.5985992843390022
    Molecular point group: c1
  Basis Set: CC-PVTZ
  Basis Set:

  -Total Gradient:
     Atom            X                  Y                   Z
    ------   -----------------  -----------------  -----------------
       1       -0.000005511032    -0.000012887976     0.000002508408
       2        0.000004440176    -0.000047877452    -0.000030325698
       3       -0.000020549568     0.000026763609     0.000000162170
       4        0.000040886179     0.000043993549     0.000034147928
       5       -0.000004962376     0.000002773919    -0.000000713787
       6       -0.000042421781     0.000029458774     0.000021602812
       7        0.000005253612    -0.000006956439    -0.000001407539
       8       -0.000031458751    -0.000008886339    -0.003256845401
       9        0.000013982452     0.000010572806     0.000002750778
      10        0.000126529591     0.001159669396     0.004198204284
      11       -0.000004902303     0.000003874278    -0.000000031441
      12       -0.000219183674    -0.003926685092     0.000128024500
      13        0.000125567513     0.002801849988    -0.001095673615
      14       -0.000018874870    -0.000014118985    -0.000030001800
      15        0.000006341302    -0.000025575252     0.000019460337
      16        0.000008813354    -0.000011607551     0.000000131679
      17        0.000016050174    -0.000024361233     0.000008006389

  **** Optimization is complete! (in 7 steps) ****
    Final optimized geometry and variables:
    Molecular point group: c1

    Geometry (in Angstrom), charge = 0, multiplicity = 1:

    H           -3.632578627490     0.277643491675    -0.005819505096
    C           -2.562914663094     0.193950458087     0.010964497099
    C           -1.966341214856    -1.052153461548     0.028420057895
    C           -1.778648474311     1.332233828425     0.014634137873
    H           -2.571055267178    -1.938613531910     0.028743964397
    C           -0.588693386759    -1.160139925254     0.038871377190
    H           -2.237907827794     2.301914884200    -0.001828814771
    C           -0.401813365365     1.225486335385     0.045289416463
    H           -0.132683480999    -2.132497049570     0.043453912023
    C            0.198943393592    -0.022030220237     0.064821085520
    H            0.206780470447     2.109110513029     0.066364751480
    C            1.701999526144    -0.113088799712     0.060595837722
    C            2.349381044797    -0.636220707583    -1.198627991105
    O            2.342203075742     0.278027544239     0.979648043514
    H            1.955745756302    -1.610688928924    -1.462200409929
    H            3.419078261614    -0.691398277503    -1.065283645546
    H            2.113209595368     0.033967670784    -2.017894763303

  Mulliken Charges: (a.u.)
   Center  Symbol    Alpha    Beta     Spin     Total
       1     H     0.42140  0.42140  0.00000  0.15720
       2     C     3.08401  3.08401  0.00000 -0.16803
       3     C     3.06535  3.06535  0.00000 -0.13069
       4     C     3.06353  3.06353  0.00000 -0.12706
       5     H     0.42151  0.42151  0.00000  0.15699
       6     C     3.09943  3.09943  0.00000 -0.19886
       7     H     0.42124  0.42124  0.00000  0.15753
       8     C     3.09466  3.09466  0.00000 -0.18932
       9     H     0.42371  0.42371  0.00000  0.15258
      10     C     2.95694  2.95694  0.00000  0.08613
      11     H     0.41866  0.41866  0.00000  0.16268
      12     C     2.87911  2.87911  0.00000  0.24178
      13     C     3.15093  3.15093  0.00000 -0.30186
      14     O     4.16773  4.16773  0.00000 -0.33546
      15     H     0.44951  0.44951  0.00000  0.10098
      16     H     0.43618  0.43618  0.00000  0.12763
      17     H     0.44611  0.44611  0.00000  0.10779

   Total alpha = 32.00000, Total beta = 32.00000, Total charge =  0.00000
