  ==> Input File <==

--------------------------------------------------------------------------
set {
	reference rhf
	basis 6-31G*
}

set_num_threads( 4 )
memory 2 gb

molecule MOL {
0 1

H	 3.463771	 0.168298	 -0.756243
C	 2.752674	 -0.045734	 0.033351
C	 1.322923	 0.120767	 -0.479465
H	 2.934561	 -1.059086	 0.377456
H	 2.958358	 0.631174	 0.856809
C	 0.306652	 -0.176050	 0.621399
H	 1.144658	 -0.551717	 -1.312180
H	 1.166477	 1.131798	 -0.836680
N	 -1.068537	 -0.011044	 0.085269
H	 0.372515	 -1.192590	 0.973735
H	 0.391664	 0.520566	 1.441230
O	 -1.265672	 0.903555	 -0.653663
O	 -1.891763	 -0.790196	 0.458425

	symmetry c1
}
set optking {
	frozen_dihedral = ("
		12 9 6 3
	")
}

ee = optimize('scf')
oeprop('DIPOLE', 'QUADRUPOLE', 'MULLIKEN_CHARGES')
f=open( 'psi4out.xyz', 'w' )
f.write( "13  " )
f.write( str(ee) + "\n" )
f.write( MOL.save_string_xyz() )
f.close()
--------------------------------------------------------------------------

    Molecular point group: c1
  Charge       = 0
  Multiplicity = 1
  Basis Set: 6-31G*
  Basis Set:
  @DF-RHF Final Energy:  -321.73461411921954
    Total Energy =                       -321.7346141192195432
    Molecular point group: c1
  Basis Set: 6-31G*
  Basis Set:
  Basis Set: 6-31G*
  Basis Set:
  @DF-RHF Final Energy:  -321.73138913231230
    Total Energy =                       -321.7313891323123016
  Basis Set: 6-31G*
  Basis Set:
  Basis Set: 6-31G*
  Basis Set:
  @DF-RHF Final Energy:  -321.73162446631960
    Total Energy =                       -321.7316244663194311
  Basis Set: 6-31G*
  Basis Set:
  Basis Set: 6-31G*
  Basis Set:
  @DF-RHF Final Energy:  -321.73474792545960
    Total Energy =                       -321.7347479254597147
  Basis Set: 6-31G*
  Basis Set:
  @DF-RHF Final Energy:  -321.73519149798250
    Total Energy =                       -321.7351914979824983
  Basis Set: 6-31G*
  Basis Set:
  @DF-RHF Final Energy:  -321.73525737786133
    Total Energy =                       -321.7352573778613305
  Basis Set: 6-31G*
  Basis Set:
  Basis Set: 6-31G*
  Basis Set:
  @DF-RHF Final Energy:  -321.73526744002407
    Total Energy =                       -321.7352674400241312
  Basis Set: 6-31G*
  Basis Set:
  Basis Set: 6-31G*
  Basis Set:
  @DF-RHF Final Energy:  -321.73526855523704
    Total Energy =                       -321.7352685552372122
  Basis Set: 6-31G*
  Basis Set:
  Charge       = 0
  Multiplicity = 1
  Basis Set: 6-31G*
  Basis Set:

    Orbital Energies (a.u.)
    -----------------------

    Doubly Occupied:

       1A    -20.601949     2A    -20.600801     3A    -15.848199
       4A    -11.300435     5A    -11.252014     6A    -11.238221
       7A     -1.631667     8A     -1.416893     9A     -1.133574
      10A     -1.027743    11A     -0.884569    12A     -0.828406
      13A     -0.760487    14A     -0.742562    15A     -0.725144
      16A     -0.662938    17A     -0.605988    18A     -0.581975
      19A     -0.551188    20A     -0.522838    21A     -0.510758
      22A     -0.484358    23A     -0.473206    24A     -0.449350

  @DF-RHF Final Energy:  -321.73526903014255

   => Energetics <=

    Nuclear Repulsion Energy =            247.1021140087983099
    One-Electron Energy =                -928.0042418672392159
    Two-Electron Energy =                 359.1668588282984160
    DFT Exchange-Correlation Energy =       0.0000000000000000
    Empirical Dispersion Energy =           0.0000000000000000
    PCM Polarization Energy =               0.0000000000000000
    EFP Energy =                            0.0000000000000000
    Total Energy =                       -321.7352690301425469
    Molecular point group: c1
  Basis Set: 6-31G*
  Basis Set:

  -Total Gradient:
     Atom            X                  Y                   Z
    ------   -----------------  -----------------  -----------------
       1        0.000006679057     0.000004657242     0.000001607166
       2       -0.000000918592     0.000022243932     0.000008849753
       3       -0.000026160928     0.000253677805     0.000076455259
       4        0.000002369329     0.000000889747    -0.000010939749
       5       -0.000005258570    -0.000010313488     0.000003298991
       6        0.000041527869    -0.000449965697    -0.000218077695
       7        0.000001178671    -0.000004136427    -0.000017376658
       8        0.000004542546     0.000000478052    -0.000003566292
       9       -0.000063864214     0.000363632539     0.000412962310
      10       -0.000014196405     0.000024852364    -0.000001495221
      11        0.000001985402     0.000002557309     0.000015928600
      12        0.000084427238    -0.000255272964    -0.000253823611
      13       -0.000032311400     0.000046699586    -0.000013822852

  **** Optimization is complete! (in 9 steps) ****
    Final optimized geometry and variables:
    Molecular point group: c1

    Geometry (in Angstrom), charge = 0, multiplicity = 1:

    H            3.497143940836     0.163333223531    -0.751604943084
    C            2.770655204566    -0.052517218700     0.023329356020
    C            1.350962147831     0.136567699108    -0.511864546337
    H            2.938493158310    -1.071080653656     0.359589782697
    H            2.971091304950     0.612638018786     0.857989545770
    C            0.323925517970    -0.162140430461     0.570791286170
    H            1.182794055635    -0.524030771397    -1.356438609919
    H            1.212833580191     1.148844340273    -0.866352459439
    N           -1.075269156501    -0.015050665911     0.081730335919
    H            0.390913332514    -1.168205006480     0.951434977360
    H            0.400764569219     0.534396999531     1.396383901198
    O           -1.313962440807     0.897821178693    -0.647878667819
    O           -1.873427097970    -0.806897375998     0.477375982240

  Mulliken Charges: (a.u.)
   Center  Symbol    Alpha    Beta     Spin     Total
       1     H     0.40752  0.40752  0.00000  0.18496
       2     C     3.24943  3.24943  0.00000 -0.49887
       3     C     3.16933  3.16933  0.00000 -0.33866
       4     H     0.41574  0.41574  0.00000  0.16853
       5     H     0.41597  0.41597  0.00000  0.16806
       6     C     3.08844  3.08844  0.00000 -0.17687
       7     H     0.40598  0.40598  0.00000  0.18805
       8     H     0.39437  0.39437  0.00000  0.21127
       9     N     3.22235  3.22235  0.00000  0.55530
      10     H     0.38582  0.38582  0.00000  0.22836
      11     H     0.38668  0.38668  0.00000  0.22665
      12     O     4.22978  4.22978  0.00000 -0.45957
      13     O     4.22860  4.22860  0.00000 -0.45720

   Total alpha = 24.00000, Total beta = 24.00000, Total charge =  0.00000
