  ==> Input File <==

--------------------------------------------------------------------------
set {
	reference rhf
	basis 6-31G*
}

set_num_threads( 4 )
memory 2 gb

molecule MOL {
0 1

H	 -2.455767	 -0.714878	 -0.691608
N	 -1.730209	 -0.024196	 -0.689823
C	 -0.563778	 -0.502042	 0.037919
H	 -2.108923	 0.792591	 -0.249152
C	 0.575259	 0.508231	 -0.048326
H	 -0.248860	 -1.435565	 -0.418763
H	 -0.772351	 -0.722253	 1.088038
C	 1.954651	 -0.143624	 0.035137
H	 0.475158	 1.060484	 -0.977307
H	 0.469181	 1.234488	 0.755973
H	 2.103292	 -0.853109	 -0.774172
H	 2.742821	 0.599562	 -0.030094
H	 2.083613	 -0.679371	 0.971560

	symmetry c1
}
set optking {
	frozen_dihedral = ("
		6 3 5 9
	")
}

ee = optimize('scf')
oeprop('DIPOLE', 'QUADRUPOLE', 'MULLIKEN_CHARGES')
f=open( 'psi4out.xyz', 'w' )
f.write( "13  " )
f.write( str(ee) + "\n" )
f.write( MOL.save_string_xyz() )
f.close()
--------------------------------------------------------------------------

    Molecular point group: c1
  Charge       = 0
  Multiplicity = 1
  Basis Set: 6-31G*
  Basis Set:
  @DF-RHF Final Energy:  -173.27953811587804
    Total Energy =                       -173.2795381158780685
    Molecular point group: c1
  Basis Set: 6-31G*
  Basis Set:
  Basis Set: 6-31G*
  Basis Set:
  @DF-RHF Final Energy:  -173.27980364899972
    Total Energy =                       -173.2798036489996889
  Basis Set: 6-31G*
  Basis Set:
  Basis Set: 6-31G*
  Basis Set:
  @DF-RHF Final Energy:  -173.27986304001286
    Total Energy =                       -173.2798630400129696
  Basis Set: 6-31G*
  Basis Set:
  Basis Set: 6-31G*
  Basis Set:
  @DF-RHF Final Energy:  -173.27986437082359
    Total Energy =                       -173.2798643708235886
  Basis Set: 6-31G*
  Basis Set:
  Charge       = 0
  Multiplicity = 1
  Basis Set: 6-31G*
  Basis Set:

    Orbital Energies (a.u.)
    -----------------------

    Doubly Occupied:

       1A    -15.533520     2A    -11.239992     3A    -11.211902
       4A    -11.209407     5A     -1.177025     6A     -1.034414
       7A     -0.898491     8A     -0.801031     9A     -0.653633
      10A     -0.638775    11A     -0.598560    12A     -0.565996
      13A     -0.532882    14A     -0.491350    15A     -0.474772
      16A     -0.468110    17A     -0.380987

  @DF-RHF Final Energy:  -173.27986445607092

   => Energetics <=

    Nuclear Repulsion Energy =            131.6756032626935280
    One-Electron Energy =                -494.0892401027326173
    Two-Electron Energy =                 189.1337723839682781
    DFT Exchange-Correlation Energy =       0.0000000000000000
    Empirical Dispersion Energy =           0.0000000000000000
    PCM Polarization Energy =               0.0000000000000000
    EFP Energy =                            0.0000000000000000
    Total Energy =                       -173.2798644560708112
    Molecular point group: c1
  Basis Set: 6-31G*
  Basis Set:

  -Total Gradient:
     Atom            X                  Y                   Z
    ------   -----------------  -----------------  -----------------
       1       -0.000029867858     0.000002356043    -0.000009681863
       2        0.000015460533    -0.000026467669     0.000025652132
       3       -0.002562307977     0.002562669241    -0.004721471712
       4       -0.000017036849     0.000014155495     0.000001945232
       5        0.003633227795    -0.004293583253    -0.001632981868
       6        0.001621755701    -0.001494222753     0.004150575396
       7       -0.000014572040     0.000007933985     0.000015392893
       8       -0.000002903947     0.000027437891    -0.000006725166
       9       -0.002649775280     0.003188510962     0.002156347031
      10        0.000006991736     0.000015267905     0.000011540939
      11       -0.000012386683     0.000003983329     0.000011297876
      12        0.000014700869    -0.000011304144    -0.000006828143
      13       -0.000003286002     0.000003262967     0.000004937254

  **** Optimization is complete! (in 5 steps) ****
    Final optimized geometry and variables:
    Molecular point group: c1

    Geometry (in Angstrom), charge = 0, multiplicity = 1:

    H           -2.519748260646    -0.649831904302    -0.446418105342
    N           -1.778409238922     0.021513098443    -0.506884750901
    C           -0.590411006656    -0.462982727281     0.178964711945
    H           -2.114363840764     0.860301721588    -0.072019334966
    C            0.555268268080     0.548843511236     0.091648869510
    H           -0.284928894020    -1.402312562015    -0.272323988748
    H           -0.771530293361    -0.695650086904     1.231913141091
    C            1.936351072058    -0.089172746045     0.217338132655
    H            0.458639932731     1.098957063842    -0.839175235733
    H            0.432115808772     1.289849311798     0.880376394406
    H            2.124830756248    -0.776588950583    -0.601915461034
    H            2.718675166776     0.662909823199     0.206955346696
    H            2.028788591507    -0.647109976536     1.145484052521

  Mulliken Charges: (a.u.)
   Center  Symbol    Alpha    Beta     Spin     Total
       1     H     0.33273  0.33273  0.00000  0.33455
       2     N     3.92047  3.92047  0.00000 -0.84093
       3     C     3.06007  3.06007  0.00000 -0.12014
       4     H     0.33528  0.33528  0.00000  0.32945
       5     C     3.15747  3.15747  0.00000 -0.31494
       6     H     0.42051  0.42051  0.00000  0.15898
       7     H     0.43478  0.43478  0.00000  0.13045
       8     C     3.24271  3.24271  0.00000 -0.48542
       9     H     0.41024  0.41024  0.00000  0.17953
      10     H     0.42582  0.42582  0.00000  0.14835
      11     H     0.41910  0.41910  0.00000  0.16181
      12     H     0.41836  0.41836  0.00000  0.16328
      13     H     0.42248  0.42248  0.00000  0.15503

   Total alpha = 17.00000, Total beta = 17.00000, Total charge = -0.00000
