  ==> Input File <==

--------------------------------------------------------------------------
set {
	reference rhf
	basis 6-31G*
}

set_num_threads( 4 )
memory 2 gb

molecule MOL {
0 1

H	 1.966172	 1.516061	 0.702788
O	 1.082769	 1.162381	 0.738794
C	 1.050492	 0.053836	 0.000068
C	 -0.318135	 -0.576402	 0.000164
O	 2.008583	 -0.352562	 -0.572557
C	 -1.454360	 0.441875	 -0.000474
H	 -0.374042	 -1.230163	 -0.866135
H	 -0.374274	 -1.229227	 0.867154
C	 -2.826123	 -0.230780	 0.000056
H	 -1.357605	 1.085198	 -0.868380
H	 -1.357504	 1.086451	 0.866496
H	 -2.959731	 -0.858053	 -0.876869
H	 -3.619374	 0.509403	 -0.000080
H	 -2.959371	 -0.857318	 0.877556

	symmetry c1
}
set optking {
	frozen_dihedral = ("
		2 3 4 7
	")
}

ee = optimize('scf')
oeprop('DIPOLE', 'QUADRUPOLE', 'MULLIKEN_CHARGES')
f=open( 'psi4out.xyz', 'w' )
f.write( "14  " )
f.write( str(ee) + "\n" )
f.write( MOL.save_string_xyz() )
f.close()
--------------------------------------------------------------------------

    Molecular point group: c1
  Charge       = 0
  Multiplicity = 1
  Basis Set: 6-31G*
  Basis Set:
  @DF-RHF Final Energy:  -305.87828607945761
    Total Energy =                       -305.8782860794576663
    Molecular point group: c1
  Basis Set: 6-31G*
  Basis Set:
  Basis Set: 6-31G*
  Basis Set:
  @DF-RHF Final Energy:  -305.87852299589048
    Total Energy =                       -305.8785229958905347
  Basis Set: 6-31G*
  Basis Set:
  Basis Set: 6-31G*
  Basis Set:
  @DF-RHF Final Energy:  -305.87877848355828
    Total Energy =                       -305.8787784835583921
  Basis Set: 6-31G*
  Basis Set:
  Basis Set: 6-31G*
  Basis Set:
  @DF-RHF Final Energy:  -305.87885169751070
    Total Energy =                       -305.8788516975107541
  Basis Set: 6-31G*
  Basis Set:
  Basis Set: 6-31G*
  Basis Set:
  @DF-RHF Final Energy:  -305.87885362018812
    Total Energy =                       -305.8788536201882380
  Basis Set: 6-31G*
  Basis Set:
  Basis Set: 6-31G*
  Basis Set:
  @DF-RHF Final Energy:  -305.87885693529023
    Total Energy =                       -305.8788569352901163
  Basis Set: 6-31G*
  Basis Set:
  Charge       = 0
  Multiplicity = 1
  Basis Set: 6-31G*
  Basis Set:

    Orbital Energies (a.u.)
    -----------------------

    Doubly Occupied:

       1A    -20.614597     2A    -20.549192     3A    -11.381300
       4A    -11.241078     5A    -11.231467     6A    -11.219897
       7A     -1.475427     8A     -1.364767     9A     -1.085494
      10A     -0.978595    11A     -0.846908    12A     -0.816721
      13A     -0.700019    14A     -0.683036    15A     -0.658434
      16A     -0.621234    17A     -0.591255    18A     -0.564231
      19A     -0.551175    20A     -0.522529    21A     -0.497988
      22A     -0.488564    23A     -0.471774    24A     -0.437269

  @DF-RHF Final Energy:  -305.87885695678722

   => Energetics <=

    Nuclear Repulsion Energy =            240.4105536698974674
    One-Electron Energy =                -893.3929172927195168
    Two-Electron Energy =                 347.1035066660349457
    DFT Exchange-Correlation Energy =       0.0000000000000000
    Empirical Dispersion Energy =           0.0000000000000000
    PCM Polarization Energy =               0.0000000000000000
    EFP Energy =                            0.0000000000000000
    Total Energy =                       -305.8788569567871036
    Molecular point group: c1
  Basis Set: 6-31G*
  Basis Set:

  -Total Gradient:
     Atom            X                  Y                   Z
    ------   -----------------  -----------------  -----------------
       1       -0.000002373617    -0.000001541548    -0.000004175990
       2       -0.000216538400     0.000471015114    -0.000667702283
       3        0.000224471295    -0.000466266905     0.000798595652
       4        0.000336865508    -0.000759648418     0.000413606752
       5       -0.000012610356    -0.000010034024     0.000004753269
       6        0.000002992647     0.000003865763     0.000008859093
       7       -0.000340769666     0.000758063334    -0.000555471046
       8        0.000004671120     0.000005238645    -0.000000789158
       9        0.000001456593    -0.000005191228    -0.000002128685
      10       -0.000001219858     0.000005962803    -0.000001277608
      11        0.000000252841    -0.000000275126     0.000002259301
      12        0.000003601987    -0.000002789234     0.000002878679
      13        0.000004882227     0.000000959790    -0.000003800894
      14       -0.000005682324     0.000000641033     0.000004392916

  **** Optimization is complete! (in 7 steps) ****
    Final optimized geometry and variables:
    Molecular point group: c1

    Geometry (in Angstrom), charge = 0, multiplicity = 1:

    H            2.092541724811     1.379831856789     0.635390919369
    O            1.191388418215     1.074921061788     0.680798874057
    C            1.101256296014    -0.042234750916    -0.038519529365
    C           -0.278398571407    -0.652178465266    -0.022484397928
    O            2.038503321195    -0.500616901278    -0.607357927150
    C           -1.436238308393     0.350304909445    -0.017843909912
    H           -0.335042049992    -1.306368480099    -0.883424564420
    H           -0.330518143918    -1.282147710383     0.862970690779
    C           -2.792210811276    -0.352874109861    -0.053814119777
    H           -1.346468396647     1.009882603351    -0.876644191410
    H           -1.369766576096     0.978485253579     0.862485608682
    H           -2.896510117149    -0.965397927886    -0.944557390126
    H           -3.602219787917     0.368979805652    -0.051805454001
    H           -2.922949124528    -0.999038960568     0.809606453558

  Mulliken Charges: (a.u.)
   Center  Symbol    Alpha    Beta     Spin     Total
       1     H     0.26725  0.26725  0.00000  0.46550
       2     O     4.34745  4.34745  0.00000 -0.69490
       3     C     2.62500  2.62500  0.00000  0.75001
       4     C     3.20754  3.20754  0.00000 -0.41507
       5     O     4.28128  4.28128  0.00000 -0.56256
       6     C     3.15819  3.15819  0.00000 -0.31639
       7     H     0.39620  0.39620  0.00000  0.20760
       8     H     0.39969  0.39969  0.00000  0.20062
       9     C     3.24258  3.24258  0.00000 -0.48516
      10     H     0.41542  0.41542  0.00000  0.16915
      11     H     0.40621  0.40621  0.00000  0.18757
      12     H     0.41888  0.41888  0.00000  0.16224
      13     H     0.41455  0.41455  0.00000  0.17089
      14     H     0.41975  0.41975  0.00000  0.16050

   Total alpha = 24.00000, Total beta = 24.00000, Total charge = -0.00000
