  ==> Input File <==

--------------------------------------------------------------------------
set {
	reference rhf
	basis cc-pvtz
}

set_num_threads( 4 )
memory 2 gb

molecule MOL {
0 1

H	 2.614283	 2.028610	 0.296620
O	 3.358864	 1.662087	 -0.142800
C	 3.565468	 0.338079	 0.273842
C	 2.533667	 -0.637565	 -0.272227
H	 4.548038	 0.064914	 -0.086598
H	 3.593945	 0.282242	 1.360360
C	 1.114816	 -0.402372	 0.240993
H	 2.544552	 -0.580764	 -1.356576
H	 2.850574	 -1.642962	 -0.005497
C	 0.113298	 -1.420414	 -0.302504
H	 0.796373	 0.598427	 -0.031033
H	 1.113377	 -0.446476	 1.328807
C	 -1.190988	 -0.823476	 -0.834255
H	 0.587692	 -2.003309	 -1.088259
H	 -0.128895	 -2.123053	 0.490031
C	 -1.045856	 0.028561	 -2.093902
H	 -1.877512	 -1.638584	 -1.045944
H	 -1.659458	 -0.231080	 -0.051467
C	 -2.384125	 0.518424	 -2.641151
H	 -0.536623	 -0.550768	 -2.861058
H	 -0.414231	 0.888529	 -1.892636
C	 -2.242593	 1.372546	 -3.896673
H	 -3.017934	 -0.337142	 -2.857650
H	 -2.897949	 1.090297	 -1.873031
H	 -1.760737	 0.817894	 -4.695055
H	 -3.209762	 1.700939	 -4.259782
H	 -1.644647	 2.257117	 -3.703420

	symmetry c1
}
set optking {
	frozen_dihedral = ("
		14 10 7 4
	")
}

ee = optimize('scf')
oeprop('DIPOLE', 'QUADRUPOLE', 'MULLIKEN_CHARGES')
f=open( 'psi4out.xyz', 'w' )
f.write( "27  " )
f.write( str(ee) + "\n" )
f.write( MOL.save_string_xyz() )
f.close()
--------------------------------------------------------------------------

    Molecular point group: c1
  Charge       = 0
  Multiplicity = 1
  Basis Set: CC-PVTZ
  Basis Set:
  @DF-RHF Final Energy:  -388.42272663973176
    Total Energy =                       -388.4227266397317635
    Molecular point group: c1
  Basis Set: CC-PVTZ
  Basis Set:
  Basis Set: CC-PVTZ
  Basis Set:
  @DF-RHF Final Energy:  -388.42297943803248
    Total Energy =                       -388.4229794380329395
  Basis Set: CC-PVTZ
  Basis Set:
  Basis Set: CC-PVTZ
  Basis Set:
  @DF-RHF Final Energy:  -388.42313979471419
    Total Energy =                       -388.4231397947145297
  Basis Set: CC-PVTZ
  Basis Set:
  Basis Set: CC-PVTZ
  Basis Set:
  @DF-RHF Final Energy:  -388.42320723979248
    Total Energy =                       -388.4232072397927595
  Basis Set: CC-PVTZ
  Basis Set:
  Basis Set: CC-PVTZ
  Basis Set:
  @DF-RHF Final Energy:  -388.42321009063261
    Total Energy =                       -388.4232100906323240
  Basis Set: CC-PVTZ
  Basis Set:
  Basis Set: CC-PVTZ
  Basis Set:
  @DF-RHF Final Energy:  -388.42321173054484
    Total Energy =                       -388.4232117305451766
  Basis Set: CC-PVTZ
  Basis Set:
  Charge       = 0
  Multiplicity = 1
  Basis Set: CC-PVTZ
  Basis Set:

    Orbital Energies (a.u.)
    -----------------------

    Doubly Occupied:

       1A    -20.545487     2A    -11.264865     3A    -11.216697
       4A    -11.214165     5A    -11.213588     6A    -11.212864
       7A    -11.212748     8A    -11.210529     9A    -11.205800
      10A     -1.363311    11A     -1.094653    12A     -1.060826
      13A     -1.011876    14A     -0.948217    15A     -0.888204
      16A     -0.821781    17A     -0.798012    18A     -0.780535
      19A     -0.697414    20A     -0.647256    21A     -0.635899
      22A     -0.616660    23A     -0.608812    24A     -0.583747
      25A     -0.574982    26A     -0.553885    27A     -0.542962
      28A     -0.525314    29A     -0.505311    30A     -0.500950
      31A     -0.481661    32A     -0.472769    33A     -0.469376
      34A     -0.459541    35A     -0.452247    36A     -0.440087
      37A     -0.425337

  @DF-RHF Final Energy:  -388.42321178313182

   => Energetics <=

    Nuclear Repulsion Energy =            465.0660793070896943
    One-Electron Energy =               -1448.4618391704452733
    Two-Electron Energy =                 594.9725480802238735
    DFT Exchange-Correlation Energy =       0.0000000000000000
    Empirical Dispersion Energy =           0.0000000000000000
    PCM Polarization Energy =               0.0000000000000000
    EFP Energy =                            0.0000000000000000
    Total Energy =                       -388.4232117831317055
    Molecular point group: c1
  Basis Set: CC-PVTZ
  Basis Set:

  -Total Gradient:
     Atom            X                  Y                   Z
    ------   -----------------  -----------------  -----------------
       1       -0.000006219574     0.000002221684    -0.000001304975
       2       -0.000006001298    -0.000001474344     0.000008226816
       3        0.000014374571    -0.000002851642    -0.000022349427
       4       -0.000312228401     0.001034437661    -0.001257206786
       5        0.000003034498    -0.000001442073     0.000000247899
       6       -0.000003557895    -0.000001613434    -0.000001825821
       7        0.000623496050    -0.001793181792     0.002152980357
       8        0.000000907193    -0.000000392180     0.000002601970
       9       -0.000000609170     0.000001041907     0.000004815134
      10       -0.001031787578     0.002324552516    -0.002395223299
      11        0.000009726686     0.000006725677     0.000008830138
      12        0.000006547680     0.000007514022    -0.000006322909
      13       -0.000004384450    -0.000022133650    -0.000007727764
      14        0.000711161232    -0.001556838372     0.001514830436
      15       -0.000005152501    -0.000002899469    -0.000008152458
      16        0.000005086835    -0.000001429826     0.000005579645
      17       -0.000006988819    -0.000000657164     0.000001014601
      18        0.000003433744     0.000002240212    -0.000002516616
      19       -0.000001208350     0.000006762490     0.000004094140
      20       -0.000000454310     0.000001419385     0.000000619018
      21        0.000000355492     0.000002967757    -0.000000099487
      22       -0.000000722970    -0.000007309245    -0.000002105620
      23        0.000000206571     0.000002403148     0.000000958478
      24        0.000001437293     0.000001240557     0.000000892383
      25        0.000002123294     0.000001434235    -0.000001859770
      26       -0.000000478347    -0.000002218171    -0.000000897399
      27       -0.000002097467    -0.000000519885     0.000001901314

  **** Optimization is complete! (in 7 steps) ****
    Final optimized geometry and variables:
    Molecular point group: c1

    Geometry (in Angstrom), charge = 0, multiplicity = 1:

    H            2.125577595929     1.913151598563     1.519372522320
    O            2.872269922018     1.587079430106     1.052743004462
    C            3.102958059517     0.242905015773     1.384139896889
    C            2.087810477557    -0.713257581826     0.777044361457
    H            4.089947093226     0.010560340135     1.007430319784
    H            3.133172563015     0.118603507769     2.464859304560
    C            0.660719143798    -0.521334478008     1.286634552384
    H            2.103801893639    -0.599206561870    -0.302534925118
    H            2.414822207539    -1.728243871143     0.991541337847
    C           -0.341252347584    -1.544935798241     0.714591679045
    H            0.332962079198     0.481455232951     1.033906704307
    H            0.654470112781    -0.576110354176     2.371707519990
    C           -1.656239995793    -0.946425443757     0.212907912605
    H            0.128419531382    -2.108258807857    -0.086597281861
    H           -0.566899980142    -2.278168116965     1.482048646152
    C           -1.529878089266    -0.155109895785    -1.087421332458
    H           -2.371353059083    -1.750017449895     0.060906497572
    H           -2.078157363068    -0.309596141938     0.987329071134
    C           -2.849078512677     0.457795007624    -1.549786687998
    H           -1.149714257469    -0.813408957427    -1.865195121496
    H           -0.793474834454     0.635578318743    -0.975160676712
    C           -2.726241449023     1.227496755121    -2.860606495546
    H           -3.590388952907    -0.328708276982    -1.662465903467
    H           -3.226316461104     1.121863511103    -0.776725594234
    H           -2.384782533990     0.581865192917    -3.662909448959
    H           -3.678929656755     1.649709293538    -3.159279563150
    H           -2.016650269825     2.043275165940    -2.770659923262

  Mulliken Charges: (a.u.)
   Center  Symbol    Alpha    Beta     Spin     Total
       1     H     0.39224  0.39224  0.00000  0.21552
       2     O     4.20593  4.20593  0.00000 -0.41186
       3     C     2.98017  2.98017  0.00000  0.03966
       4     C     3.08740  3.08740  0.00000 -0.17481
       5     H     0.44867  0.44867  0.00000  0.10265
       6     H     0.46957  0.46957  0.00000  0.06087
       7     C     3.11410  3.11410  0.00000 -0.22821
       8     H     0.45053  0.45053  0.00000  0.09895
       9     H     0.45477  0.45477  0.00000  0.09047
      10     C     3.10324  3.10324  0.00000 -0.20649
      11     H     0.45545  0.45545  0.00000  0.08911
      12     H     0.44515  0.44515  0.00000  0.10970
      13     C     3.09663  3.09663  0.00000 -0.19325
      14     H     0.45284  0.45284  0.00000  0.09432
      15     H     0.44493  0.44493  0.00000  0.11014
      16     C     3.08936  3.08936  0.00000 -0.17872
      17     H     0.44785  0.44785  0.00000  0.10429
      18     H     0.45429  0.45429  0.00000  0.09141
      19     C     3.08422  3.08422  0.00000 -0.16843
      20     H     0.45403  0.45403  0.00000  0.09195
      21     H     0.45139  0.45139  0.00000  0.09721
      22     C     3.14971  3.14971  0.00000 -0.29942
      23     H     0.45422  0.45422  0.00000  0.09155
      24     H     0.45497  0.45497  0.00000  0.09006
      25     H     0.45510  0.45510  0.00000  0.08980
      26     H     0.44865  0.44865  0.00000  0.10269
      27     H     0.45459  0.45459  0.00000  0.09082

   Total alpha = 37.00000, Total beta = 37.00000, Total charge = -0.00000
