                              Psi4 1.0.54 Driver

  ==> Input File <==

--------------------------------------------------------------------------
set {
	reference rhf
	basis cc-pvtz
}

set_num_threads( 4 )
memory 2 gb

molecule MOL {
0 1

H	 -2.656657	 0.818198	 0.962451
C	 -2.103808	 1.726085	 1.192630
O	 -0.735677	 1.538206	 1.049597
H	 -2.405105	 2.500817	 0.502776
H	 -2.361224	 2.038518	 2.203079
C	 -0.198950	 0.568846	 1.888586
C	 1.263701	 0.376180	 1.575732
H	 -0.299894	 0.873472	 2.930211
H	 -0.718981	 -0.378549	 1.764328
O	 1.401606	 -0.295166	 0.366636
H	 1.751495	 1.347664	 1.534433
H	 1.724153	 -0.197082	 2.380298
C	 2.714315	 -0.441627	 -0.061017
H	 2.765292	 -0.641548	 -1.128869
H	 3.305661	 0.447341	 0.150952
H	 3.143725	 -1.278506	 0.470147

	symmetry c1
}
set optking {
	frozen_dihedral = ("
		7 10 13 14
	")
}

ee,wfn = optimize('scf', return_wfn=True)
oeprop( wfn, 'DIPOLE', 'QUADRUPOLE', 'MULLIKEN_CHARGES')
f=open( 'psi4out.xyz', 'w' )
f.write( "16  " )
f.write( str(ee) + "\n" )
f.write( MOL.save_string_xyz() )
f.close()
--------------------------------------------------------------------------

    Molecular point group: c1
  Charge       = 0
  Multiplicity = 1
  Basis Set: CC-PVTZ
  Basis Set:
  @DF-RHF Final Energy:  -307.09597084899696
    Total Energy =                       -307.0959708489968421
    Molecular point group: c1
  Basis Set: CC-PVTZ
  Basis Set:
  Basis Set: CC-PVTZ
  Basis Set:
  @DF-RHF Final Energy:  -307.09683476539016
    Total Energy =                       -307.0968347653902129
  Basis Set: CC-PVTZ
  Basis Set:
  Basis Set: CC-PVTZ
  Basis Set:
  @DF-RHF Final Energy:  -307.09703152652088
    Total Energy =                       -307.0970315265209365
  Basis Set: CC-PVTZ
  Basis Set:
  Charge       = 0
  Multiplicity = 1
  Basis Set: CC-PVTZ
  Basis Set:

    Orbital Energies (a.u.)
    -----------------------

    Doubly Occupied:

       1A    -20.547726     2A    -20.546997     3A    -11.267614
       4A    -11.266874     5A    -11.261557     6A    -11.261439
       7A     -1.391245     8A     -1.373916     9A     -1.032065
      10A     -0.937272    11A     -0.892204    12A     -0.824354
      13A     -0.686034    14A     -0.682509    15A     -0.659192
      16A     -0.638458    17A     -0.631465    18A     -0.598265
      19A     -0.552458    20A     -0.536014    21A     -0.509425
      22A     -0.479139    23A     -0.464595    24A     -0.422982
      25A     -0.413051

  @DF-RHF Final Energy:  -307.09703210579011

   => Energetics <=

    Nuclear Repulsion Energy =            258.8510888277997424
    One-Electron Energy =                -932.1425403161571239
    Two-Electron Energy =                 366.1944193825670482
    DFT Exchange-Correlation Energy =       0.0000000000000000
    Empirical Dispersion Energy =           0.0000000000000000
    PCM Polarization Energy =               0.0000000000000000
    EFP Energy =                            0.0000000000000000
    Total Energy =                       -307.0970321057902765
    Molecular point group: c1
  Basis Set: CC-PVTZ
  Basis Set:

  -Total Gradient:
     Atom            X                  Y                   Z
    ------   -----------------  -----------------  -----------------
       1        0.000000454434    -0.000000189860     0.000000118423
       2       -0.000001032617    -0.000002572346     0.000000484937
       3        0.000006334389     0.000021031703     0.000007245583
       4        0.000002192229     0.000000253456     0.000000858574
       5       -0.000000493086     0.000000945842     0.000000308140
       6       -0.000008490848    -0.000075711903    -0.000068652962
       7       -0.000055722306     0.001827860215    -0.000945601293
       8        0.000033138780    -0.000002775607    -0.000018160483
       9       -0.000022022423    -0.000014550138     0.000012290665
      10        0.000198318172    -0.001932385857     0.001249112922
      11        0.000017187518     0.000014715475     0.000008135609
      12       -0.000010248342    -0.000021872222    -0.000047876994
      13       -0.000167767477    -0.002215207901     0.000239368057
      14        0.000048965983     0.002391112219    -0.000449841044
      15       -0.000022206088     0.000016700123     0.000007870965
      16       -0.000018608320    -0.000007353198     0.000004338899

  **** Optimization is complete! (in 4 steps) ****
    Final optimized geometry and variables:
    Molecular point group: c1

    Geometry (in Angstrom), charge = 0, multiplicity = 1:

    H           -3.049141158741     0.173146206853    -0.035739000255
    C           -2.515958360525     1.095279297528     0.183931839830
    O           -1.143995761342     0.934768266700     0.044459104558
    H           -2.832810190064     1.855067066957    -0.515504048118
    H           -2.781148433730     1.414362173843     1.190301709892
    C           -0.587904769947    -0.013061605503     0.895319526821
    C            0.879193728690    -0.177392474069     0.586820565975
    H           -0.696519298301     0.301721035353     1.933168833971
    H           -1.087550570621    -0.972653512505     0.781889987627
    O            1.031842218994    -0.854302972676    -0.617462446449
    H            1.346638799797     0.803070474718     0.537004388670
    H            1.348194738236    -0.733151061259     1.399043170997
    C            2.345396620088    -0.992322026228    -1.049449986251
    H            2.328329590659    -1.195340655025    -2.110705625686
    H            2.912852380653    -0.077877463236    -0.894107809025
    H            2.853633941163    -1.803577367617    -0.533384632071

  Mulliken Charges: (a.u.)
   Center  Symbol    Alpha    Beta     Spin     Total
       1     H     0.47020  0.47020  0.00000  0.05960
       2     C     3.03202  3.03202  0.00000 -0.06405
       3     O     4.17033  4.17033  0.00000 -0.34067
       4     H     0.44638  0.44638  0.00000  0.10724
       5     H     0.47371  0.47371  0.00000  0.05258
       6     C     2.96134  2.96134  0.00000  0.07733
       7     C     2.96031  2.96031  0.00000  0.07938
       8     H     0.47621  0.47621  0.00000  0.04757
       9     H     0.47068  0.47068  0.00000  0.05863
      10     O     4.17150  4.17150  0.00000 -0.34301
      11     H     0.46905  0.46905  0.00000  0.06191
      12     H     0.47738  0.47738  0.00000  0.04525
      13     C     3.03056  3.03056  0.00000 -0.06113
      14     H     0.44753  0.44753  0.00000  0.10494
      15     H     0.47406  0.47406  0.00000  0.05188
      16     H     0.46873  0.46873  0.00000  0.06254

   Total alpha = 25.00000, Total beta = 25.00000, Total charge =  0.00000

*** Psi4 exiting successfully. Buy a developer a beer!
