                              Psi4 1.0.54 Driver

  ==> Input File <==

--------------------------------------------------------------------------
set {
	reference rhf
	basis cc-pvtz
}

set_num_threads( 4 )
memory 2 gb

molecule MOL {
0 1

H	 2.342730	 0.877684	 -1.045694
C	 2.360424	 0.000000	 -0.411793
C	 1.173749	 0.000000	 0.526870
H	 3.286567	 0.000000	 0.151574
H	 2.342730	 -0.877684	 -1.045694
O	 0.000000	 0.000000	 -0.223739
H	 1.203779	 0.876757	 1.172538
H	 1.203779	 -0.876757	 1.172538
C	 -1.173749	 0.000000	 0.526870
C	 -1.192586	 -1.225252	 1.414388
H	 -2.039452	 -0.000000	 -0.134228
H	 -1.230070	 0.904340	 1.131426
H	 -1.151698	 -2.127271	 0.816757
H	 -2.098848	 -1.246110	 2.008844
H	 -0.341460	 -1.221975	 2.083750

	symmetry c1
}
set optking {
	frozen_dihedral = ("
		11 9 6 3
	")
}

ee,wfn = optimize('scf', return_wfn=True)
oeprop( wfn, 'DIPOLE', 'QUADRUPOLE', 'MULLIKEN_CHARGES')
f=open( 'psi4out.xyz', 'w' )
f.write( "15  " )
f.write( str(ee) + "\n" )
f.write( MOL.save_string_xyz() )
f.close()
--------------------------------------------------------------------------

    Molecular point group: c1
  Charge       = 0
  Multiplicity = 1
  Basis Set: CC-PVTZ
  Basis Set:
  @DF-RHF Final Energy:  -232.22423323724044
    Total Energy =                       -232.2242332372404690
    Molecular point group: c1
  Basis Set: CC-PVTZ
  Basis Set:
  Basis Set: CC-PVTZ
  Basis Set:
  @DF-RHF Final Energy:  -230.93333866101693
    Total Energy =                       -230.9333386610169612
  Basis Set: CC-PVTZ
  Basis Set:
  Basis Set: CC-PVTZ
  Basis Set:
  @DF-RHF Final Energy:  -231.11329508898385
    Total Energy =                       -231.1132950889836479
  Basis Set: CC-PVTZ
  Basis Set:
  Basis Set: CC-PVTZ
  Basis Set:
  @DF-RHF Final Energy:  -231.47188633472337
    Total Energy =                       -231.4718863347234787
  Basis Set: CC-PVTZ
  Basis Set:
  @DF-RHF Final Energy:  -231.82269100959738
    Total Energy =                       -231.8226910095975484
  @DF-RHF Final Energy:  -232.09346805354360
    Total Energy =                       -232.0934680535436030
  @DF-RHF Final Energy:  -232.21661853476672
    Total Energy =                       -232.2166185347665532
  @DF-RHF Final Energy:  -232.22779895526588
    Total Energy =                       -232.2277989552657118
  @DF-RHF Final Energy:  -232.22960774177699
    Total Energy =                       -232.2296077417772153
  Basis Set: CC-PVTZ
  Basis Set:
  @DF-RHF Final Energy:  -232.22974986536255
    Total Energy =                       -232.2297498653625780
  Basis Set: CC-PVTZ
  Basis Set:
  Basis Set: CC-PVTZ
  Basis Set:
  @DF-RHF Final Energy:  -232.23003886017543
    Total Energy =                       -232.2300388601754548
  Basis Set: CC-PVTZ
  Basis Set:
  Basis Set: CC-PVTZ
  Basis Set:
  @DF-RHF Final Energy:  -232.23004986458167
    Total Energy =                       -232.2300498645817015
  Basis Set: CC-PVTZ
  Basis Set:
  Charge       = 0
  Multiplicity = 1
  Basis Set: CC-PVTZ
  Basis Set:

    Orbital Energies (a.u.)
    -----------------------

    Doubly Occupied:

       1A    -20.543728     2A    -11.266516     3A    -11.265236
       4A    -11.210751     5A    -11.206326     6A     -1.377812
       7A     -1.041024     8A     -0.988690     9A     -0.867702
      10A     -0.806175    11A     -0.676101    12A     -0.656163
      13A     -0.634896    14A     -0.585965    15A     -0.547403
      16A     -0.541302    17A     -0.524853    18A     -0.503941
      19A     -0.489323    20A     -0.455392    21A     -0.410985

  @DF-RHF Final Energy:  -232.23005065536179

   => Energetics <=

    Nuclear Repulsion Energy =            193.2674423154784051
    One-Electron Energy =                -697.7944184204844760
    Two-Electron Energy =                 272.2969254496441636
    DFT Exchange-Correlation Energy =       0.0000000000000000
    Empirical Dispersion Energy =           0.0000000000000000
    PCM Polarization Energy =               0.0000000000000000
    EFP Energy =                            0.0000000000000000
    Total Energy =                       -232.2300506553618789
    Molecular point group: c1
  Basis Set: CC-PVTZ
  Basis Set:

  -Total Gradient:
     Atom            X                  Y                   Z
    ------   -----------------  -----------------  -----------------
       1       -0.000003119227     0.000014839367    -0.000013119567
       2       -0.000009753017    -0.000033690709     0.000008379415
       3        0.000381354260    -0.001814449216     0.000393903357
       4       -0.000008613903    -0.000006540503    -0.000001466298
       5        0.000019634678    -0.000006636829    -0.000008592774
       6       -0.000442800111     0.002251322314    -0.000451376669
       7       -0.000028857419     0.000016802558     0.000004531748
       8        0.000010613448    -0.000029035732    -0.000021410263
       9       -0.000338006374     0.001857584232    -0.000392453271
      10       -0.000021918413    -0.000001974956     0.000030038380
      11        0.000449084603    -0.002234762810     0.000447649889
      12       -0.000006069903    -0.000005793442    -0.000002331643
      13        0.000006645635     0.000002811042    -0.000009548546
      14        0.000001162554     0.000005117150    -0.000003485184
      15       -0.000009356812    -0.000015592467     0.000019281425

  **** Optimization is complete! (in 13 steps) ****
    Final optimized geometry and variables:
    Molecular point group: c1

    Geometry (in Angstrom), charge = 0, multiplicity = 1:

    H            2.065703291243     1.867962249496     0.043585930061
    C            2.003436368549     0.988250374827     0.671868618782
    C            0.586585384722     0.456634951372     0.704964184364
    H            2.330859230137     1.252269219418     1.671235793413
    H            2.678282093291     0.239627442842     0.275605169540
    O            0.209821633209     0.113606293910    -0.593331869828
    H           -0.089137378107     1.213212750409     1.103630436864
    H            0.532045125228    -0.406026141083     1.362841859357
    C           -1.137990944027    -0.183333414920    -0.802895833523
    C           -1.660168588621    -1.366083051467     0.000537189472
    H           -1.219689545630    -0.419398997278    -1.855294078684
    H           -1.747531335247     0.697502931932    -0.606176717756
    H           -1.034928194893    -2.237632052127    -0.155411008672
    H           -2.665840394325    -1.606127139420    -0.326266275277
    H           -1.701523592865    -1.159770212278     1.062690840104

  Mulliken Charges: (a.u.)
   Center  Symbol    Alpha    Beta     Spin     Total
       1     H     0.45164  0.45164  0.00000  0.09673
       2     C     3.13539  3.13539  0.00000 -0.27077
       3     C     2.96715  2.96715  0.00000  0.06570
       4     H     0.45951  0.45951  0.00000  0.08098
       5     H     0.45119  0.45119  0.00000  0.09763
       6     O     4.18041  4.18041  0.00000 -0.36082
       7     H     0.47433  0.47433  0.00000  0.05134
       8     H     0.47025  0.47025  0.00000  0.05949
       9     C     2.98256  2.98256  0.00000  0.03489
      10     C     3.15394  3.15394  0.00000 -0.30788
      11     H     0.45134  0.45134  0.00000  0.09732
      12     H     0.46903  0.46903  0.00000  0.06195
      13     H     0.44960  0.44960  0.00000  0.10079
      14     H     0.44924  0.44924  0.00000  0.10152
      15     H     0.45443  0.45443  0.00000  0.09115

   Total alpha = 21.00000, Total beta = 21.00000, Total charge =  0.00000

*** Psi4 exiting successfully. Buy a developer a beer!
