                              Psi4 1.0.54 Driver

  ==> Input File <==

--------------------------------------------------------------------------
set {
	reference rhf
	basis cc-pvtz
}

set_num_threads( 4 )
memory 2 gb

molecule MOL {
0 1

O	 -2.071633	 -1.227563	 -0.223463
C	 -1.652164	 -0.152425	 0.058082
C	 -0.327811	 0.006324	 0.778296
C	 -2.402515	 1.108629	 -0.298924
C	 0.843231	 -0.001575	 -0.211665
H	 -0.319484	 0.928173	 1.350354
H	 -0.227804	 -0.823091	 1.466705
C	 2.197693	 0.138030	 0.476937
H	 0.722944	 0.805202	 -0.930230
H	 0.813976	 -0.926978	 -0.776588
C	 3.312427	 -0.606126	 -0.250224
H	 2.456184	 1.190550	 0.553799
H	 2.119813	 -0.232855	 1.494737
H	 3.438258	 -0.233072	 -1.261180
H	 3.096723	 -1.667116	 -0.314568
H	 4.259208	 -0.491466	 0.264421
H	 -3.240910	 0.874416	 -0.936711
H	 -1.747554	 1.818823	 -0.790984
H	 -2.760419	 1.579708	 0.610998

	symmetry c1
}
set optking {
	frozen_dihedral = ("
		11 8 5 9
	")
}

ee,wfn = optimize('scf', return_wfn=True)
oeprop( wfn, 'DIPOLE', 'QUADRUPOLE', 'MULLIKEN_CHARGES')
f=open( 'psi4out.xyz', 'w' )
f.write( "19  " )
f.write( str(ee) + "\n" )
f.write( MOL.save_string_xyz() )
f.close()
--------------------------------------------------------------------------

    Molecular point group: c1
  Charge       = 0
  Multiplicity = 1
  Basis Set: CC-PVTZ
  Basis Set:
  @DF-RHF Final Energy:  -309.17410821584735
    Total Energy =                       -309.1741082158468430
    Molecular point group: c1
  Basis Set: CC-PVTZ
  Basis Set:
  Basis Set: CC-PVTZ
  Basis Set:
  @DF-RHF Final Energy:  -309.17428967551314
    Total Energy =                       -309.1742896755131937
  Basis Set: CC-PVTZ
  Basis Set:
  Basis Set: CC-PVTZ
  Basis Set:
  @DF-RHF Final Energy:  -308.82900546445427
    Total Energy =                       -308.8290054644546103
  Basis Set: CC-PVTZ
  Basis Set:
  Basis Set: CC-PVTZ
  Basis Set:
  @DF-RHF Final Energy:  -309.00292461931343
    Total Energy =                       -309.0029246193133758
  Basis Set: CC-PVTZ
  Basis Set:
  @DF-RHF Final Energy:  -309.14207088319125
    Total Energy =                       -309.1420708831913089
  @DF-RHF Final Energy:  -309.17024015915854
    Total Energy =                       -309.1702401591586522
  @DF-RHF Final Energy:  -309.17382085065145
    Total Energy =                       -309.1738208506514525
  @DF-RHF Final Energy:  -309.17427400191144
    Total Energy =                       -309.1742740019111579
  @DF-RHF Final Energy:  -309.17245536095277
    Total Energy =                       -309.1724553609524833
  @DF-RHF Final Energy:  -309.17434431548349
    Total Energy =                       -309.1743443154836086
  @DF-RHF Final Energy:  -309.16290558431416
    Total Energy =                       -309.1629055843143874
  @DF-RHF Final Energy:  -309.17428148007974
    Total Energy =                       -309.1742814800798556
  Basis Set: CC-PVTZ
  Basis Set:
  @DF-RHF Final Energy:  -309.17411331003314
    Total Energy =                       -309.1741133100330217
  Basis Set: CC-PVTZ
  Basis Set:
  Basis Set: CC-PVTZ
  Basis Set:
  @DF-RHF Final Energy:  -309.17440526457767
    Total Energy =                       -309.1744052645776719
  Basis Set: CC-PVTZ
  Basis Set:
  Basis Set: CC-PVTZ
  Basis Set:
  @DF-RHF Final Energy:  -309.17440840383233
    Total Energy =                       -309.1744084038321603
  Basis Set: CC-PVTZ
  Basis Set:
  Charge       = 0
  Multiplicity = 1
  Basis Set: CC-PVTZ
  Basis Set:

    Orbital Energies (a.u.)
    -----------------------

    Doubly Occupied:

       1A    -20.536914     2A    -11.319246     3A    -11.228842
       4A    -11.227880     5A    -11.227046     6A    -11.223034
       7A    -11.212828     8A     -1.396971     9A     -1.091679
      10A     -1.029965    11A     -0.984539    12A     -0.890565
      13A     -0.807431    14A     -0.735071    15A     -0.662065
      16A     -0.650675    17A     -0.621558    18A     -0.615190
      19A     -0.584194    20A     -0.579437    21A     -0.548664
      22A     -0.536456    23A     -0.520424    24A     -0.498346
      25A     -0.482058    26A     -0.476724    27A     -0.467804
      28A     -0.398931

  @DF-RHF Final Energy:  -309.17440879714616

   => Energetics <=

    Nuclear Repulsion Energy =            301.8563268521994587
    One-Electron Energy =               -1016.9523931626741842
    Two-Electron Energy =                 405.9216575133285687
    DFT Exchange-Correlation Energy =       0.0000000000000000
    Empirical Dispersion Energy =           0.0000000000000000
    PCM Polarization Energy =               0.0000000000000000
    EFP Energy =                            0.0000000000000000
    Total Energy =                       -309.1744087971461568
    Molecular point group: c1
  Basis Set: CC-PVTZ
  Basis Set:

  -Total Gradient:
     Atom            X                  Y                   Z
    ------   -----------------  -----------------  -----------------
       1        0.000026205853     0.000006263228    -0.000019764353
       2       -0.000018436357    -0.000020208898    -0.000021241835
       3       -0.000008768641    -0.000002595406    -0.000004569415
       4       -0.000045215916     0.000037148634     0.000076792731
       5        0.000741104680    -0.005415788716     0.001222786479
       6        0.000008542258     0.000002085425     0.000003405432
       7       -0.000004795870     0.000002403412    -0.000003303003
       8        0.000586456728     0.001191453057    -0.004430046158
       9       -0.000763538087     0.004350623108     0.000046237242
      10       -0.000003397977     0.000001118381    -0.000000325411
      11       -0.000542149020    -0.000121680812     0.003184605268
      12        0.000003938843     0.000000738881    -0.000001064398
      13       -0.000008278613    -0.000002381652    -0.000003966425
      14        0.000000542954    -0.000000092960    -0.000004561034
      15       -0.000000814411     0.000001568831    -0.000003873271
      16       -0.000006194798    -0.000004533555     0.000001956823
      17        0.000006102495    -0.000005732349    -0.000007478278
      18        0.000015419924    -0.000020880040    -0.000012955920
      19        0.000013275952     0.000000491428    -0.000022634474

  **** Optimization is complete! (in 16 steps) ****
    Final optimized geometry and variables:
    Molecular point group: c1

    Geometry (in Angstrom), charge = 0, multiplicity = 1:

    O           -2.243111672563    -0.303217295362     0.729524451519
    C           -1.591241278808     0.436718914483     0.066985382561
    C           -0.134035745193     0.697570222524     0.392036447349
    C           -2.170782846807     1.139766680073    -1.137381387985
    C            0.770439314771    -0.382090737543    -0.219905522978
    H            0.163842806131     1.675316915874     0.027206301968
    H           -0.031244049942     0.690094621077     1.469479254268
    C            2.258043824507    -0.120018351897     0.048702148834
    H            0.597421877292    -0.402985689851    -1.291978572086
    H            0.475727927440    -1.345190253024     0.178254924696
    C            3.084983935236    -1.398459866196     0.140960761067
    H            2.660046268278     0.531148255977    -0.720545835896
    H            2.361109195970     0.419804986377     0.985322755445
    H            3.013058371145    -1.984084497072    -0.769947971487
    H            2.740768115077    -2.019906127561     0.959947861042
    H            4.132499700578    -1.176085620737     0.308271685171
    H           -3.156898282114     0.757664031438    -1.352105955608
    H           -1.527489848333     1.015393205349    -2.001259834448
    H           -2.231319748430     2.204064614103    -0.933522404718

  Mulliken Charges: (a.u.)
   Center  Symbol    Alpha    Beta     Spin     Total
       1     O     4.17716  4.17716  0.00000 -0.35432
       2     C     2.85867  2.85867  0.00000  0.28266
       3     C     3.09965  3.09965  0.00000 -0.19929
       4     C     3.15503  3.15503  0.00000 -0.31006
       5     C     3.09815  3.09815  0.00000 -0.19630
       6     H     0.44870  0.44870  0.00000  0.10261
       7     H     0.43940  0.43940  0.00000  0.12120
       8     C     3.08720  3.08720  0.00000 -0.17439
       9     H     0.45109  0.45109  0.00000  0.09782
      10     H     0.44118  0.44118  0.00000  0.11765
      11     C     3.14755  3.14755  0.00000 -0.29511
      12     H     0.45130  0.45130  0.00000  0.09739
      13     H     0.45423  0.45423  0.00000  0.09154
      14     H     0.45410  0.45410  0.00000  0.09180
      15     H     0.45266  0.45266  0.00000  0.09467
      16     H     0.44849  0.44849  0.00000  0.10302
      17     H     0.43602  0.43602  0.00000  0.12795
      18     H     0.45109  0.45109  0.00000  0.09782
      19     H     0.44833  0.44833  0.00000  0.10335

   Total alpha = 28.00000, Total beta = 28.00000, Total charge =  0.00000

*** Psi4 exiting successfully. Buy a developer a beer!
