  ==> Input File <==

--------------------------------------------------------------------------
set {
	reference rhf
	basis 6-31G*
}

set_num_threads( 1 )
memory 2 gb

molecule MOL {
0 1

H	 3.329151	 -0.638124	 0.822364
N	 3.092854	 -0.246221	 -0.068770
C	 1.865559	 0.531981	 0.018834
H	 2.976635	 -1.015064	 -0.701386
C	 0.645745	 -0.382037	 -0.029944
H	 1.841966	 1.207024	 -0.831236
H	 1.815756	 1.155410	 0.915079
C	 -0.679275	 0.379305	 0.025956
H	 0.698998	 -0.976915	 -0.937203
H	 0.693479	 -1.083846	 0.802235
C	 -1.903357	 -0.536963	 -0.023547
H	 -0.726309	 1.082987	 -0.803784
H	 -0.717680	 0.977832	 0.934877
C	 -3.225172	 0.228290	 0.028445
H	 -1.867824	 -1.134999	 -0.931459
H	 -1.860449	 -1.239604	 0.805977
H	 -3.313397	 0.915643	 -0.808262
H	 -4.073500	 -0.448134	 -0.008893
H	 -3.306061	 0.809945	 0.942516

	symmetry c1
}
set optking {
	frozen_dihedral = ("
		6 3 5 9,
		12 8 5 9,
		12 8 11 15
	")
}

ee = energy('scf')
oeprop('DIPOLE', 'QUADRUPOLE', 'MULLIKEN_CHARGES')
f=open( 'psi4out.xyz', 'w' )
f.write( "19  " )
f.write( str(ee) + "\n" )
f.write( MOL.save_string_xyz() )
f.close()
--------------------------------------------------------------------------

    Molecular point group: c1

    Geometry (in Angstrom), charge = 0, multiplicity = 1:

       Center              X                  Y                   Z               Mass
    ------------   -----------------  -----------------  -----------------  -----------------
           H          3.338255624151    -0.624441415435     0.828375918295     1.007825032070
           N          3.101958624151    -0.232538415435    -0.062758081705    14.003074004780
           C          1.874663624151     0.545663584565     0.024845918295    12.000000000000
           H          2.985739624151    -1.001381415435    -0.695374081705     1.007825032070
           C          0.654849624151    -0.368354415435    -0.023932081705    12.000000000000
           H          1.851070624151     1.220706584565    -0.825224081705     1.007825032070
           H          1.824860624151     1.169092584565     0.921090918295     1.007825032070
           C         -0.670170375849     0.392987584565     0.031967918295    12.000000000000
           H          0.708102624151    -0.963232415435    -0.931191081705     1.007825032070
           H          0.702583624151    -1.070163415435     0.808246918295     1.007825032070
           C         -1.894252375849    -0.523280415435    -0.017535081705    12.000000000000
           H         -0.717204375849     1.096669584565    -0.797772081705     1.007825032070
           H         -0.708575375849     0.991514584565     0.940888918295     1.007825032070
           C         -3.216067375849     0.241972584565     0.034456918295    12.000000000000
           H         -1.858719375849    -1.121316415435    -0.925447081705     1.007825032070
           H         -1.851344375849    -1.225921415435     0.811988918295     1.007825032070
           H         -3.304292375849     0.929325584565    -0.802250081705     1.007825032070
           H         -4.064395375849    -0.434451415435    -0.002881081705     1.007825032070
           H         -3.296956375849     0.823627584565     0.948527918295     1.007825032070

  Charge       = 0
  Multiplicity = 1
  Basis Set: 6-31G*
  Basis Set:

    Orbital Energies (a.u.)
    -----------------------

    Doubly Occupied:

       1A    -15.530598     2A    -11.240430     3A    -11.216583
       4A    -11.215175     5A    -11.212976     6A    -11.209431
       7A     -1.178282     8A     -1.075150     9A     -0.999523
      10A     -0.901213    11A     -0.819440    12A     -0.793506
      13A     -0.678084    14A     -0.637840    15A     -0.600484
      16A     -0.587571    17A     -0.571846    18A     -0.559576
      19A     -0.521654    20A     -0.505651    21A     -0.483875
      22A     -0.470088    23A     -0.467334    24A     -0.463793
      25A     -0.371623

  @DF-RHF Final Energy:  -251.34846292108386

   => Energetics <=

    Nuclear Repulsion Energy =            246.2561150442812732
    One-Electron Energy =                -826.5855366895928000
    Two-Electron Energy =                 328.9809587242279463
    DFT Exchange-Correlation Energy =       0.0000000000000000
    Empirical Dispersion Energy =           0.0000000000000000
    PCM Polarization Energy =               0.0000000000000000
    EFP Energy =                            0.0000000000000000
    Total Energy =                       -251.3484629210835806

  Mulliken Charges: (a.u.)
   Center  Symbol    Alpha    Beta     Spin     Total
       1     H     0.33462  0.33462  0.00000  0.33075
       2     N     3.92003  3.92003  0.00000 -0.84006
       3     C     3.05980  3.05980  0.00000 -0.11961
       4     H     0.33353  0.33353  0.00000  0.33293
       5     C     3.16007  3.16007  0.00000 -0.32013
       6     H     0.41836  0.41836  0.00000  0.16327
       7     H     0.41981  0.41981  0.00000  0.16038
       8     C     3.15525  3.15525  0.00000 -0.31050
       9     H     0.42620  0.42620  0.00000  0.14759
      10     H     0.42647  0.42647  0.00000  0.14706
      11     C     3.15076  3.15076  0.00000 -0.30151
      12     H     0.42285  0.42285  0.00000  0.15430
      13     H     0.42392  0.42392  0.00000  0.15215
      14     C     3.23934  3.23934  0.00000 -0.47867
      15     H     0.42302  0.42302  0.00000  0.15396
      16     H     0.42335  0.42335  0.00000  0.15330
      17     H     0.42152  0.42152  0.00000  0.15695
      18     H     0.41927  0.41927  0.00000  0.16145
      19     H     0.42182  0.42182  0.00000  0.15637

   Total alpha = 25.00000, Total beta = 25.00000, Total charge =  0.00000
