                              Psi4 1.0.54 Driver

  ==> Input File <==

--------------------------------------------------------------------------
set {
	reference rhf
	basis cc-pvtz
}

set_num_threads( 4 )
memory 2 gb

molecule MOL {
0 1

H	 3.721907	 -0.933076	 -0.066039
O	 2.824271	 -1.154299	 0.131461
C	 2.076458	 -0.067370	 -0.038225
C	 0.626018	 -0.337582	 0.258241
O	 2.538288	 0.965419	 -0.381593
C	 -0.267326	 0.883135	 0.076490
H	 0.325620	 -1.161483	 -0.378003
H	 0.574537	 -0.713685	 1.275261
C	 -1.726822	 0.642622	 0.463839
H	 -0.210803	 1.217591	 -0.953497
H	 0.129920	 1.693110	 0.675679
C	 -1.946357	 0.165531	 1.898492
H	 -2.136265	 -0.100888	 -0.213511
H	 -2.301001	 1.551160	 0.295547
C	 -3.407278	 -0.157819	 2.194521
H	 -1.338838	 -0.717651	 2.077221
H	 -1.604294	 0.919193	 2.600591
H	 -3.535315	 -0.495468	 3.216422
H	 -3.775388	 -0.939604	 1.538774
H	 -4.037138	 0.714215	 2.053143

	symmetry c1
}
set optking {
	frozen_dihedral = ("
		12 9 6 10
	")
}

ee,wfn = optimize('scf', return_wfn=True)
oeprop( wfn, 'DIPOLE', 'QUADRUPOLE', 'MULLIKEN_CHARGES')
f=open( 'psi4out.xyz', 'w' )
f.write( "20  " )
f.write( str(ee) + "\n" )
f.write( MOL.save_string_xyz() )
f.close()
--------------------------------------------------------------------------

    Molecular point group: c1
  Charge       = 0
  Multiplicity = 1
  Basis Set: CC-PVTZ
  Basis Set:
  @DF-RHF Final Energy:  -384.09357262119454
    Total Energy =                       -384.0935726211946530
    Molecular point group: c1
  Basis Set: CC-PVTZ
  Basis Set:
  Basis Set: CC-PVTZ
  Basis Set:
  @DF-RHF Final Energy:  -382.71034071837573
    Total Energy =                       -382.7103407183757895
  Basis Set: CC-PVTZ
  Basis Set:
  Basis Set: CC-PVTZ
  Basis Set:
  @DF-RHF Final Energy:  -382.93973628609325
    Total Energy =                       -382.9397362860931935
  Basis Set: CC-PVTZ
  Basis Set:
  Basis Set: CC-PVTZ
  Basis Set:
  @DF-RHF Final Energy:  -383.36882021771373
    Total Energy =                       -383.3688202177136191
  Basis Set: CC-PVTZ
  Basis Set:
  @DF-RHF Final Energy:  -383.69768413875022
    Total Energy =                       -383.6976841387503327
  @DF-RHF Final Energy:  -383.92758402681915
    Total Energy =                       -383.9275840268190905
  @DF-RHF Final Energy:  -384.05629152395517
    Total Energy =                       -384.0562915239553377
  @DF-RHF Final Energy:  -384.09137640477275
    Total Energy =                       -384.0913764047728023
  @DF-RHF Final Energy:  -384.09461099789729
    Total Energy =                       -384.0946109978971208
  @DF-RHF Final Energy:  -384.09466043243145
    Total Energy =                       -384.0946604324315103
  @DF-RHF Final Energy:  -384.09382292259619
    Total Energy =                       -384.0938229225963596
  @DF-RHF Final Energy:  -384.09478492949648
    Total Energy =                       -384.0947849294965408
  Basis Set: CC-PVTZ
  Basis Set:
  @DF-RHF Final Energy:  -384.09480182986135
    Total Energy =                       -384.0948018298615807
  Basis Set: CC-PVTZ
  Basis Set:
  Basis Set: CC-PVTZ
  Basis Set:
  @DF-RHF Final Energy:  -384.09480653696960
    Total Energy =                       -384.0948065369698270
  Basis Set: CC-PVTZ
  Basis Set:
  Basis Set: CC-PVTZ
  Basis Set:
  @DF-RHF Final Energy:  -384.09480783627521
    Total Energy =                       -384.0948078362753222
  Basis Set: CC-PVTZ
  Basis Set:
  Charge       = 0
  Multiplicity = 1
  Basis Set: CC-PVTZ
  Basis Set:

    Orbital Energies (a.u.)
    -----------------------

    Doubly Occupied:

       1A    -20.603826     2A    -20.540438     3A    -11.373364
       4A    -11.238551     5A    -11.221080     6A    -11.218892
       7A    -11.218260     8A    -11.210660     9A     -1.477389
      10A     -1.368877    11A     -1.097667    12A     -1.042020
      13A     -0.962654    14A     -0.870495    15A     -0.819159
      16A     -0.776023    17A     -0.703649    18A     -0.692782
      19A     -0.667435    20A     -0.637985    21A     -0.603780
      22A     -0.596759    23A     -0.577862    24A     -0.556372
      25A     -0.540674    26A     -0.515088    27A     -0.496176
      28A     -0.484423    29A     -0.471211    30A     -0.467578
      31A     -0.458523    32A     -0.446582

  @DF-RHF Final Energy:  -384.09480841100287

   => Energetics <=

    Nuclear Repulsion Energy =            376.9591535815587804
    One-Electron Energy =               -1270.1954564693094198
    Two-Electron Energy =                 509.1414944767480506
    DFT Exchange-Correlation Energy =       0.0000000000000000
    Empirical Dispersion Energy =           0.0000000000000000
    PCM Polarization Energy =               0.0000000000000000
    EFP Energy =                            0.0000000000000000
    Total Energy =                       -384.0948084110025889
    Molecular point group: c1
  Basis Set: CC-PVTZ
  Basis Set:

  -Total Gradient:
     Atom            X                  Y                   Z
    ------   -----------------  -----------------  -----------------
       1        0.000015040904     0.000008481260    -0.000042710322
       2       -0.000022961877     0.000003274421     0.000063681738
       3        0.000082329128    -0.000103996969     0.000049131682
       4       -0.000011032348    -0.000001796191     0.000023901358
       5       -0.000075070794     0.000089379929    -0.000073046789
       6       -0.000383828579     0.001395465980     0.000298690797
       7       -0.000006800105     0.000015290986    -0.000009452065
       8        0.000013019133    -0.000016780003     0.000005192039
       9       -0.000360997300     0.001276302735     0.000242789145
      10        0.000420451688    -0.001524152120    -0.000322533582
      11       -0.000009599238    -0.000004268629     0.000004512644
      12        0.000357426236    -0.001134621852    -0.000195501592
      13        0.000000243964    -0.000002411495    -0.000002853018
      14        0.000020266319    -0.000004298178    -0.000006007115
      15       -0.000015476930     0.000007147685    -0.000034609353
      16       -0.000033084651     0.000023530995    -0.000000049804
      17       -0.000014598359    -0.000019041699    -0.000007642407
      18        0.000006718137    -0.000001214984    -0.000000039371
      19        0.000001439670     0.000011276243     0.000009242033
      20        0.000016515003    -0.000017568111    -0.000002696024

  **** Optimization is complete! (in 16 steps) ****
    Final optimized geometry and variables:
    Molecular point group: c1

    Geometry (in Angstrom), charge = 0, multiplicity = 1:

    H            2.298645684295    -0.471705287551    -3.021006589714
    O            1.992102964745    -0.738683677351    -2.167456098612
    C            0.941615953921     0.010825003499    -1.844636997327
    C            0.391501867906    -0.355492310421    -0.492453254485
    O            0.524887525734     0.851722116544    -2.563920525915
    C           -0.806925220610     0.490053122889    -0.078063259982
    H            0.134639192497    -1.409780938102    -0.529827385760
    H            1.211849695065    -0.275064731151     0.210394939817
    C           -1.460438187208     0.039485536642     1.229075759846
    H           -1.541947581851     0.443095350535    -0.871994763151
    H           -0.502889622653     1.528048504499    -0.002522220315
    C           -0.549090454015     0.048581078655     2.455290462726
    H           -1.867143911519    -0.961270361997     1.099516136975
    H           -2.311269269337     0.686634565731     1.419593546873
    C           -1.295008232959    -0.283053309268     3.743815289928
    H            0.258883338828    -0.663594220739     2.324554255890
    H           -0.083667396059     1.026404555007     2.550737186773
    H           -0.626229103414    -0.279029516567     4.596711429585
    H           -1.753692804381    -1.264753758805     3.688187663946
    H           -2.082374557860     0.437602936121     3.936770714758

  Mulliken Charges: (a.u.)
   Center  Symbol    Alpha    Beta     Spin     Total
       1     H     0.38232  0.38232  0.00000  0.23536
       2     O     4.16016  4.16016  0.00000 -0.32032
       3     C     2.80435  2.80435  0.00000  0.39130
       4     C     3.11343  3.11343  0.00000 -0.22686
       5     O     4.19107  4.19107  0.00000 -0.38214
       6     C     3.09250  3.09250  0.00000 -0.18500
       7     H     0.43749  0.43749  0.00000  0.12503
       8     H     0.43620  0.43620  0.00000  0.12761
       9     C     3.09855  3.09855  0.00000 -0.19710
      10     H     0.43936  0.43936  0.00000  0.12128
      11     H     0.44525  0.44525  0.00000  0.10951
      12     C     3.08885  3.08885  0.00000 -0.17771
      13     H     0.45340  0.45340  0.00000  0.09319
      14     H     0.44580  0.44580  0.00000  0.10841
      15     C     3.14972  3.14972  0.00000 -0.29944
      16     H     0.45308  0.45308  0.00000  0.09385
      17     H     0.45248  0.45248  0.00000  0.09504
      18     H     0.44774  0.44774  0.00000  0.10453
      19     H     0.45482  0.45482  0.00000  0.09037
      20     H     0.45345  0.45345  0.00000  0.09310

   Total alpha = 32.00000, Total beta = 32.00000, Total charge = -0.00000

*** Psi4 exiting successfully. Buy a developer a beer!
