                              Psi4 1.0.54 Driver

  ==> Input File <==

--------------------------------------------------------------------------
set {
	reference rhf
	basis cc-pvtz
}

set_num_threads( 4 )
memory 2 gb

molecule MOL {
0 1

O	 -2.071633	 -1.227563	 -0.223463
C	 -1.652164	 -0.152425	 0.058082
C	 -0.327811	 0.006324	 0.778296
C	 -2.402515	 1.108629	 -0.298924
C	 0.833101	 0.111682	 -0.218002
H	 -0.348543	 0.885938	 1.413098
H	 -0.190135	 -0.864414	 1.406546
C	 2.187953	 0.254686	 0.469133
H	 0.675718	 0.961172	 -0.877769
H	 0.833123	 -0.772767	 -0.845787
C	 3.346798	 0.347163	 -0.517624
H	 2.180091	 1.138471	 1.101103
H	 2.343246	 -0.592747	 1.130407
H	 3.237823	 1.206475	 -1.170877
H	 3.399477	 -0.537735	 -1.142563
H	 4.293998	 0.443704	 -0.000039
H	 -3.240910	 0.874416	 -0.936711
H	 -1.747554	 1.818823	 -0.790984
H	 -2.760419	 1.579708	 0.610998

	symmetry c1
}
set optking {
	frozen_dihedral = ("
		5 3 2 4
	")
}

ee,wfn = optimize('scf', return_wfn=True)
oeprop( wfn, 'DIPOLE', 'QUADRUPOLE', 'MULLIKEN_CHARGES')
f=open( 'psi4out.xyz', 'w' )
f.write( "19  " )
f.write( str(ee) + "\n" )
f.write( MOL.save_string_xyz() )
f.close()
--------------------------------------------------------------------------

    Molecular point group: c1
  Charge       = 0
  Multiplicity = 1
  Basis Set: CC-PVTZ
  Basis Set:
  @DF-RHF Final Energy:  -309.17733914361588
    Total Energy =                       -309.1773391436156544
    Molecular point group: c1
  Basis Set: CC-PVTZ
  Basis Set:
  Basis Set: CC-PVTZ
  Basis Set:
  @DF-RHF Final Energy:  -309.17733485710670
    Total Energy =                       -309.1773348571067572
  Basis Set: CC-PVTZ
  Basis Set:
  Basis Set: CC-PVTZ
  Basis Set:
  @DF-RHF Final Energy:  -309.17733546402081
    Total Energy =                       -309.1773354640210982
  Basis Set: CC-PVTZ
  Basis Set:
  Basis Set: CC-PVTZ
  Basis Set:
  @DF-RHF Final Energy:  -309.17734362873256
    Total Energy =                       -309.1773436287327286
  Basis Set: CC-PVTZ
  Basis Set:
  Basis Set: CC-PVTZ
  Basis Set:
  @DF-RHF Final Energy:  -309.17734283074685
    Total Energy =                       -309.1773428307467384
  Basis Set: CC-PVTZ
  Basis Set:
  Basis Set: CC-PVTZ
  Basis Set:
  @DF-RHF Final Energy:  -309.17734580129712
    Total Energy =                       -309.1773458012972924
  Basis Set: CC-PVTZ
  Basis Set:
  Charge       = 0
  Multiplicity = 1
  Basis Set: CC-PVTZ
  Basis Set:

    Orbital Energies (a.u.)
    -----------------------

    Doubly Occupied:

       1A    -20.537031     2A    -11.319420     3A    -11.229390
       4A    -11.227979     5A    -11.226874     6A    -11.223444
       7A    -11.213555     8A     -1.397036     9A     -1.093473
      10A     -1.030588    11A     -0.984510    12A     -0.891502
      13A     -0.807870    14A     -0.734645    15A     -0.665341
      16A     -0.648147    17A     -0.625442    18A     -0.615310
      19A     -0.582929    20A     -0.575105    21A     -0.553920
      22A     -0.537982    23A     -0.513322    24A     -0.502447
      25A     -0.483614    26A     -0.477048    27A     -0.470916
      28A     -0.399284

  @DF-RHF Final Energy:  -309.17734588278330

   => Energetics <=

    Nuclear Repulsion Energy =            301.8557308541617772
    One-Electron Energy =               -1016.9299071691925747
    Two-Electron Energy =                 405.8968304322474410
    DFT Exchange-Correlation Energy =       0.0000000000000000
    Empirical Dispersion Energy =           0.0000000000000000
    PCM Polarization Energy =               0.0000000000000000
    EFP Energy =                            0.0000000000000000
    Total Energy =                       -309.1773458827834133
    Molecular point group: c1
  Basis Set: CC-PVTZ
  Basis Set:

  -Total Gradient:
     Atom            X                  Y                   Z
    ------   -----------------  -----------------  -----------------
       1        0.000000342575    -0.000003985458    -0.000003503323
       2       -0.000137455529     0.000061788872     0.000250164502
       3        0.000071903295    -0.000260829153    -0.000080660081
       4        0.000069521398     0.000001576162    -0.000144544054
       5       -0.000024753908     0.000191767286    -0.000000723576
       6        0.000000968365     0.000001708019    -0.000001842116
       7       -0.000001350385     0.000000206079     0.000000904320
       8        0.000001105740     0.000005316922     0.000002493003
       9        0.000002247855    -0.000001149029     0.000002267310
      10       -0.000000367577     0.000000161765    -0.000002691003
      11        0.000000154666    -0.000003713724     0.000000533140
      12        0.000000518306     0.000000871198     0.000000356881
      13       -0.000000456621     0.000001016577    -0.000000829061
      14       -0.000000494125     0.000000002106     0.000001620540
      15        0.000000393802     0.000000041173    -0.000001409520
      16        0.000000234422    -0.000001109997    -0.000000100016
      17        0.000003600272    -0.000001864069    -0.000004605349
      18        0.000007685720    -0.000001289986    -0.000009419740
      19        0.000006201732     0.000009485259    -0.000008011857

  **** Optimization is complete! (in 7 steps) ****
    Final optimized geometry and variables:
    Molecular point group: c1

    Geometry (in Angstrom), charge = 0, multiplicity = 1:

    O           -2.069898977255    -1.291991034246    -0.219981229348
    C           -1.647064277205    -0.219031180853     0.064990685191
    C           -0.319497511905    -0.064417615084     0.779285473522
    C           -2.399392671232     1.044312754932    -0.281552483004
    C            0.840207083398     0.046751344004    -0.218060586147
    H           -0.339562263846     0.814246555496     1.416017691016
    H           -0.180644573714    -0.936519789507     1.404818621614
    C            2.195701334849     0.183858658836     0.469255777237
    H            0.684064129153     0.900219517864    -0.872424222818
    H            0.840416083360    -0.834000674059    -0.851569447076
    C            3.354105226810     0.282101248338    -0.517433585194
    H            2.188584533209     1.063449716655     1.107032424005
    H            2.350652521945    -0.667995973340     1.124799567408
    H            3.244932859379     1.145214480585    -1.165630936811
    H            3.406652328652    -0.599169401529    -1.147506842349
    H            4.301466502400     0.375630333564     0.000374444756
    H           -3.231478755950     0.814206266750    -0.929027965685
    H           -1.745838697793     1.765904271333    -0.757865947853
    H           -2.768571767132     1.499408141148     0.632044904684

  Mulliken Charges: (a.u.)
   Center  Symbol    Alpha    Beta     Spin     Total
       1     O     4.17731  4.17731  0.00000 -0.35461
       2     C     2.85822  2.85822  0.00000  0.28356
       3     C     3.09715  3.09715  0.00000 -0.19430
       4     C     3.15536  3.15536  0.00000 -0.31073
       5     C     3.09855  3.09855  0.00000 -0.19710
       6     H     0.44975  0.44975  0.00000  0.10050
       7     H     0.43885  0.43885  0.00000  0.12229
       8     C     3.08569  3.08569  0.00000 -0.17138
       9     H     0.45248  0.45248  0.00000  0.09504
      10     H     0.44181  0.44181  0.00000  0.11638
      11     C     3.14931  3.14931  0.00000 -0.29863
      12     H     0.45398  0.45398  0.00000  0.09204
      13     H     0.45106  0.45106  0.00000  0.09788
      14     H     0.45519  0.45519  0.00000  0.08962
      15     H     0.45280  0.45280  0.00000  0.09441
      16     H     0.44722  0.44722  0.00000  0.10555
      17     H     0.43587  0.43587  0.00000  0.12826
      18     H     0.45097  0.45097  0.00000  0.09805
      19     H     0.44841  0.44841  0.00000  0.10318

   Total alpha = 28.00000, Total beta = 28.00000, Total charge = -0.00000

*** Psi4 exiting successfully. Buy a developer a beer!
