                              Psi4 1.0.54 Driver

  ==> Input File <==

--------------------------------------------------------------------------
set {
	reference rhf
	basis cc-pvtz
}

set_num_threads( 4 )
memory 2 gb

molecule MOL {
0 1

H	 -2.266619	 1.169943	 0.000098
O	 -1.438073	 1.611259	 0.000041
C	 -0.408657	 0.734701	 0.000005
C	 0.580804	 0.933423	 -0.944921
C	 -0.334782	 -0.321108	 0.901072
H	 0.487419	 1.759438	 -1.622349
C	 1.660206	 0.077522	 -1.002299
C	 0.760877	 -1.165241	 0.820452
C	 -1.415366	 -0.536602	 1.931655
H	 2.424515	 0.237999	 -1.738545
C	 1.756481	 -0.979215	 -0.117727
H	 0.832663	 -1.985985	 1.509796
H	 -2.383863	 -0.708440	 1.470346
H	 -1.193149	 -1.399389	 2.542932
H	 -1.511964	 0.315519	 2.598650
H	 2.593247	 -1.649060	 -0.156462

	symmetry c1
}
set optking {
	frozen_dihedral = ("
		4 3 2 1
	")
}

ee,wfn = optimize('scf', return_wfn=True)
oeprop( wfn, 'DIPOLE', 'QUADRUPOLE', 'MULLIKEN_CHARGES')
f=open( 'psi4out.xyz', 'w' )
f.write( "16  " )
f.write( str(ee) + "\n" )
f.write( MOL.save_string_xyz() )
f.close()
--------------------------------------------------------------------------

    Molecular point group: c1
  Charge       = 0
  Multiplicity = 1
  Basis Set: CC-PVTZ
  Basis Set:
  @DF-RHF Final Energy:  -344.71705640464643
    Total Energy =                       -344.7170564046461436
    Molecular point group: c1
  Basis Set: CC-PVTZ
  Basis Set:
  Basis Set: CC-PVTZ
  Basis Set:
  @DF-RHF Final Energy:  -344.71738789733041
    Total Energy =                       -344.7173878973305818
  Basis Set: CC-PVTZ
  Basis Set:
  Basis Set: CC-PVTZ
  Basis Set:
  @DF-RHF Final Energy:  -344.71743834869932
    Total Energy =                       -344.7174383486988631
  Basis Set: CC-PVTZ
  Basis Set:
  Basis Set: CC-PVTZ
  Basis Set:
  @DF-RHF Final Energy:  -344.71744738896814
    Total Energy =                       -344.7174473889684805
  Basis Set: CC-PVTZ
  Basis Set:
  Basis Set: CC-PVTZ
  Basis Set:
  @DF-RHF Final Energy:  -344.71744896856075
    Total Energy =                       -344.7174489685608023
  Basis Set: CC-PVTZ
  Basis Set:
  Charge       = 0
  Multiplicity = 1
  Basis Set: CC-PVTZ
  Basis Set:

    Orbital Energies (a.u.)
    -----------------------

    Doubly Occupied:

       1A    -20.574701     2A    -11.285911     3A    -11.234052
       4A    -11.227503     5A    -11.227007     6A    -11.226112
       7A    -11.220638     8A    -11.220208     9A     -1.402495
      10A     -1.153694    11A     -1.050214    12A     -1.007600
      13A     -0.940094    14A     -0.828921    15A     -0.817634
      16A     -0.731911    17A     -0.676747    18A     -0.651802
      19A     -0.623707    20A     -0.597180    21A     -0.575369
      22A     -0.572409    23A     -0.551669    24A     -0.533519
      25A     -0.504185    26A     -0.487824    27A     -0.472021
      28A     -0.333331    29A     -0.317386

  @DF-RHF Final Energy:  -344.71744912511360

   => Energetics <=

    Nuclear Repulsion Energy =            350.7428690257522703
    One-Electron Energy =               -1162.8289527296778942
    Two-Electron Energy =                 467.3686345788120207
    DFT Exchange-Correlation Energy =       0.0000000000000000
    Empirical Dispersion Energy =           0.0000000000000000
    PCM Polarization Energy =               0.0000000000000000
    EFP Energy =                            0.0000000000000000
    Total Energy =                       -344.7174491251136033
    Molecular point group: c1
  Basis Set: CC-PVTZ
  Basis Set:

  -Total Gradient:
     Atom            X                  Y                   Z
    ------   -----------------  -----------------  -----------------
       1       -0.000064395896     0.000047709900    -0.001914205381
       2       -0.000295923282    -0.000400118044     0.001975817854
       3        0.001105595517     0.001102925094     0.000818837760
       4       -0.000748010417    -0.000738106590    -0.000888604461
       5       -0.000015323484     0.000006469286     0.000012148708
       6       -0.000000948472    -0.000007663036     0.000006893894
       7        0.000008815517    -0.000017393880     0.000005822013
       8       -0.000013505772     0.000022774283     0.000015332237
       9       -0.000008457481    -0.000007227484    -0.000016823248
      10        0.000004308280    -0.000001855632    -0.000002395588
      11        0.000010967907    -0.000000116218    -0.000014981453
      12        0.000000815331    -0.000005564126     0.000002272073
      13        0.000015141740     0.000005025203     0.000004868274
      14       -0.000001534484     0.000009442527     0.000000525788
      15        0.000008467188    -0.000015363633    -0.000005105551
      16       -0.000006012198    -0.000000937649    -0.000000402918

  **** Optimization is complete! (in 6 steps) ****
    Final optimized geometry and variables:
    Molecular point group: c1

    Geometry (in Angstrom), charge = 0, multiplicity = 1:

    H           -2.322313444493     1.125968318076    -0.144149332110
    O           -1.488124623627     1.559952135979    -0.164274125648
    C           -0.468568315122     0.657066290653    -0.220709436833
    C            0.500077888399     0.837362988832    -1.186118221717
    C           -0.392807918356    -0.394115516738     0.685678418498
    H            0.402470519434     1.660689408433    -1.866271715829
    C            1.573602196759    -0.029279994376    -1.257676258438
    C            0.685906677974    -1.256261526302     0.586698871839
    C           -1.453539368561    -0.575481000007     1.740875633105
    H            2.327486412212     0.117581502532    -2.007225072402
    C            1.667047637695    -1.082828002182    -0.371818469087
    H            0.762698233767    -2.074601594753     1.278191637805
    H           -2.416781712391    -0.826773281531     1.304938430166
    H           -1.188265082754    -1.376147937795     2.416995705748
    H           -1.586558584638     0.329674134813     2.320966091726
    H            2.495007375957    -1.763286602278    -0.421612020891

  Mulliken Charges: (a.u.)
   Center  Symbol    Alpha    Beta     Spin     Total
       1     H     0.38560  0.38560  0.00000  0.22880
       2     O     4.18518  4.18518  0.00000 -0.37037
       3     C     2.88146  2.88146  0.00000  0.23708
       4     C     3.10949  3.10949  0.00000 -0.21899
       5     C     3.00178  3.00178  0.00000 -0.00356
       6     H     0.41786  0.41786  0.00000  0.16428
       7     C     3.07161  3.07161  0.00000 -0.14323
       8     C     3.08991  3.08991  0.00000 -0.17983
       9     C     3.15480  3.15480  0.00000 -0.30960
      10     H     0.42229  0.42229  0.00000  0.15541
      11     C     3.08373  3.08373  0.00000 -0.16745
      12     H     0.42509  0.42509  0.00000  0.14982
      13     H     0.45751  0.45751  0.00000  0.08498
      14     H     0.44914  0.44914  0.00000  0.10172
      15     H     0.44013  0.44013  0.00000  0.11973
      16     H     0.42440  0.42440  0.00000  0.15120

   Total alpha = 29.00000, Total beta = 29.00000, Total charge =  0.00000

*** Psi4 exiting successfully. Buy a developer a beer!
