  ==> Input File <==

--------------------------------------------------------------------------
set {
	reference rhf
	basis 6-31G*
}

set_num_threads( 4 )
memory 2 gb

molecule MOL {
0 1

O	 -1.276010	 1.052711	 -0.768302
C	 -1.204840	 0.067374	 -0.106123
C	 -2.388195	 -0.672128	 0.458071
O	 -0.067104	 -0.527208	 0.221609
H	 -2.388023	 -1.694060	 0.097175
H	 -3.300579	 -0.174919	 0.164318
H	 -2.315377	 -0.706351	 1.539059
C	 1.170111	 0.034140	 -0.238951
C	 2.232260	 -1.015414	 0.036483
C	 1.434312	 1.350571	 0.475088
H	 1.081142	 0.206262	 -1.301479
H	 1.998177	 -1.941020	 -0.477042
H	 3.200201	 -0.667170	 -0.308695
H	 2.300844	 -1.221881	 1.099178
H	 2.380674	 1.769222	 0.147755
H	 0.654106	 2.068793	 0.257347
H	 1.481510	 1.196872	 1.548473

	symmetry c1
}
set optking {
	frozen_dihedral = ("
		11 8 4 2
	")
}

ee = optimize('scf')
oeprop('DIPOLE', 'QUADRUPOLE', 'MULLIKEN_CHARGES')
f=open( 'psi4out.xyz', 'w' )
f.write( "17  " )
f.write( str(ee) + "\n" )
f.write( MOL.save_string_xyz() )
f.close()
--------------------------------------------------------------------------

    Molecular point group: c1
  Charge       = 0
  Multiplicity = 1
  Basis Set: 6-31G*
  Basis Set:
  @DF-RHF Final Energy:  -344.91356601791199
    Total Energy =                       -344.9135660179119895
    Molecular point group: c1
  Basis Set: 6-31G*
  Basis Set:
  Basis Set: 6-31G*
  Basis Set:
  @DF-RHF Final Energy:  -344.91398080733967
    Total Energy =                       -344.9139808073395557
  Basis Set: 6-31G*
  Basis Set:
  Basis Set: 6-31G*
  Basis Set:
  @DF-RHF Final Energy:  -344.91391371348936
    Total Energy =                       -344.9139137134891371
  Basis Set: 6-31G*
  Basis Set:
  Basis Set: 6-31G*
  Basis Set:
  @DF-RHF Final Energy:  -344.91400537784898
    Total Energy =                       -344.9140053778494348
  Basis Set: 6-31G*
  Basis Set:
  Basis Set: 6-31G*
  Basis Set:
  @DF-RHF Final Energy:  -344.91405169710487
    Total Energy =                       -344.9140516971049237
  Basis Set: 6-31G*
  Basis Set:
  Charge       = 0
  Multiplicity = 1
  Basis Set: 6-31G*
  Basis Set:

    Orbital Energies (a.u.)
    -----------------------

    Doubly Occupied:

       1A    -20.599031     2A    -20.543037     3A    -11.374588
       4A    -11.291367     5A    -11.232318     6A    -11.219146
       7A    -11.214358     8A     -1.465316     9A     -1.361644
      10A     -1.078551    11A     -1.004928    12A     -0.947296
      13A     -0.849580    14A     -0.762228    15A     -0.691709
      16A     -0.672641    17A     -0.658366    18A     -0.614244
      19A     -0.585449    20A     -0.578344    21A     -0.559045
      22A     -0.549884    23A     -0.538530    24A     -0.519366
      25A     -0.501464    26A     -0.482898    27A     -0.447862
      28A     -0.434607

  @DF-RHF Final Energy:  -344.91405191918898

   => Energetics <=

    Nuclear Repulsion Energy =            323.6039751291800712
    One-Electron Energy =               -1111.4804519414442439
    Two-Electron Energy =                 442.9624248930747967
    DFT Exchange-Correlation Energy =       0.0000000000000000
    Empirical Dispersion Energy =           0.0000000000000000
    PCM Polarization Energy =               0.0000000000000000
    EFP Energy =                            0.0000000000000000
    Total Energy =                       -344.9140519191893759
    Molecular point group: c1
  Basis Set: 6-31G*
  Basis Set:

  -Total Gradient:
     Atom            X                  Y                   Z
    ------   -----------------  -----------------  -----------------
       1       -0.000005068772     0.000000145416    -0.000008580617
       2        0.000109763819     0.001379914290     0.002087110984
       3        0.000007816996     0.000029140876     0.000032925334
       4        0.000059917180    -0.002651899686    -0.003105726659
       5       -0.000000444433    -0.000001926246    -0.000016128378
       6        0.000000111482     0.000000496387    -0.000006030242
       7        0.000002573181    -0.000014278229    -0.000006398827
       8       -0.001224808401     0.003823710356     0.001514660773
       9       -0.000011837033     0.000016031840     0.000005816137
      10        0.000003861118    -0.000019609683    -0.000000999319
      11        0.001053353282    -0.002571871265    -0.000487746689
      12       -0.000004493291     0.000011247705    -0.000004543580
      13        0.000003493978     0.000006068247     0.000001365475
      14       -0.000001211250    -0.000001857686     0.000000403801
      15        0.000004139657     0.000002642243     0.000000404771
      16        0.000005175618    -0.000009893092    -0.000008974227
      17       -0.000002343129     0.000001938524     0.000002441266

  **** Optimization is complete! (in 6 steps) ****
    Final optimized geometry and variables:
    Molecular point group: c1

    Geometry (in Angstrom), charge = 0, multiplicity = 1:

    O           -1.282346152536     0.958969630054    -0.851282542777
    C           -1.196539327937     0.008848980579    -0.141360525281
    C           -2.368463724200    -0.710783345097     0.470956731205
    O           -0.051278403502    -0.562178262276     0.201284527397
    H           -2.361568567531    -1.750043587475     0.163471111323
    H           -3.287676349778    -0.237781936475     0.159071041437
    H           -2.287024726692    -0.687990284651     1.551627418457
    C            1.185061274639     0.019505259916    -0.236040127363
    C            2.240718094894    -1.041485906798     0.028053313897
    C            1.468402293622     1.319345415227     0.500805349104
    H            1.110214191683     0.191755494548    -1.301095082109
    H            1.998474114811    -1.959776288547    -0.494438777271
    H            3.210850599596    -0.697118864765    -0.314583999199
    H            2.308237841836    -1.259438007439     1.088518314442
    H            2.431904195321     1.712320328223     0.192210707792
    H            0.714591758937     2.064310703504     0.288515443105
    H            1.501284422209     1.143536364292     1.571658320048

  Mulliken Charges: (a.u.)
   Center  Symbol    Alpha    Beta     Spin     Total
       1     O     4.28546  4.28546  0.00000 -0.57092
       2     C     2.61685  2.61685  0.00000  0.76629
       3     C     3.28125  3.28125  0.00000 -0.56251
       4     O     4.31489  4.31489  0.00000 -0.62978
       5     H     0.40059  0.40059  0.00000  0.19883
       6     H     0.39739  0.39739  0.00000  0.20522
       7     H     0.40116  0.40116  0.00000  0.19768
       8     C     2.92294  2.92294  0.00000  0.15413
       9     C     3.24236  3.24236  0.00000 -0.48472
      10     C     3.25610  3.25610  0.00000 -0.51221
      11     H     0.40574  0.40574  0.00000  0.18852
      12     H     0.41160  0.41160  0.00000  0.17681
      13     H     0.41773  0.41773  0.00000  0.16455
      14     H     0.41425  0.41425  0.00000  0.17149
      15     H     0.41790  0.41790  0.00000  0.16420
      16     H     0.39608  0.39608  0.00000  0.20784
      17     H     0.41771  0.41771  0.00000  0.16457

   Total alpha = 28.00000, Total beta = 28.00000, Total charge = -0.00000
