  ==> Input File <==

--------------------------------------------------------------------------
set {
	reference rhf
	basis 6-31G*
}

set_num_threads( 4 )
memory 2 gb

molecule MOL {
0 1

H	 2.384862	 3.083990	 -0.395444
O	 1.438868	 3.047716	 -0.415122
C	 0.998035	 1.787922	 -0.207814
C	 1.863297	 0.721740	 0.001662
C	 -0.370060	 1.578764	 -0.208979
H	 2.927643	 0.886673	 0.002183
C	 1.360468	 -0.551673	 0.209638
H	 -1.039507	 2.401428	 -0.370661
C	 -0.865228	 0.300799	 0.000000
H	 2.039901	 -1.368880	 0.370644
C	 -0.005377	 -0.769847	 0.210105
C	 -2.333960	 0.069074	 0.000000
H	 -0.398119	 -1.758142	 0.371447
O	 -2.847347	 -1.003763	 0.000000
H	 -2.943845	 0.977528	 0.000000

	symmetry c1
}
set optking {
	frozen_dihedral = ("
		11 9 12 14
	")
}

ee = optimize('scf')
oeprop('DIPOLE', 'QUADRUPOLE', 'MULLIKEN_CHARGES')
f=open( 'psi4out.xyz', 'w' )
f.write( "15  " )
f.write( str(ee) + "\n" )
f.write( MOL.save_string_xyz() )
f.close()
--------------------------------------------------------------------------

    Molecular point group: c1
  Charge       = 0
  Multiplicity = 1
  Basis Set: 6-31G*
  Basis Set:
  @DF-RHF Final Energy:  -418.28602620202190
    Total Energy =                       -418.2860262020221853
    Molecular point group: c1
  Basis Set: 6-31G*
  Basis Set:
  Basis Set: 6-31G*
  Basis Set:
  @DF-RHF Final Energy:  -418.28583496245619
    Total Energy =                       -418.2858349624559651
  Basis Set: 6-31G*
  Basis Set:
  Basis Set: 6-31G*
  Basis Set:
  @DF-RHF Final Energy:  -418.28598024669674
    Total Energy =                       -418.2859802466971360
  Basis Set: 6-31G*
  Basis Set:
  Basis Set: 6-31G*
  Basis Set:
  @DF-RHF Final Energy:  -418.28627135967781
    Total Energy =                       -418.2862713596773574
  Basis Set: 6-31G*
  Basis Set:
  Basis Set: 6-31G*
  Basis Set:
  @DF-RHF Final Energy:  -418.28627551451535
    Total Energy =                       -418.2862755145152960
  Basis Set: 6-31G*
  Basis Set:
  Charge       = 0
  Multiplicity = 1
  Basis Set: 6-31G*
  Basis Set:

    Orbital Energies (a.u.)
    -----------------------

    Doubly Occupied:

       1A    -20.604685     2A    -20.564941     3A    -11.332758
       4A    -11.314661     5A    -11.252283     6A    -11.251055
       7A    -11.248881     8A    -11.247064     9A    -11.239059
      10A     -1.423995    11A     -1.405408    12A     -1.169394
      13A     -1.050887    14A     -1.024655    15A     -0.901450
      16A     -0.846024    17A     -0.813415    18A     -0.737818
      19A     -0.701379    20A     -0.673735    21A     -0.661535
      22A     -0.627606    23A     -0.610798    24A     -0.604230
      25A     -0.577345    26A     -0.550133    27A     -0.537683
      28A     -0.516310    29A     -0.485546    30A     -0.423592
      31A     -0.356027    32A     -0.324490

  @DF-RHF Final Energy:  -418.28627654878159

   => Energetics <=

    Nuclear Repulsion Energy =            402.3161565110677316
    One-Electron Energy =               -1367.0471810389831262
    Two-Electron Energy =                 546.4447479791333535
    DFT Exchange-Correlation Energy =       0.0000000000000000
    Empirical Dispersion Energy =           0.0000000000000000
    PCM Polarization Energy =               0.0000000000000000
    EFP Energy =                            0.0000000000000000
    Total Energy =                       -418.2862765487820980
    Molecular point group: c1
  Basis Set: 6-31G*
  Basis Set:

  -Total Gradient:
     Atom            X                  Y                   Z
    ------   -----------------  -----------------  -----------------
       1       -0.000000100809     0.000000012020    -0.000001159714
       2       -0.000000338514    -0.000022732454    -0.000013295824
       3       -0.000026546372     0.000040365516     0.000043561989
       4        0.000003687835    -0.000020337168     0.000029404329
       5       -0.000001555584     0.000019555504    -0.000054512278
       6       -0.000001545496    -0.000007691003    -0.000002966354
       7        0.000019505260     0.000016582681    -0.000052685162
       8        0.000016345482    -0.000004647838     0.000006807368
       9        0.000035939480    -0.000473423248    -0.003084495678
      10        0.000000258526    -0.000003158585     0.000007109581
      11       -0.000029639868     0.000326917758     0.001538075994
      12        0.000009502095     0.000166487081     0.003447092237
      13       -0.000007323361    -0.000010287941     0.000013428150
      14       -0.000029125710    -0.000019729768    -0.001905931566
      15        0.000010937040    -0.000007912560     0.000029566928

  **** Optimization is complete! (in 6 steps) ****
    Final optimized geometry and variables:
    Molecular point group: c1

    Geometry (in Angstrom), charge = 0, multiplicity = 1:

    H            2.471372601283     2.484799926740    -0.346663877185
    O            1.525548906710     2.440050499441    -0.362942834262
    C            1.098597178730     1.174719806941    -0.155399523131
    C            1.962856682021     0.114575341826     0.053314986107
    C           -0.272481143584     0.956104157750    -0.151507908072
    H            3.027011695872     0.280731759364     0.056045258301
    C            1.458876902734    -1.163859203482     0.262551620233
    H           -0.931405079430     1.791392021058    -0.307234366235
    C           -0.764991917629    -0.321370559035     0.046105162020
    H            2.142460157248    -1.976827351387     0.427836237910
    C            0.099190000013    -1.392084558561     0.260606635485
    C           -2.236603935684    -0.533945410801     0.055007307092
    H           -0.304360691033    -2.373766728226     0.417874958609
    O           -2.759728753557    -1.602307278761     0.067112809110
    H           -2.837717324694     0.379777878861     0.033576192752

  Mulliken Charges: (a.u.)
   Center  Symbol    Alpha    Beta     Spin     Total
       1     H     0.27011  0.27011  0.00000  0.45979
       2     O     4.37744  4.37744  0.00000 -0.75487
       3     C     2.79554  2.79554  0.00000  0.40892
       4     C     3.13552  3.13552  0.00000 -0.27104
       5     C     3.12800  3.12800  0.00000 -0.25601
       6     H     0.39915  0.39915  0.00000  0.20170
       7     C     3.09479  3.09479  0.00000 -0.18958
       8     H     0.38463  0.38463  0.00000  0.23074
       9     C     3.04295  3.04295  0.00000 -0.08591
      10     H     0.39252  0.39252  0.00000  0.21496
      11     C     3.10138  3.10138  0.00000 -0.20275
      12     C     2.83270  2.83270  0.00000  0.33459
      13     H     0.37879  0.37879  0.00000  0.24242
      14     O     4.24577  4.24577  0.00000 -0.49153
      15     H     0.42072  0.42072  0.00000  0.15857

   Total alpha = 32.00000, Total beta = 32.00000, Total charge = -0.00000
