  ==> Input File <==

--------------------------------------------------------------------------
set {
	reference rhf
	basis 6-31G*
}

set_num_threads( 4 )
memory 2 gb

molecule MOL {
0 1

H	 -1.589840	 2.323024	 0.356743
C	 -1.595398	 1.625224	 1.185229
C	 -0.287805	 0.845131	 1.251670
H	 -2.438320	 0.959357	 1.045988
H	 -1.748353	 2.184109	 2.102577
C	 -0.000005	 0.033229	 -0.000001
H	 -0.287637	 0.163742	 2.100259
H	 0.553440	 1.515449	 1.417127
C	 1.290528	 -0.768786	 0.000276
O	 -0.745842	 0.025772	 -0.931052
C	 2.545731	 0.095645	 -0.000061
H	 1.275672	 -1.427874	 -0.865626
H	 1.275566	 -1.427086	 0.866768
H	 2.577157	 0.734767	 -0.874036
H	 3.433520	 -0.528139	 0.000137
H	 2.577172	 0.735117	 0.873581

	symmetry c1
}
set optking {
	frozen_dihedral = ("
		3 6 9 12
	")
}

ee = optimize('scf')
oeprop('DIPOLE', 'QUADRUPOLE', 'MULLIKEN_CHARGES')
f=open( 'psi4out.xyz', 'w' )
f.write( "16  " )
f.write( str(ee) + "\n" )
f.write( MOL.save_string_xyz() )
f.close()
--------------------------------------------------------------------------

    Molecular point group: c1
  Charge       = 0
  Multiplicity = 1
  Basis Set: 6-31G*
  Basis Set:
  @DF-RHF Final Energy:  -270.02997310533834
    Total Energy =                       -270.0299731053384562
    Molecular point group: c1
  Basis Set: 6-31G*
  Basis Set:
  Basis Set: 6-31G*
  Basis Set:
  @DF-RHF Final Energy:  -270.03030946918784
    Total Energy =                       -270.0303094691878982
  Basis Set: 6-31G*
  Basis Set:
  Basis Set: 6-31G*
  Basis Set:
  @DF-RHF Final Energy:  -270.03057877111553
    Total Energy =                       -270.0305787711152448
  Basis Set: 6-31G*
  Basis Set:
  Basis Set: 6-31G*
  Basis Set:
  @DF-RHF Final Energy:  -270.03063832898283
    Total Energy =                       -270.0306383289828318
  Basis Set: 6-31G*
  Basis Set:
  Basis Set: 6-31G*
  Basis Set:
  @DF-RHF Final Energy:  -270.03064167255224
    Total Energy =                       -270.0306416725522922
  Basis Set: 6-31G*
  Basis Set:
  Basis Set: 6-31G*
  Basis Set:
  @DF-RHF Final Energy:  -270.03064353028395
    Total Energy =                       -270.0306435302841237
  Basis Set: 6-31G*
  Basis Set:
  Charge       = 0
  Multiplicity = 1
  Basis Set: 6-31G*
  Basis Set:

    Orbital Energies (a.u.)
    -----------------------

    Doubly Occupied:

       1A    -20.549579     2A    -11.322615     3A    -11.233387
       4A    -11.232428     5A    -11.229711     6A    -11.212940
       7A     -1.394580     8A     -1.072150     9A     -1.035565
      10A     -0.909946    11A     -0.860269    12A     -0.725414
      13A     -0.662824    14A     -0.637457    15A     -0.631570
      16A     -0.606218    17A     -0.559456    18A     -0.542366
      19A     -0.533174    20A     -0.509930    21A     -0.504726
      22A     -0.495531    23A     -0.480192    24A     -0.396815

  @DF-RHF Final Energy:  -270.03064370655125

   => Energetics <=

    Nuclear Repulsion Energy =            240.4250038051629588
    One-Electron Energy =                -842.2336072480526354
    Two-Electron Energy =                 331.7779597363385164
    DFT Exchange-Correlation Energy =       0.0000000000000000
    Empirical Dispersion Energy =           0.0000000000000000
    PCM Polarization Energy =               0.0000000000000000
    EFP Energy =                            0.0000000000000000
    Total Energy =                       -270.0306437065511318
    Molecular point group: c1
  Basis Set: 6-31G*
  Basis Set:

  -Total Gradient:
     Atom            X                  Y                   Z
    ------   -----------------  -----------------  -----------------
       1       -0.000006885301     0.000007897842    -0.000004186244
       2        0.000003247616    -0.000004658582     0.000001157733
       3        0.000215699106     0.000333661104    -0.000172142975
       4        0.000006438816    -0.000000892970    -0.000000232078
       5        0.000004503459     0.000001159385    -0.000004024608
       6       -0.000259711936    -0.000374481074     0.000177009971
       7        0.000001983767    -0.000013724503     0.000004262515
       8       -0.000007773863    -0.000007588538     0.000006653332
       9       -0.000218224110    -0.000325327550     0.000291776415
      10       -0.000000938298    -0.000003678646     0.000001054833
      11        0.000003685189     0.000004209742    -0.000005423042
      12        0.000257526215     0.000379831005    -0.000289765523
      13        0.000004683688     0.000003871006    -0.000007765595
      14       -0.000003596294    -0.000000051409     0.000000895628
      15       -0.000000598357    -0.000000025516     0.000000140558
      16       -0.000000039694    -0.000000201292     0.000000589080

  **** Optimization is complete! (in 7 steps) ****
    Final optimized geometry and variables:
    Molecular point group: c1

    Geometry (in Angstrom), charge = 0, multiplicity = 1:

    H           -1.840754044842     1.974130249663     0.096231308162
    C           -1.831053128205     1.283111595277     0.930016326734
    C           -0.502382181629     0.540325199056     1.007983917577
    H           -2.654743584801     0.593168746771     0.792112415050
    H           -2.003764056598     1.844230611750     1.842534192116
    C           -0.189920320689    -0.271706608420    -0.237929830348
    H           -0.485342466175    -0.134139297252     1.862000499072
    H            0.314510331923     1.239009247662     1.172629785394
    C            1.079427500517    -1.108018411157    -0.232707023034
    O           -0.908189994858    -0.255493580599    -1.191164457163
    C            2.358822521854    -0.260225731893    -0.257453725280
    H            1.042223512086    -1.742195927195    -1.109419742516
    H            1.084089996225    -1.746634790693     0.647096351775
    H            2.361737276833     0.413151550991    -1.108416621032
    H            3.228516894916    -0.902483451390    -0.340087725526
    H            2.473669628656     0.331894712703     0.643776767801

  Mulliken Charges: (a.u.)
   Center  Symbol    Alpha    Beta     Spin     Total
       1     H     0.40989  0.40989  0.00000  0.18023
       2     C     3.23433  3.23433  0.00000 -0.46867
       3     C     3.20939  3.20939  0.00000 -0.41877
       4     H     0.41128  0.41128  0.00000  0.17744
       5     H     0.42047  0.42047  0.00000  0.15906
       6     C     2.73489  2.73489  0.00000  0.53022
       7     H     0.41027  0.41027  0.00000  0.17946
       8     H     0.40676  0.40676  0.00000  0.18649
       9     C     3.19985  3.19985  0.00000 -0.39969
      10     O     4.26281  4.26281  0.00000 -0.52561
      11     C     3.25045  3.25045  0.00000 -0.50090
      12     H     0.39856  0.39856  0.00000  0.20288
      13     H     0.41317  0.41317  0.00000  0.17366
      14     H     0.41024  0.41024  0.00000  0.17953
      15     H     0.41052  0.41052  0.00000  0.17896
      16     H     0.41714  0.41714  0.00000  0.16573

   Total alpha = 24.00000, Total beta = 24.00000, Total charge =  0.00000
