  ==> Input File <==

--------------------------------------------------------------------------
set {
	reference rhf
	basis 6-31G*
}

set_num_threads( 4 )
memory 2 gb

molecule MOL {
0 1

H	 2.223686	 -0.275773	 0.581535
O	 1.586534	 -0.678666	 -0.000226
C	 0.489431	 0.077273	 0.000046
C	 -0.764129	 -0.759190	 0.000191
O	 0.537743	 1.263962	 0.000257
C	 -2.038368	 0.075731	 -0.000248
H	 -0.717284	 -1.412404	 -0.866059
H	 -0.717458	 -1.411724	 0.866967
H	 -2.086483	 0.712501	 -0.875098
H	 -2.908485	 -0.571682	 -0.000042
H	 -2.086576	 0.713280	 0.874068

	symmetry c1
}
set optking {
	frozen_dihedral = ("
		1 2 3 5
	")
}

ee = optimize('scf')
oeprop('DIPOLE', 'QUADRUPOLE', 'MULLIKEN_CHARGES')
f=open( 'psi4out.xyz', 'w' )
f.write( "11  " )
f.write( str(ee) + "\n" )
f.write( MOL.save_string_xyz() )
f.close()
--------------------------------------------------------------------------

    Molecular point group: c1
  Charge       = 0
  Multiplicity = 1
  Basis Set: 6-31G*
  Basis Set:
  @DF-RHF Final Energy:  -266.83717960120043
    Total Energy =                       -266.8371796012005461
    Molecular point group: c1
  Basis Set: 6-31G*
  Basis Set:
  Basis Set: 6-31G*
  Basis Set:
  @DF-RHF Final Energy:  -266.83470365684400
    Total Energy =                       -266.8347036568437147
  Basis Set: 6-31G*
  Basis Set:
  Basis Set: 6-31G*
  Basis Set:
  @DF-RHF Final Energy:  -266.83794667491998
    Total Energy =                       -266.8379466749198627
  Basis Set: 6-31G*
  Basis Set:
  Basis Set: 6-31G*
  Basis Set:
  @DF-RHF Final Energy:  -266.83800575863330
    Total Energy =                       -266.8380057586332441
  Basis Set: 6-31G*
  Basis Set:
  Basis Set: 6-31G*
  Basis Set:
  @DF-RHF Final Energy:  -266.83801230311258
    Total Energy =                       -266.8380123031123503
  Basis Set: 6-31G*
  Basis Set:
  Basis Set: 6-31G*
  Basis Set:
  @DF-RHF Final Energy:  -266.83801351627812
    Total Energy =                       -266.8380135162780107
  Basis Set: 6-31G*
  Basis Set:
  Charge       = 0
  Multiplicity = 1
  Basis Set: 6-31G*
  Basis Set:

    Orbital Energies (a.u.)
    -----------------------

    Doubly Occupied:

       1A    -20.606857     2A    -20.556470     3A    -11.382201
       4A    -11.243627     5A    -11.220075     6A     -1.469094
       7A     -1.367926     8A     -1.064146     9A     -0.914777
      10A     -0.802114    11A     -0.704641    12A     -0.685752
      13A     -0.659115    14A     -0.606844    15A     -0.577576
      16A     -0.527968    17A     -0.525707    18A     -0.504754
      19A     -0.482387    20A     -0.445618

  @DF-RHF Final Energy:  -266.83801377026032

   => Energetics <=

    Nuclear Repulsion Energy =            179.4685139543229866
    One-Electron Energy =                -719.9177599173340241
    Two-Electron Energy =                 273.6112321927505491
    DFT Exchange-Correlation Energy =       0.0000000000000000
    Empirical Dispersion Energy =           0.0000000000000000
    PCM Polarization Energy =               0.0000000000000000
    EFP Energy =                            0.0000000000000000
    Total Energy =                       -266.8380137702604316
    Molecular point group: c1
  Basis Set: 6-31G*
  Basis Set:

  -Total Gradient:
     Atom            X                  Y                   Z
    ------   -----------------  -----------------  -----------------
       1       -0.003472374196    -0.006389355818     0.009079343960
       2        0.003978625220     0.007920389054    -0.016168258551
       3        0.000421517311    -0.001844265538     0.017526362461
       4       -0.000012247831    -0.000036282678     0.000007155901
       5       -0.000928659200     0.000318243259    -0.010423557475
       6        0.000011833899     0.000016180529     0.000002403021
       7       -0.000013971076     0.000034552627    -0.000009194325
       8        0.000010617854    -0.000021429309    -0.000010824885
       9       -0.000005323748     0.000005366993    -0.000003772586
      10        0.000011938677    -0.000005425101    -0.000000894128
      11       -0.000001956914     0.000002025978     0.000001236608

  **** Optimization is complete! (in 7 steps) ****
    Final optimized geometry and variables:
    Molecular point group: c1

    Geometry (in Angstrom), charge = 0, multiplicity = 1:

    H            2.294653537767    -0.302420224158     0.451970339549
    O            1.595853813239    -0.674054596633    -0.074851714115
    C            0.490310679950     0.082526299747     0.035856310042
    C           -0.762164396535    -0.754808323770     0.003334946794
    O            0.529700305704     1.266412698231     0.059854873127
    C           -2.039254509334     0.073832552808    -0.044685219343
    H           -0.683493711064    -1.417020787774    -0.853724903642
    H           -0.740460912587    -1.400869127710     0.876736635926
    H           -2.064031478518     0.699375001255    -0.928779904853
    H           -2.906736602087    -0.576961115617    -0.062214873825
    H           -2.116047462258     0.722378647563     0.819439126623

  Mulliken Charges: (a.u.)
   Center  Symbol    Alpha    Beta     Spin     Total
       1     H     0.26657  0.26657  0.00000  0.46685
       2     O     4.35716  4.35716  0.00000 -0.71431
       3     C     2.62926  2.62926  0.00000  0.74148
       4     C     3.20782  3.20782  0.00000 -0.41564
       5     O     4.26583  4.26583  0.00000 -0.53166
       6     C     3.23967  3.23967  0.00000 -0.47935
       7     H     0.39685  0.39685  0.00000  0.20631
       8     H     0.40155  0.40155  0.00000  0.19689
       9     H     0.40895  0.40895  0.00000  0.18210
      10     H     0.41683  0.41683  0.00000  0.16633
      11     H     0.40950  0.40950  0.00000  0.18099

   Total alpha = 20.00000, Total beta = 20.00000, Total charge = -0.00000
