  ==> Input File <==

--------------------------------------------------------------------------
set {
	reference rhf
	basis 6-31G*
}

set_num_threads( 4 )
memory 2 gb

molecule MOL {
0 1

H	 2.347870	 -2.014909	 -0.320943
N	 1.361237	 -1.847973	 -0.327978
C	 1.028000	 -0.815892	 -1.292589
C	 0.895649	 -1.501405	 1.002372
H	 1.377297	 -1.123891	 -2.272332
H	 1.492913	 0.143830	 -1.055036
C	 -0.481831	 -0.631884	 -1.323921
H	 1.149100	 -2.305837	 1.684589
H	 1.352546	 -0.583202	 1.378923
C	 -0.614100	 -1.316972	 0.969618
H	 -0.944847	 -1.545945	 -1.707596
H	 -0.735090	 0.176761	 -2.001785
N	 -0.975995	 -0.298722	 0.000000
H	 -0.962880	 -1.003075	 1.948070
H	 -1.085978	 -2.276932	 0.739602
C	 -2.393863	 -0.024976	 0.000000
H	 -2.854032	 -0.467193	 -0.876721
H	 -2.854032	 -0.467193	 0.876721
H	 -2.623281	 1.044943	 0.000000

	symmetry c1
}
set optking {
	frozen_dihedral = ("
		7 13 16 19
	")
}

ee = optimize('scf')
oeprop('DIPOLE', 'QUADRUPOLE', 'MULLIKEN_CHARGES')
f=open( 'psi4out.xyz', 'w' )
f.write( "19  " )
f.write( str(ee) + "\n" )
f.write( MOL.save_string_xyz() )
f.close()
--------------------------------------------------------------------------

    Molecular point group: c1
  Charge       = 0
  Multiplicity = 1
  Basis Set: 6-31G*
  Basis Set:
  @DF-RHF Final Energy:  -305.19364316294940
    Total Energy =                       -305.1936431629493427
    Molecular point group: c1
  Basis Set: 6-31G*
  Basis Set:
  Basis Set: 6-31G*
  Basis Set:
  @DF-RHF Final Energy:  -305.19432160294491
    Total Energy =                       -305.1943216029449104
  Basis Set: 6-31G*
  Basis Set:
  Basis Set: 6-31G*
  Basis Set:
  @DF-RHF Final Energy:  -305.19445594869939
    Total Energy =                       -305.1944559486994990
  Basis Set: 6-31G*
  Basis Set:
  Basis Set: 6-31G*
  Basis Set:
  @DF-RHF Final Energy:  -305.19445917466601
    Total Energy =                       -305.1944591746658944
  Basis Set: 6-31G*
  Basis Set:
  Charge       = 0
  Multiplicity = 1
  Basis Set: 6-31G*
  Basis Set:

    Orbital Energies (a.u.)
    -----------------------

    Doubly Occupied:

       1A    -15.539191     2A    -15.535968     3A    -11.237837
       4A    -11.237809     5A    -11.236934     6A    -11.236803
       7A    -11.234600     8A     -1.244750     9A     -1.183496
      10A     -1.022099    11A     -0.963819    12A     -0.859755
      13A     -0.857905    14A     -0.757201    15A     -0.690400
      16A     -0.630693    17A     -0.623358    18A     -0.606661
      19A     -0.602352    20A     -0.579473    21A     -0.543158
      22A     -0.535062    23A     -0.511140    24A     -0.488407
      25A     -0.464664    26A     -0.455743    27A     -0.362628
      28A     -0.342651

  @DF-RHF Final Energy:  -305.19445956393338

   => Energetics <=

    Nuclear Repulsion Energy =            339.4383327130011594
    One-Electron Energy =               -1086.0964683826975943
    Two-Electron Energy =                 441.4636761057631702
    DFT Exchange-Correlation Energy =       0.0000000000000000
    Empirical Dispersion Energy =           0.0000000000000000
    PCM Polarization Energy =               0.0000000000000000
    EFP Energy =                            0.0000000000000000
    Total Energy =                       -305.1944595639332647
    Molecular point group: c1
  Basis Set: 6-31G*
  Basis Set:

  -Total Gradient:
     Atom            X                  Y                   Z
    ------   -----------------  -----------------  -----------------
       1       -0.000001715317    -0.000000175474     0.000005909072
       2       -0.000010583441    -0.000002314944     0.000001469229
       3        0.000015766812    -0.000009642429    -0.000025514197
       4        0.000025435912     0.000001092070     0.000013808818
       5        0.000007048799    -0.000002219616    -0.000001067086
       6       -0.000006557852     0.000000574474    -0.000001754075
       7       -0.000647572858    -0.003060504043     0.000584335148
       8        0.000002530418    -0.000001827137     0.000000306211
       9       -0.000000654412     0.000000632854     0.000001364874
      10       -0.000017144314     0.000049337559    -0.000031139136
      11       -0.000004983018    -0.000004892104    -0.000002344620
      12        0.000000592236    -0.000003602203    -0.000005846723
      13        0.000842546473     0.004208093816     0.000370843552
      14        0.000000652581    -0.000005099691    -0.000001421928
      15       -0.000006575111    -0.000004297499    -0.000001436279
      16       -0.000167056372    -0.001116152050    -0.005178991874
      17        0.000007176632    -0.000007007056     0.000007109810
      18       -0.000007441291    -0.000014456028     0.000006287781
      19       -0.000031465880    -0.000027540503     0.004258081424

  **** Optimization is complete! (in 5 steps) ****
    Final optimized geometry and variables:
    Molecular point group: c1

    Geometry (in Angstrom), charge = 0, multiplicity = 1:

    H            2.541036720593    -1.070914040046    -0.174350788074
    N            1.552163296070    -0.918119597029    -0.186201336046
    C            1.208463486663     0.110325919250    -1.150760458975
    C            1.074893981396    -0.580104416186     1.142055301081
    H            1.560797252149    -0.194058904169    -2.130706899864
    H            1.662913455517     1.075086286469    -0.913550178617
    C           -0.302898686669     0.277959740557    -1.181526553202
    H            1.335154740985    -1.382484919541     1.824357241415
    H            1.517693609776     0.343388066208     1.522596388833
    C           -0.436857323096    -0.413685471462     1.104698041181
    H           -0.757140246718    -0.641615147806    -1.561477574444
    H           -0.562961458244     1.080973508842    -1.864011769891
    N           -0.804636465204     0.610709082303     0.140504494258
    H           -0.786810851530    -0.109598270577     2.085150993127
    H           -0.895177899112    -1.378724072286     0.869538680686
    C           -2.228883945905     0.906756244681     0.130856195438
    H           -2.742364219980     0.468664503987    -0.723017209383
    H           -2.700782551079     0.514426028116     1.024949997043
    H           -2.399216995459     1.979170173451     0.135801498222

  Mulliken Charges: (a.u.)
   Center  Symbol    Alpha    Beta     Spin     Total
       1     H     0.32963  0.32963  0.00000  0.34074
       2     N     3.85430  3.85430  0.00000 -0.70860
       3     C     3.06298  3.06298  0.00000 -0.12596
       4     C     3.06332  3.06332  0.00000 -0.12664
       5     H     0.41790  0.41790  0.00000  0.16419
       6     H     0.42771  0.42771  0.00000  0.14457
       7     C     3.05689  3.05689  0.00000 -0.11378
       8     H     0.41792  0.41792  0.00000  0.16415
       9     H     0.42772  0.42772  0.00000  0.14455
      10     C     3.05630  3.05630  0.00000 -0.11260
      11     H     0.42771  0.42771  0.00000  0.14458
      12     H     0.41800  0.41800  0.00000  0.16399
      13     N     3.78996  3.78996  0.00000 -0.57991
      14     H     0.41827  0.41827  0.00000  0.16346
      15     H     0.42821  0.42821  0.00000  0.14358
      16     C     3.14014  3.14014  0.00000 -0.28029
      17     H     0.42630  0.42630  0.00000  0.14740
      18     H     0.42071  0.42071  0.00000  0.15857
      19     H     0.41601  0.41601  0.00000  0.16798

   Total alpha = 28.00000, Total beta = 28.00000, Total charge = -0.00000
