                              Psi4 1.0.54 Driver

  ==> Input File <==

--------------------------------------------------------------------------
set {
	reference rhf
	basis cc-pvtz
}

set_num_threads( 4 )
memory 2 gb

molecule MOL {
0 1

H	 -3.034039	 -0.667848	 0.004703
O	 -2.240597	 -1.171748	 0.000934
C	 -1.159675	 -0.364500	 0.000370
C	 -1.222405	 0.956243	 -0.394746
C	 0.043111	 -0.913945	 0.416867
H	 -2.153354	 1.383664	 -0.719867
C	 -0.068447	 1.720432	 -0.369771
H	 0.058218	 -1.944270	 0.715425
C	 1.192359	 -0.149809	 0.443397
H	 -0.112665	 2.747567	 -0.679301
C	 1.129060	 1.181028	 0.042333
C	 2.495570	 -0.740717	 0.918913
H	 2.015227	 1.786876	 0.053152
H	 3.315090	 -0.441624	 0.277234
H	 2.455664	 -1.821405	 0.935263
H	 2.725274	 -0.400747	 1.923054

	symmetry c1
}
set optking {
	frozen_dihedral = ("
		5 3 2 1
	")
}

ee,wfn = optimize('scf', return_wfn=True)
oeprop( wfn, 'DIPOLE', 'QUADRUPOLE', 'MULLIKEN_CHARGES')
f=open( 'psi4out.xyz', 'w' )
f.write( "16  " )
f.write( str(ee) + "\n" )
f.write( MOL.save_string_xyz() )
f.close()
--------------------------------------------------------------------------

    Molecular point group: c1
  Charge       = 0
  Multiplicity = 1
  Basis Set: CC-PVTZ
  Basis Set:
  @DF-RHF Final Energy:  -344.72019259158395
    Total Energy =                       -344.7201925915842367
    Molecular point group: c1
  Basis Set: CC-PVTZ
  Basis Set:
  Basis Set: CC-PVTZ
  Basis Set:
  @DF-RHF Final Energy:  -344.72020865515645
    Total Energy =                       -344.7202086551565685
  Basis Set: CC-PVTZ
  Basis Set:
  Basis Set: CC-PVTZ
  Basis Set:
  @DF-RHF Final Energy:  -344.72021241017143
    Total Energy =                       -344.7202124101713139
  Basis Set: CC-PVTZ
  Basis Set:
  Charge       = 0
  Multiplicity = 1
  Basis Set: CC-PVTZ
  Basis Set:

    Orbital Energies (a.u.)
    -----------------------

    Doubly Occupied:

       1A    -20.581307     2A    -11.294210     3A    -11.240533
       4A    -11.232678     5A    -11.219760     6A    -11.219037
       7A    -11.214247     8A    -11.213447     9A     -1.411593
      10A     -1.154179    11A     -1.046278    12A     -1.008509
      13A     -0.938660    14A     -0.827520    15A     -0.826168
      16A     -0.717664    17A     -0.684100    18A     -0.657547
      19A     -0.613742    20A     -0.595463    21A     -0.575744
      22A     -0.570936    23A     -0.564782    24A     -0.532738
      25A     -0.507144    26A     -0.484686    27A     -0.472367
      28A     -0.333408    29A     -0.311604

  @DF-RHF Final Energy:  -344.72021270045786

   => Energetics <=

    Nuclear Repulsion Energy =            346.3489064960209589
    One-Electron Energy =               -1154.0381345142532155
    Two-Electron Energy =                 462.9690153177745060
    DFT Exchange-Correlation Energy =       0.0000000000000000
    Empirical Dispersion Energy =           0.0000000000000000
    PCM Polarization Energy =               0.0000000000000000
    EFP Energy =                            0.0000000000000000
    Total Energy =                       -344.7202127004577505
    Molecular point group: c1
  Basis Set: CC-PVTZ
  Basis Set:

  -Total Gradient:
     Atom            X                  Y                   Z
    ------   -----------------  -----------------  -----------------
       1       -0.000000111073    -0.000004753490     0.001997895368
       2       -0.000120870819     0.000175764685    -0.001855416059
       3        0.000398239454    -0.000510694647    -0.001484341686
       4       -0.000016880473    -0.000050972220     0.000010314027
       5       -0.000238058694     0.000406193240     0.001340015534
       6        0.000003877482     0.000000994621    -0.000004496235
       7        0.000072513136     0.000006480808    -0.000008187787
       8       -0.000007610654    -0.000007458157     0.000014067020
       9       -0.000022444934    -0.000084693895    -0.000028409939
      10       -0.000009912396     0.000004034204     0.000010904173
      11       -0.000050586204     0.000062032268    -0.000004416000
      12       -0.000004317210     0.000006635550     0.000009381319
      13        0.000002343887    -0.000003824828    -0.000003272511
      14       -0.000009215322     0.000005365996     0.000002569247
      15        0.000000109690    -0.000000747521    -0.000004729720
      16        0.000002924130    -0.000004356613     0.000008123248

  **** Optimization is complete! (in 4 steps) ****
    Final optimized geometry and variables:
    Molecular point group: c1

    Geometry (in Angstrom), charge = 0, multiplicity = 1:

    H           -3.019363937847    -0.686917530367    -0.161132054816
    O           -2.226745781071    -1.192223193300    -0.158985002847
    C           -1.143271828855    -0.384478852768    -0.145825337038
    C           -1.204734361593     0.936837663233    -0.538990348878
    C            0.055966173771    -0.933077649133     0.279694481342
    H           -2.132930208286     1.360765301657    -0.875592650856
    C           -0.051863421150     1.701909292933    -0.504999919131
    H            0.068003160656    -1.962005352307     0.583242730524
    C            1.207067216249    -0.170827938195     0.306959336314
    H           -0.094579860704     2.729848989825    -0.812032717175
    C            1.144547911864     1.160466393925    -0.091128640710
    C            2.508123850420    -0.762000836506     0.788201777163
    H            2.030783168692     1.766243873457    -0.076222844899
    H            3.329425638793    -0.467086048844     0.146824673382
    H            2.466292027511    -1.842552864983     0.808561891773
    H            2.736818686841    -0.418479647241     1.791371995079

  Mulliken Charges: (a.u.)
   Center  Symbol    Alpha    Beta     Spin     Total
       1     H     0.38654  0.38654  0.00000  0.22692
       2     O     4.17777  4.17777  0.00000 -0.35554
       3     C     2.84040  2.84040  0.00000  0.31919
       4     C     3.14631  3.14631  0.00000 -0.29263
       5     C     3.14034  3.14034  0.00000 -0.28069
       6     H     0.43304  0.43304  0.00000  0.13392
       7     C     3.05747  3.05747  0.00000 -0.11494
       8     H     0.42169  0.42169  0.00000  0.15661
       9     C     2.93590  2.93590  0.00000  0.12820
      10     H     0.42292  0.42292  0.00000  0.15415
      11     C     3.11785  3.11785  0.00000 -0.23570
      12     C     3.14666  3.14666  0.00000 -0.29332
      13     H     0.42780  0.42780  0.00000  0.14441
      14     H     0.44813  0.44813  0.00000  0.10374
      15     H     0.45013  0.45013  0.00000  0.09975
      16     H     0.44705  0.44705  0.00000  0.10591

   Total alpha = 29.00000, Total beta = 29.00000, Total charge =  0.00000

*** Psi4 exiting successfully. Buy a developer a beer!
