  ==> Input File <==

--------------------------------------------------------------------------
set {
	reference rhf
	basis cc-pvtz
}

set_num_threads( 4 )
memory 2 gb

molecule MOL {
0 1

H	 2.828711	 -0.346904	 0.001083
C	 1.876752	 0.015931	 -0.363450
C	 0.776285	 -0.474665	 0.563092
H	 1.728113	 -0.357244	 -1.367440
H	 1.906171	 1.096574	 -0.386153
N	 -0.540022	 0.017605	 0.071630
H	 0.707111	 -1.548969	 0.573035
H	 0.886169	 -0.084184	 1.560432
O	 -0.531514	 0.948243	 -0.661879
O	 -1.508701	 -0.536840	 0.469937

	symmetry c1
}
set optking {
	frozen_dihedral = ("
		9 6 3 2
	")
}

ee = optimize('scf')
oeprop('DIPOLE', 'QUADRUPOLE', 'MULLIKEN_CHARGES')
f=open( 'psi4out.xyz', 'w' )
f.write( "10  " )
f.write( str(ee) + "\n" )
f.write( MOL.save_string_xyz() )
f.close()
--------------------------------------------------------------------------

    Molecular point group: c1
  Charge       = 0
  Multiplicity = 1
  Basis Set: CC-PVTZ
  Basis Set:
  @DF-RHF Final Energy:  -282.81141179337533
    Total Energy =                       -282.8114117933752709
    Molecular point group: c1
  Basis Set: CC-PVTZ
  Basis Set:
  Basis Set: CC-PVTZ
  Basis Set:
  @DF-RHF Final Energy:  -282.81202902386985
    Total Energy =                       -282.8120290238699681
  Basis Set: CC-PVTZ
  Basis Set:
  Basis Set: CC-PVTZ
  Basis Set:
  @DF-RHF Final Energy:  -282.80840965870431
    Total Energy =                       -282.8084096587040221
  Basis Set: CC-PVTZ
  Basis Set:
  Basis Set: CC-PVTZ
  Basis Set:
  @DF-RHF Final Energy:  -282.81269283548846
    Total Energy =                       -282.8126928354884626
  Basis Set: CC-PVTZ
  Basis Set:
  Basis Set: CC-PVTZ
  Basis Set:
  @DF-RHF Final Energy:  -282.81277613176269
    Total Energy =                       -282.8127761317626891
  Basis Set: CC-PVTZ
  Basis Set:
  Basis Set: CC-PVTZ
  Basis Set:
  @DF-RHF Final Energy:  -282.81291193733415
    Total Energy =                       -282.8129119373343769
  Basis Set: CC-PVTZ
  Basis Set:
  Basis Set: CC-PVTZ
  Basis Set:
  @DF-RHF Final Energy:  -282.81291605584119
    Total Energy =                       -282.8129160558412991
  Basis Set: CC-PVTZ
  Basis Set:
  Charge       = 0
  Multiplicity = 1
  Basis Set: CC-PVTZ
  Basis Set:

    Orbital Energies (a.u.)
    -----------------------

    Doubly Occupied:

       1A    -20.594141     2A    -20.589815     3A    -15.839567
       4A    -11.303188     5A    -11.244021     6A     -1.638590
       7A     -1.422845     8A     -1.124066     9A     -0.966948
      10A     -0.835266    11A     -0.763574    12A     -0.751565
      13A     -0.732157    14A     -0.640782    15A     -0.594201
      16A     -0.564145    17A     -0.538883    18A     -0.490167
      19A     -0.479855    20A     -0.455508

  @DF-RHF Final Energy:  -282.81291639056451

   => Energetics <=

    Nuclear Repulsion Energy =            186.5717305106936408
    One-Electron Energy =                -755.6307270770780633
    Two-Electron Energy =                 286.2460801758199409
    DFT Exchange-Correlation Energy =       0.0000000000000000
    Empirical Dispersion Energy =           0.0000000000000000
    PCM Polarization Energy =               0.0000000000000000
    EFP Energy =                            0.0000000000000000
    Total Energy =                       -282.8129163905644532
    Molecular point group: c1
  Basis Set: CC-PVTZ
  Basis Set:

  -Total Gradient:
     Atom            X                  Y                   Z
    ------   -----------------  -----------------  -----------------
       1       -0.000003838788    -0.000000260027     0.000000473085
       2        0.000003623318     0.000069750180     0.000046122703
       3       -0.000014345673    -0.000148249258    -0.000092106952
       4        0.000000374168    -0.000000544330     0.000006437259
       5        0.000001479053     0.000007844936    -0.000000473040
       6        0.000010866736     0.000135888945     0.000144106843
       7        0.000000984483    -0.000005688444     0.000004270831
       8        0.000001784242     0.000001409270    -0.000007260783
       9       -0.000016508414    -0.000066762406    -0.000094459799
      10        0.000015580871     0.000006611131    -0.000007110149

  **** Optimization is complete! (in 8 steps) ****
    Final optimized geometry and variables:
    Molecular point group: c1

    Geometry (in Angstrom), charge = 0, multiplicity = 1:

    H            2.852676372602    -0.388295794539     0.007658330696
    C            1.925559773823     0.015499672231    -0.380405826647
    C            0.797418614013    -0.451547054027     0.510700389577
    H            1.796349911695    -0.337822467312    -1.394129401116
    H            1.995741882275     1.092079384874    -0.398453621746
    N           -0.547434343470     0.021410705377     0.061471867344
    H            0.710715529992    -1.524073772747     0.559810633505
    H            0.887683678408    -0.073018587200     1.519085762796
    O           -0.603242801405     0.955129723420    -0.663476387287
    O           -1.479772222192    -0.569162188436     0.493384706923

  Mulliken Charges: (a.u.)
   Center  Symbol    Alpha    Beta     Spin     Total
       1     H     0.44935  0.44935  0.00000  0.10130
       2     C     3.13902  3.13902  0.00000 -0.27803
       3     C     3.04295  3.04295  0.00000 -0.08590
       4     H     0.44402  0.44402  0.00000  0.11196
       5     H     0.43880  0.43880  0.00000  0.12240
       6     N     3.27641  3.27641  0.00000  0.44718
       7     H     0.43162  0.43162  0.00000  0.13676
       8     H     0.43514  0.43514  0.00000  0.12972
       9     O     4.17004  4.17004  0.00000 -0.34008
      10     O     4.17266  4.17266  0.00000 -0.34531

   Total alpha = 20.00000, Total beta = 20.00000, Total charge =  0.00000
