  ==> Input File <==

--------------------------------------------------------------------------
set {
	reference rhf
	basis 6-31G*
}

set_num_threads( 4 )
memory 2 gb

molecule MOL {
0 1

O	 -0.291628	 1.323815	 -0.000732
C	 -0.449655	 0.146360	 0.000961
C	 -1.783294	 -0.549321	 -0.000296
O	 0.550821	 -0.724572	 0.000672
H	 -1.863538	 -1.185371	 -0.874187
H	 -2.574672	 0.185258	 -0.002793
H	 -1.866414	 -1.182381	 0.875436
C	 1.177128	 -0.982128	 -1.243388
H	 0.466150	 -1.385511	 -1.949893
H	 1.952511	 -1.703828	 -1.039238
H	 1.605159	 -0.076088	 -1.647398

	symmetry c1
}
set optking {
	frozen_dihedral = ("
		8 4 2 1
	")
}

ee = optimize('scf')
oeprop('DIPOLE', 'QUADRUPOLE', 'MULLIKEN_CHARGES')
f=open( 'psi4out.xyz', 'w' )
f.write( "11  " )
f.write( str(ee) + "\n" )
f.write( MOL.save_string_xyz() )
f.close()
--------------------------------------------------------------------------

    Molecular point group: c1
  Charge       = 0
  Multiplicity = 1
  Basis Set: 6-31G*
  Basis Set:
  @DF-RHF Final Energy:  -266.81605514739863
    Total Energy =                       -266.8160551473985151
    Molecular point group: c1
  Basis Set: 6-31G*
  Basis Set:
  Basis Set: 6-31G*
  Basis Set:
  @DF-RHF Final Energy:  -266.81454665833792
    Total Energy =                       -266.8145466583378607
  Basis Set: 6-31G*
  Basis Set:
  Basis Set: 6-31G*
  Basis Set:
  @DF-RHF Final Energy:  -266.81708374805009
    Total Energy =                       -266.8170837480502655
  Basis Set: 6-31G*
  Basis Set:
  Basis Set: 6-31G*
  Basis Set:
  @DF-RHF Final Energy:  -266.81735638147211
    Total Energy =                       -266.8173563814719387
  Basis Set: 6-31G*
  Basis Set:
  Basis Set: 6-31G*
  Basis Set:
  @DF-RHF Final Energy:  -266.81736397692447
    Total Energy =                       -266.8173639769240708
  Basis Set: 6-31G*
  Basis Set:
  Basis Set: 6-31G*
  Basis Set:
  @DF-RHF Final Energy:  -266.81736516899446
    Total Energy =                       -266.8173651689942290
  Basis Set: 6-31G*
  Basis Set:
  Charge       = 0
  Multiplicity = 1
  Basis Set: 6-31G*
  Basis Set:

    Orbital Energies (a.u.)
    -----------------------

    Doubly Occupied:

       1A    -20.587697     2A    -20.558679     3A    -11.379442
       4A    -11.292197     5A    -11.238442     6A     -1.461239
       7A     -1.368868     8A     -1.027926     9A     -0.961657
      10A     -0.778400    11A     -0.694676    12A     -0.682737
      13A     -0.668808    14A     -0.611252    15A     -0.591526
      16A     -0.576376    17A     -0.540030    18A     -0.497878
      19A     -0.458636    20A     -0.441649

  @DF-RHF Final Energy:  -266.81736533151587

   => Energetics <=

    Nuclear Repulsion Energy =            182.3319868767474077
    One-Electron Energy =                -725.4624763478113891
    Two-Electron Energy =                 276.3131241395478810
    DFT Exchange-Correlation Energy =       0.0000000000000000
    Empirical Dispersion Energy =           0.0000000000000000
    PCM Polarization Energy =               0.0000000000000000
    EFP Energy =                            0.0000000000000000
    Total Energy =                       -266.8173653315161573
    Molecular point group: c1
  Basis Set: 6-31G*
  Basis Set:

  -Total Gradient:
     Atom            X                  Y                   Z
    ------   -----------------  -----------------  -----------------
       1       -0.000131487855    -0.000153308902     0.004982236464
       2       -0.001028850390    -0.001102486958    -0.007658657804
       3       -0.000009245178     0.000013686082     0.000008528994
       4        0.003754890697     0.004204472929     0.003540717905
       5       -0.000006347013    -0.000006401965    -0.000020869006
       6        0.000000616391    -0.000011926419    -0.000007787667
       7        0.000000129170    -0.000009123363    -0.000010100975
       8       -0.002571423498    -0.002935587073    -0.000832101661
       9       -0.000003899873    -0.000008208648    -0.000005753300
      10       -0.000004672728    -0.000001952944     0.000003474198
      11        0.000000290275     0.000010837261     0.000000312852

  **** Optimization is complete! (in 7 steps) ****
    Final optimized geometry and variables:
    Molecular point group: c1

    Geometry (in Angstrom), charge = 0, multiplicity = 1:

    O           -0.134985640114     1.473747509425     0.282606875359
    C           -0.319563362503     0.307629784304     0.243839886401
    C           -1.672506661258    -0.349301628934     0.280154461015
    O            0.699238444914    -0.582300352263     0.249429961358
    H           -1.791462524325    -1.005294234600    -0.575796332177
    H           -2.451621348098     0.398509807933     0.283869231333
    H           -1.743583661126    -0.964838300161     1.170109363178
    C            1.356433513525    -0.796928021063    -0.982335105503
    H            0.679804038934    -1.231643086308    -1.711173185322
    H            2.159423488363    -1.490008946822    -0.786181178298
    H            1.760753558383     0.130426403504    -1.367253701743

  Mulliken Charges: (a.u.)
   Center  Symbol    Alpha    Beta     Spin     Total
       1     O     4.25010  4.25010  0.00000 -0.50019
       2     C     2.62930  2.62930  0.00000  0.74139
       3     C     3.28511  3.28511  0.00000 -0.57022
       4     O     4.30970  4.30970  0.00000 -0.61940
       5     H     0.40674  0.40674  0.00000  0.18653
       6     H     0.39692  0.39692  0.00000  0.20615
       7     H     0.39682  0.39682  0.00000  0.20636
       8     C     3.09282  3.09282  0.00000 -0.18564
       9     H     0.42249  0.42249  0.00000  0.15502
      10     H     0.40285  0.40285  0.00000  0.19429
      11     H     0.40715  0.40715  0.00000  0.18571

   Total alpha = 20.00000, Total beta = 20.00000, Total charge =  0.00000
