                              Psi4 1.0.54 Driver

  ==> Input File <==

--------------------------------------------------------------------------
set {
	reference rhf
	basis cc-pvtz
}

set_num_threads( 4 )
memory 2 gb

molecule MOL {
0 1

H	 2.859675	 1.862258	 -2.455169
N	 2.091743	 1.225241	 -2.465501
C	 1.360504	 1.265760	 -1.208875
H	 2.466825	 0.314469	 -2.630286
C	 0.143004	 0.354801	 -1.259609
H	 1.035722	 2.288176	 -1.047356
H	 1.976503	 0.993892	 -0.350628
C	 -0.678115	 0.376691	 0.025731
H	 -0.474316	 0.650239	 -2.101653
H	 0.470184	 -0.663594	 -1.460377
C	 -1.900706	 -0.535531	 -0.022488
H	 -1.001493	 1.395165	 0.228443
H	 -0.049219	 0.085611	 0.863964
C	 -3.220513	 0.226854	 0.028039
H	 -1.865036	 -1.134397	 -0.928236
H	 -1.857948	 -1.236381	 0.806820
H	 -3.309098	 0.911849	 -0.808725
H	 -4.066838	 -0.449485	 -0.008086
H	 -3.301685	 0.809374	 0.939860

	symmetry c1
}
set optking {
	frozen_dihedral = ("
		12 8 11 15
	")
}

ee,wfn = optimize('scf', return_wfn=True)
oeprop( wfn, 'DIPOLE', 'QUADRUPOLE', 'MULLIKEN_CHARGES')
f=open( 'psi4out.xyz', 'w' )
f.write( "19  " )
f.write( str(ee) + "\n" )
f.write( MOL.save_string_xyz() )
f.close()
--------------------------------------------------------------------------

    Molecular point group: c1
  Charge       = 0
  Multiplicity = 1
  Basis Set: CC-PVTZ
  Basis Set:
  @DF-RHF Final Energy:  -251.44231257230263
    Total Energy =                       -251.4423125723023986
    Molecular point group: c1
  Basis Set: CC-PVTZ
  Basis Set:
  Basis Set: CC-PVTZ
  Basis Set:
  @DF-RHF Final Energy:  -251.44257668798863
    Total Energy =                       -251.4425766879887760
  Basis Set: CC-PVTZ
  Basis Set:
  Basis Set: CC-PVTZ
  Basis Set:
  @DF-RHF Final Energy:  -251.44265243245485
    Total Energy =                       -251.4426524324549064
  Basis Set: CC-PVTZ
  Basis Set:
  Charge       = 0
  Multiplicity = 1
  Basis Set: CC-PVTZ
  Basis Set:

    Orbital Energies (a.u.)
    -----------------------

    Doubly Occupied:

       1A    -15.526454     2A    -11.237726     3A    -11.211624
       4A    -11.210239     5A    -11.208157     6A    -11.205327
       7A     -1.178138     8A     -1.071781     9A     -0.998466
      10A     -0.900562    11A     -0.816362    12A     -0.787789
      13A     -0.665801    14A     -0.636777    15A     -0.614081
      16A     -0.592867    17A     -0.581414    18A     -0.536448
      19A     -0.528329    20A     -0.500934    21A     -0.487969
      22A     -0.463129    23A     -0.454366    24A     -0.449033
      25A     -0.383813

  @DF-RHF Final Energy:  -251.44265315265895

   => Energetics <=

    Nuclear Repulsion Energy =            247.0529773067824237
    One-Electron Energy =                -828.4960887982415443
    Two-Electron Energy =                 330.0004583387999446
    DFT Exchange-Correlation Energy =       0.0000000000000000
    Empirical Dispersion Energy =           0.0000000000000000
    PCM Polarization Energy =               0.0000000000000000
    EFP Energy =                            0.0000000000000000
    Total Energy =                       -251.4426531526592044
    Molecular point group: c1
  Basis Set: CC-PVTZ
  Basis Set:

  -Total Gradient:
     Atom            X                  Y                   Z
    ------   -----------------  -----------------  -----------------
       1        0.000020079568     0.000002861814    -0.000025014656
       2        0.000020600937     0.000044320818    -0.000004089821
       3        0.000003876252    -0.000027430842    -0.000004709296
       4       -0.000002570972     0.000000629056     0.000008332217
       5       -0.000034889299    -0.000010655907     0.000083388373
       6        0.000011333516    -0.000000892134    -0.000006191562
       7       -0.000000155474     0.000008454815    -0.000002227501
       8       -0.000007163369    -0.000087677152     0.001395227921
       9       -0.000001485631    -0.000011977572     0.000008860424
      10        0.000000742536    -0.000001416847    -0.000005527369
      11        0.000739412915    -0.001055304232     0.000509135812
      12       -0.000113626383     0.000236668484    -0.001293418583
      13        0.000008736599     0.000007951610    -0.000004502965
      14        0.000026607305    -0.000046150272     0.000002633352
      15       -0.000663415134     0.000947765310    -0.000660595738
      16       -0.000006957930    -0.000007278241    -0.000006182613
      17        0.000004214780    -0.000006558323     0.000004815941
      18       -0.000011846939    -0.000001400882     0.000005186679
      19        0.000006506724     0.000008090496    -0.000005120617

  **** Optimization is complete! (in 4 steps) ****
    Final optimized geometry and variables:
    Molecular point group: c1

    Geometry (in Angstrom), charge = 0, multiplicity = 1:

    H            3.179132571035     1.384247022958    -1.638727126763
    N            2.418938251393     0.737887946780    -1.640336869597
    C            1.696104325128     0.775428525412    -0.378676211501
    H            2.804269687567    -0.168948830298    -1.803198755138
    C            0.489635199735    -0.150129147934    -0.416101861352
    H            1.360098826211     1.794600812291    -0.219309674460
    H            2.321326251278     0.515171844961     0.476646973649
    C           -0.323269734518    -0.134460846434     0.876571849046
    H           -0.139157770546     0.134210932981    -1.253959555894
    H            0.826364451754    -1.165561462489    -0.615604286112
    C           -1.571460797785    -1.039399842353     0.825009673253
    H           -0.627894710994     0.888573001260     1.078183689534
    H            0.316444369710    -0.429091068139     1.702187048502
    C           -2.884792383670    -0.261623032234     0.850226960694
    H           -1.545194751505    -1.639611784697    -0.078730970799
    H           -1.559640958807    -1.737875108419     1.654346133567
    H           -2.942798005355     0.432180440868     0.017775176407
    H           -3.738226366460    -0.927376309531     0.786167455518
    H           -2.980564455657     0.313733097687     1.764978830655

  Mulliken Charges: (a.u.)
   Center  Symbol    Alpha    Beta     Spin     Total
       1     H     0.43024  0.43024  0.00000  0.13953
       2     N     3.68887  3.68887  0.00000 -0.37773
       3     C     3.02836  3.02836  0.00000 -0.05672
       4     H     0.43101  0.43101  0.00000  0.13797
       5     C     3.08251  3.08251  0.00000 -0.16502
       6     H     0.45677  0.45677  0.00000  0.08645
       7     H     0.46873  0.46873  0.00000  0.06253
       8     C     3.10045  3.10045  0.00000 -0.20089
       9     H     0.44877  0.44877  0.00000  0.10246
      10     H     0.45926  0.45926  0.00000  0.08148
      11     C     3.08848  3.08848  0.00000 -0.17697
      12     H     0.45512  0.45512  0.00000  0.08975
      13     H     0.45046  0.45046  0.00000  0.09907
      14     C     3.14727  3.14727  0.00000 -0.29454
      15     H     0.45423  0.45423  0.00000  0.09153
      16     H     0.44973  0.44973  0.00000  0.10054
      17     H     0.45450  0.45450  0.00000  0.09100
      18     H     0.44998  0.44998  0.00000  0.10004
      19     H     0.45524  0.45524  0.00000  0.08952

   Total alpha = 25.00000, Total beta = 25.00000, Total charge =  0.00000

*** Psi4 exiting successfully. Buy a developer a beer!
