  ==> Input File <==

--------------------------------------------------------------------------
set {
	reference rhf
	basis cc-pvtz
}

set_num_threads( 4 )
memory 2 gb

molecule MOL {
0 1

H	 -2.824000	 0.533000	 -0.480000
O	 -2.356000	 -0.151000	 -0.021000
C	 -0.986000	 -0.072000	 -0.331000
H	 -0.855000	 -0.231000	 -1.401000
C	 -0.274000	 -1.192000	 0.409000
C	 -0.396000	 1.295000	 0.056000
H	 -0.359000	 -1.000000	 1.475000
H	 -0.783000	 -2.130000	 0.220000
C	 1.208000	 -1.278000	 -0.011000
H	 -0.587000	 2.011000	 -0.742000
H	 -0.932000	 1.649000	 0.931000
C	 1.116000	 1.227000	 0.358000
H	 1.785000	 -1.692000	 0.811000
H	 1.317000	 -1.973000	 -0.839000
C	 1.788000	 0.092000	 -0.417000
H	 1.586000	 2.178000	 0.126000
H	 1.268000	 1.063000	 1.421000
H	 2.861000	 0.105000	 -0.253000
H	 1.642000	 0.256000	 -1.482000

	symmetry c1
}
ee = optimize('scf')
oeprop('DIPOLE', 'QUADRUPOLE', 'MULLIKEN_CHARGES')
f=open( 'psi4out.xyz', 'w' )
f.write( "19  " )
f.write( str(ee) + "\n" )
f.write( MOL.save_string_xyz() )
f.close()
--------------------------------------------------------------------------

    Molecular point group: c1
  Charge       = 0
  Multiplicity = 1
  Basis Set: CC-PVTZ
  Basis Set:
  @DF-RHF Final Energy:  -309.16343506309408
    Total Energy =                       -309.1634350630941981
    Molecular point group: c1
  Basis Set: CC-PVTZ
  Basis Set:
  Basis Set: CC-PVTZ
  Basis Set:
  @DF-RHF Final Energy:  -309.16356724750136
    Total Energy =                       -309.1635672475010779
  Basis Set: CC-PVTZ
  Basis Set:
  Basis Set: CC-PVTZ
  Basis Set:
  @DF-RHF Final Energy:  -309.16356994785480
    Total Energy =                       -309.1635699478547394
  Basis Set: CC-PVTZ
  Basis Set:
  Charge       = 0
  Multiplicity = 1
  Basis Set: CC-PVTZ
  Basis Set:

    Orbital Energies (a.u.)
    -----------------------

    Doubly Occupied:

       1A    -20.543374     2A    -11.267286     3A    -11.215141
       4A    -11.213833     5A    -11.213201     6A    -11.212140
       7A    -11.206718     8A     -1.363377     9A     -1.110114
      10A     -1.003315    11A     -0.989431    12A     -0.844541
      13A     -0.836940    14A     -0.734592    15A     -0.699569
      16A     -0.663828    17A     -0.629428    18A     -0.591589
      19A     -0.579573    20A     -0.547826    21A     -0.531064
      22A     -0.519030    23A     -0.499357    24A     -0.488700
      25A     -0.463993    26A     -0.449585    27A     -0.428600
      28A     -0.414608

  @DF-RHF Final Energy:  -309.16357033350312

   => Energetics <=

    Nuclear Repulsion Energy =            331.9861776137829565
    One-Electron Energy =               -1077.7779884738624787
    Two-Electron Energy =                 436.6282405265766329
    DFT Exchange-Correlation Energy =       0.0000000000000000
    Empirical Dispersion Energy =           0.0000000000000000
    PCM Polarization Energy =               0.0000000000000000
    EFP Energy =                            0.0000000000000000
    Total Energy =                       -309.1635703335028893
    Molecular point group: c1
  Basis Set: CC-PVTZ
  Basis Set:

  -Total Gradient:
     Atom            X                  Y                   Z
    ------   -----------------  -----------------  -----------------
       1        0.000018046993    -0.000041712891     0.000027357284
       2       -0.000046980637     0.000054802604    -0.000024647433
       3        0.000030933058     0.000011005988     0.000015037316
       4        0.000000593328     0.000000387327     0.000001353888
       5       -0.000026787618     0.000001837276    -0.000014849863
       6       -0.000028586342    -0.000006442761    -0.000030489359
       7       -0.000005498578    -0.000006119710     0.000003839034
       8       -0.000002672439     0.000002658828     0.000008539030
       9        0.000032137724     0.000003724315    -0.000010010189
      10       -0.000012562224     0.000007172906     0.000015145243
      11       -0.000001317931    -0.000009899783    -0.000007429058
      12        0.000015266532     0.000007572093     0.000001887328
      13        0.000007534911    -0.000001834907     0.000000837365
      14        0.000012319446     0.000004075349     0.000011376570
      15       -0.000003428301    -0.000024503778     0.000003990261
      16        0.000003313384    -0.000009790912     0.000006511217
      17        0.000003265120     0.000007082143     0.000010507887
      18       -0.000003158573    -0.000003007238    -0.000009556012
      19        0.000007582147     0.000002993153    -0.000009400509

  **** Optimization is complete! (in 4 steps) ****
    Final optimized geometry and variables:
    Molecular point group: c1

    Geometry (in Angstrom), charge = 0, multiplicity = 1:

    H           -2.782309931290     0.540481830609    -0.470777359284
    O           -2.313988947242    -0.142474745938    -0.025864498346
    C           -0.943808011524    -0.065018277272    -0.329999965600
    H           -0.812293116718    -0.225641456905    -1.398672935068
    C           -0.231030495013    -1.182112511266     0.407591981267
    C           -0.353796710389     1.300460743085     0.050969244168
    H           -0.312800530267    -0.992012138459     1.473040811656
    H           -0.738841032972    -2.119564170674     0.220513593402
    C            1.246175392479    -1.268043728682    -0.015479904961
    H           -0.539537190060     2.008578561582    -0.751815754526
    H           -0.889989030976     1.662857586705     0.920676195232
    C            1.153605341627     1.231850777310     0.356834146771
    H            1.823095990255    -1.684664722980     0.802360229297
    H            1.352335282692    -1.958222653273    -0.845114363144
    C            1.826408706063     0.100722791022    -0.416007995527
    H            1.622967696043     2.181507966489     0.128733598295
    H            1.301982753201     1.066492782163     1.419366993427
    H            2.897298553925     0.112406744452    -0.249665779241
    H            1.683458368160     0.265620901512    -1.480024312010

  Mulliken Charges: (a.u.)
   Center  Symbol    Alpha    Beta     Spin     Total
       1     H     0.39673  0.39673  0.00000  0.20653
       2     O     4.19960  4.19960  0.00000 -0.39920
       3     C     2.92347  2.92347  0.00000  0.15305
       4     H     0.46373  0.46373  0.00000  0.07255
       5     C     3.09831  3.09831  0.00000 -0.19661
       6     C     3.12217  3.12217  0.00000 -0.24434
       7     H     0.45413  0.45413  0.00000  0.09174
       8     H     0.44040  0.44040  0.00000  0.11920
       9     C     3.11356  3.11356  0.00000 -0.22713
      10     H     0.45162  0.45162  0.00000  0.09675
      11     H     0.44577  0.44577  0.00000  0.10847
      12     C     3.10088  3.10088  0.00000 -0.20177
      13     H     0.44713  0.44713  0.00000  0.10574
      14     H     0.44747  0.44747  0.00000  0.10506
      15     C     3.10260  3.10260  0.00000 -0.20520
      16     H     0.44274  0.44274  0.00000  0.11452
      17     H     0.45253  0.45253  0.00000  0.09494
      18     H     0.44284  0.44284  0.00000  0.11432
      19     H     0.45431  0.45431  0.00000  0.09137

   Total alpha = 28.00000, Total beta = 28.00000, Total charge =  0.00000
