  ==> Input File <==

--------------------------------------------------------------------------
set {
	reference rhf
	basis 6-31G*
}

set_num_threads( 4 )
memory 2 gb

molecule MOL {
0 1

H	 2.262150	 -0.093845	 -0.953615
O	 1.654024	 -0.625927	 -0.460906
C	 1.135793	 0.118896	 0.612333
C	 0.031547	 1.023609	 0.088541
H	 1.915668	 0.729681	 1.063582
H	 0.754543	 -0.542641	 1.387006
C	 -1.134819	 0.293262	 -0.585751
H	 0.474374	 1.714721	 -0.623187
H	 -0.338529	 1.620940	 0.920081
C	 -1.917817	 -0.639439	 0.339494
H	 -0.758119	 -0.268455	 -1.433105
H	 -1.813832	 1.041889	 -0.986690
H	 -2.777680	 -1.057197	 -0.174994
H	 -1.310268	 -1.471279	 0.680599
H	 -2.283753	 -0.111424	 1.216626

	symmetry c1
}
set optking {
	frozen_dihedral = ("
		1 2 3 4
	")
}

ee = optimize('scf')
oeprop('DIPOLE', 'QUADRUPOLE', 'MULLIKEN_CHARGES')
f=open( 'psi4out.xyz', 'w' )
f.write( "15  " )
f.write( str(ee) + "\n" )
f.write( MOL.save_string_xyz() )
f.close()
--------------------------------------------------------------------------

    Molecular point group: c1
  Charge       = 0
  Multiplicity = 1
  Basis Set: 6-31G*
  Basis Set:
  @DF-RHF Final Energy:  -232.14183678432065
    Total Energy =                       -232.1418367843208443
    Molecular point group: c1
  Basis Set: 6-31G*
  Basis Set:
  Basis Set: 6-31G*
  Basis Set:
  @DF-RHF Final Energy:  -232.14321143210682
    Total Energy =                       -232.1432114321065683
  Basis Set: 6-31G*
  Basis Set:
  Basis Set: 6-31G*
  Basis Set:
  @DF-RHF Final Energy:  -232.14348927525643
    Total Energy =                       -232.1434892752564565
  Basis Set: 6-31G*
  Basis Set:
  Basis Set: 6-31G*
  Basis Set:
  @DF-RHF Final Energy:  -232.14343695988259
    Total Energy =                       -232.1434369598828766
  Basis Set: 6-31G*
  Basis Set:
  Basis Set: 6-31G*
  Basis Set:
  @DF-RHF Final Energy:  -232.14350086232304
    Total Energy =                       -232.1435008623232648
  Basis Set: 6-31G*
  Basis Set:
  Charge       = 0
  Multiplicity = 1
  Basis Set: 6-31G*
  Basis Set:

    Orbital Energies (a.u.)
    -----------------------

    Doubly Occupied:

       1A    -20.553905     2A    -11.267637     3A    -11.215518
       4A    -11.211575     5A    -11.205253     6A     -1.360151
       7A     -1.065164     8A     -0.969841     9A     -0.873681
      10A     -0.784976    11A     -0.686496    12A     -0.639845
      13A     -0.625548    14A     -0.578599    15A     -0.561734
      16A     -0.536106    17A     -0.504398    18A     -0.485570
      19A     -0.469331    20A     -0.453923    21A     -0.426141

  @DF-RHF Final Energy:  -232.14350105332292

   => Energetics <=

    Nuclear Repulsion Energy =            191.4838273218902316
    One-Electron Energy =                -694.3038731037167963
    Two-Electron Energy =                 270.6765447285034725
    DFT Exchange-Correlation Energy =       0.0000000000000000
    Empirical Dispersion Energy =           0.0000000000000000
    PCM Polarization Energy =               0.0000000000000000
    EFP Energy =                            0.0000000000000000
    Total Energy =                       -232.1435010533231207
    Molecular point group: c1
  Basis Set: 6-31G*
  Basis Set:

  -Total Gradient:
     Atom            X                  Y                   Z
    ------   -----------------  -----------------  -----------------
       1        0.001134915383    -0.000414345463     0.000956717594
       2       -0.001678924055     0.000192949083    -0.001089210820
       3        0.001189006922     0.000915265163    -0.000084987779
       4       -0.000632080305    -0.000716514360     0.000195140408
       5       -0.000009683894     0.000009980413    -0.000000472789
       6       -0.000006440074    -0.000006900079     0.000000592779
       7        0.000003254218     0.000019626723     0.000007892372
       8       -0.000009544247    -0.000009976814     0.000000577583
       9       -0.000019803993     0.000003034011     0.000001556791
      10        0.000010853981    -0.000009405721     0.000005853232
      11        0.000001870536    -0.000000298633     0.000003861885
      12        0.000013588206     0.000013858812     0.000000050661
      13        0.000002694132    -0.000001481724    -0.000003709962
      14        0.000011049727     0.000003488511     0.000007521287
      15       -0.000010756542     0.000000720079    -0.000001383240

  **** Optimization is complete! (in 6 steps) ****
    Final optimized geometry and variables:
    Molecular point group: c1

    Geometry (in Angstrom), charge = 0, multiplicity = 1:

    H            2.293533535534    -0.160729897121    -0.938863670599
    O            1.685747068096    -0.675259251774    -0.427224979035
    C            1.140692638756     0.120818287914     0.595846805890
    C            0.013652307316     1.023135032112     0.102513682688
    H            1.915280251590     0.722829023420     1.066406333502
    H            0.776578295448    -0.567403513102     1.347189906476
    C           -1.145263985040     0.285756619066    -0.576271543550
    H            0.429451119067     1.745595495427    -0.598602485344
    H           -0.359108175439     1.598525756510     0.948844057415
    C           -1.926174608327    -0.648848812439     0.349009977447
    H           -0.760144137288    -0.279020637006    -1.418560929878
    H           -1.827411348747     1.027303498221    -0.984778870519
    H           -2.777092066122    -1.078621666655    -0.170303079021
    H           -1.313496195863    -1.471795543444     0.701369990139
    H           -2.305114936420    -0.117407827847     1.218375031653

  Mulliken Charges: (a.u.)
   Center  Symbol    Alpha    Beta     Spin     Total
       1     H     0.28207  0.28207  0.00000  0.43586
       2     O     4.36892  4.36892  0.00000 -0.73784
       3     C     3.00161  3.00161  0.00000 -0.00323
       4     C     3.16487  3.16487  0.00000 -0.32974
       5     H     0.42813  0.42813  0.00000  0.14374
       6     H     0.41506  0.41506  0.00000  0.16989
       7     C     3.15170  3.15170  0.00000 -0.30339
       8     H     0.42611  0.42611  0.00000  0.14777
       9     H     0.42439  0.42439  0.00000  0.15121
      10     C     3.24373  3.24373  0.00000 -0.48747
      11     H     0.41109  0.41109  0.00000  0.17783
      12     H     0.42268  0.42268  0.00000  0.15465
      13     H     0.41874  0.41874  0.00000  0.16253
      14     H     0.41629  0.41629  0.00000  0.16742
      15     H     0.42461  0.42461  0.00000  0.15077

   Total alpha = 21.00000, Total beta = 21.00000, Total charge = -0.00000
