                              Psi4 1.0.54 Driver

  ==> Input File <==

--------------------------------------------------------------------------
set {
	reference rhf
	basis cc-pvtz
}

set_num_threads( 4 )
memory 2 gb

molecule MOL {
0 1

H	 -0.000105	 1.988529	 0.748933
O	 -0.000098	 1.879786	 -0.188206
C	 -0.000014	 0.545691	 -0.532416
C	 -1.395209	 0.118617	 -0.991563
C	 0.575096	 -0.294293	 0.609271
H	 0.660691	 0.421067	 -1.377755
F	 -1.749451	 0.838326	 -2.027610
F	 -1.439312	 -1.141505	 -1.343498
F	 -2.290223	 0.311831	 -0.046579
F	 1.801614	 0.094128	 0.857547
F	 0.608397	 -1.570642	 0.320243
F	 -0.123054	 -0.142321	 1.714199

	symmetry c1
}
set optking {
	frozen_dihedral = ("
		6 3 2 1
	")
}

ee,wfn = optimize('scf', return_wfn=True)
oeprop( wfn, 'DIPOLE', 'QUADRUPOLE', 'MULLIKEN_CHARGES')
f=open( 'psi4out.xyz', 'w' )
f.write( "12  " )
f.write( str(ee) + "\n" )
f.write( MOL.save_string_xyz() )
f.close()
--------------------------------------------------------------------------

    Molecular point group: c1
  Charge       = 0
  Multiplicity = 1
  Basis Set: CC-PVTZ
  Basis Set:
  @DF-RHF Final Energy:  -786.58651620167348
    Total Energy =                       -786.5865162016732484
    Molecular point group: c1
  Basis Set: CC-PVTZ
  Basis Set:
  Basis Set: CC-PVTZ
  Basis Set:
  @DF-RHF Final Energy:  -786.58684859475727
    Total Energy =                       -786.5868485947571571
  Basis Set: CC-PVTZ
  Basis Set:
  Basis Set: CC-PVTZ
  Basis Set:
  @DF-RHF Final Energy:  -786.58696522089883
    Total Energy =                       -786.5869652208987191
  Basis Set: CC-PVTZ
  Basis Set:
  Basis Set: CC-PVTZ
  Basis Set:
  @DF-RHF Final Energy:  -786.58697464577642
    Total Energy =                       -786.5869746457761948
  Basis Set: CC-PVTZ
  Basis Set:
  Charge       = 0
  Multiplicity = 1
  Basis Set: CC-PVTZ
  Basis Set:

    Orbital Energies (a.u.)
    -----------------------

    Doubly Occupied:

       1A    -26.364493     2A    -26.363211     3A    -26.360418
       4A    -26.352181     5A    -26.351855     6A    -26.348783
       7A    -20.608167     8A    -11.526397     9A    -11.514687
      10A    -11.351739    11A     -1.776216    12A     -1.763254
      13A     -1.672394    14A     -1.668176    15A     -1.659127
      16A     -1.657078    17A     -1.437694    18A     -1.104347
      19A     -1.002866    20A     -0.944987    21A     -0.874698
      22A     -0.869491    23A     -0.862331    24A     -0.850268
      25A     -0.839293    26A     -0.815434    27A     -0.751329
      28A     -0.738762    29A     -0.728084    30A     -0.725272
      31A     -0.701053    32A     -0.696727    33A     -0.691630
      34A     -0.679074    35A     -0.674291    36A     -0.673389
      37A     -0.660460    38A     -0.657871    39A     -0.623030
      40A     -0.551818    41A     -0.508594

  @DF-RHF Final Energy:  -786.58697581991373

   => Energetics <=

    Nuclear Repulsion Energy =            670.9859319494953525
    One-Electron Energy =               -2429.1438730620166098
    Two-Electron Energy =                 971.5709652926075250
    DFT Exchange-Correlation Energy =       0.0000000000000000
    Empirical Dispersion Energy =           0.0000000000000000
    PCM Polarization Energy =               0.0000000000000000
    EFP Energy =                            0.0000000000000000
    Total Energy =                       -786.5869758199137323
    Molecular point group: c1
  Basis Set: CC-PVTZ
  Basis Set:

  -Total Gradient:
     Atom            X                  Y                   Z
    ------   -----------------  -----------------  -----------------
       1        0.003283557997    -0.000016451518     0.000012476467
       2       -0.003542555663    -0.000058577663     0.000458666430
       3       -0.001846951432     0.000588166789    -0.002207397808
       4       -0.000221505392    -0.000256176566    -0.000122844051
       5       -0.000005897658     0.000036571444     0.000231607311
       6        0.002125044371    -0.000441035762     0.001767582773
       7        0.000068617709     0.000063604015     0.000031550069
       8        0.000063783734     0.000042477766     0.000044153907
       9        0.000112454175     0.000060362215     0.000021471411
      10       -0.000023804175    -0.000005998234    -0.000087896250
      11        0.000017957029    -0.000059074013    -0.000099623301
      12       -0.000030700703     0.000046131524    -0.000049746967

  **** Optimization is complete! (in 5 steps) ****
    Final optimized geometry and variables:
    Molecular point group: c1

    Geometry (in Angstrom), charge = 0, multiplicity = 1:

    H            0.419737191829     1.973929000514     0.876699361706
    O            0.425657068718     1.841761289962    -0.055545582309
    C            0.420865554680     0.502370806547    -0.390746746722
    C           -0.985107162877     0.095356210732    -0.832753111450
    C            0.988897047676    -0.346183038791     0.746739544664
    H            1.083322197442     0.347268111308    -1.231461639609
    F           -1.383169554542     0.890866408922    -1.793665190028
    F           -1.008690829376    -1.132508355838    -1.294517137556
    F           -1.851420036536     0.179928946844     0.148868927596
    F            2.249910452043    -0.028246625234     0.931420114343
    F            0.927363163565    -1.626108089322     0.494702692006
    F            0.359682464633    -0.116544345847     1.879911355934

  Mulliken Charges: (a.u.)
   Center  Symbol    Alpha    Beta     Spin     Total
       1     H     0.38170  0.38170  0.00000  0.23659
       2     O     4.19019  4.19019  0.00000 -0.38038
       3     C     3.00077  3.00077  0.00000 -0.00153
       4     C     2.68096  2.68096  0.00000  0.63807
       5     C     2.68705  2.68705  0.00000  0.62589
       6     H     0.43160  0.43160  0.00000  0.13679
       7     F     4.60161  4.60161  0.00000 -0.20321
       8     F     4.60557  4.60557  0.00000 -0.21114
       9     F     4.60720  4.60720  0.00000 -0.21440
      10     F     4.60476  4.60476  0.00000 -0.20953
      11     F     4.59843  4.59843  0.00000 -0.19686
      12     F     4.61014  4.61014  0.00000 -0.22029

   Total alpha = 41.00000, Total beta = 41.00000, Total charge = -0.00000

*** Psi4 exiting successfully. Buy a developer a beer!
