  ==> Input File <==

--------------------------------------------------------------------------
set {
	reference rhf
	basis cc-pvtz
}

set_num_threads( 4 )
memory 2 gb

molecule MOL {
0 1

H	 1.128311	 0.207724	 1.465118
C	 1.134565	 0.093781	 0.372499
C	 0.062554	 0.862911	 -0.350953
O	 1.948932	 -0.587720	 -0.146651
C	 0.542694	 1.422245	 -1.693795
H	 -0.297417	 1.648504	 0.300783
H	 -0.756723	 0.168926	 -0.524860
C	 1.604105	 2.509657	 -1.553814
H	 -0.314084	 1.819636	 -2.225382
H	 0.927812	 0.610554	 -2.304767
H	 1.227439	 3.347922	 -0.978495
H	 1.905604	 2.880733	 -2.525946
H	 2.491954	 2.141674	 -1.051471

	symmetry c1
}
set optking {
	frozen_dihedral = ("
		6 3 2 4
	")
}

ee = optimize('scf')
oeprop('DIPOLE', 'QUADRUPOLE', 'MULLIKEN_CHARGES')
f=open( 'psi4out.xyz', 'w' )
f.write( "13  " )
f.write( str(ee) + "\n" )
f.write( MOL.save_string_xyz() )
f.close()
--------------------------------------------------------------------------

    Molecular point group: c1
  Charge       = 0
  Multiplicity = 1
  Basis Set: CC-PVTZ
  Basis Set:
  @DF-RHF Final Energy:  -231.06962225436953
    Total Energy =                       -231.0696222543693921
    Molecular point group: c1
  Basis Set: CC-PVTZ
  Basis Set:
  Basis Set: CC-PVTZ
  Basis Set:
  @DF-RHF Final Energy:  -231.06867225889556
    Total Energy =                       -231.0686722588956172
  Basis Set: CC-PVTZ
  Basis Set:
  Basis Set: CC-PVTZ
  Basis Set:
  @DF-RHF Final Energy:  -231.07011513226078
    Total Energy =                       -231.0701151322607529
  Basis Set: CC-PVTZ
  Basis Set:
  Basis Set: CC-PVTZ
  Basis Set:
  @DF-RHF Final Energy:  -231.07025870227287
    Total Energy =                       -231.0702587022727812
  Basis Set: CC-PVTZ
  Basis Set:
  Basis Set: CC-PVTZ
  Basis Set:
  @DF-RHF Final Energy:  -231.07026247215708
    Total Energy =                       -231.0702624721570544
  Basis Set: CC-PVTZ
  Basis Set:
  Basis Set: CC-PVTZ
  Basis Set:
  @DF-RHF Final Energy:  -231.07026352587320
    Total Energy =                       -231.0702635258731448
  Basis Set: CC-PVTZ
  Basis Set:
  Charge       = 0
  Multiplicity = 1
  Basis Set: CC-PVTZ
  Basis Set:

    Orbital Energies (a.u.)
    -----------------------

    Doubly Occupied:

       1A    -20.552817     2A    -11.323564     3A    -11.235992
       4A    -11.225699     5A    -11.212717     6A     -1.408677
       7A     -1.080045     8A     -0.973262     9A     -0.852979
      10A     -0.766987    11A     -0.689006    12A     -0.638088
      13A     -0.630740    14A     -0.589721    15A     -0.562214
      16A     -0.528868    17A     -0.499871    18A     -0.486032
      19A     -0.481773    20A     -0.413536

  @DF-RHF Final Energy:  -231.07026361006018

   => Energetics <=

    Nuclear Repulsion Energy =            176.0198178727889626
    One-Electron Energy =                -661.8749894858538028
    Two-Electron Energy =                 254.7849080030049436
    DFT Exchange-Correlation Energy =       0.0000000000000000
    Empirical Dispersion Energy =           0.0000000000000000
    PCM Polarization Energy =               0.0000000000000000
    EFP Energy =                            0.0000000000000000
    Total Energy =                       -231.0702636100598966
    Molecular point group: c1
  Basis Set: CC-PVTZ
  Basis Set:

  -Total Gradient:
     Atom            X                  Y                   Z
    ------   -----------------  -----------------  -----------------
       1       -0.000005231436    -0.000003657936    -0.000001601616
       2        0.001838207235     0.002474459497     0.000064888246
       3        0.001436584731     0.000970476464    -0.000948405056
       4       -0.001556637376    -0.001942378475     0.000071936277
       5       -0.000011102045    -0.000014468859     0.000016944752
       6       -0.001700254778    -0.001474757811     0.000782798762
       7       -0.000006703690    -0.000000360923     0.000008607641
       8        0.000011204179    -0.000008995279     0.000006908502
       9       -0.000001854997    -0.000004050225     0.000003233614
      10        0.000004081587    -0.000000012918    -0.000005220930
      11       -0.000002201459     0.000004491059    -0.000000420577
      12       -0.000001092634    -0.000000757363     0.000002414453
      13       -0.000004999319     0.000000012770    -0.000002084068

  **** Optimization is complete! (in 7 steps) ****
    Final optimized geometry and variables:
    Molecular point group: c1

    Geometry (in Angstrom), charge = 0, multiplicity = 1:

    H           -0.023754367710    -0.757526496883     2.164083564162
    C            0.048645407010    -0.787298771444     1.070404871742
    C           -0.991129578592     0.014161033280     0.324812264071
    O            0.867411810082    -1.464703592422     0.551666226203
    C           -0.530219972874     0.563530597554    -1.022478162923
    H           -1.370905802336     0.795297108462     0.975822388460
    H           -1.823199423804    -0.673561403509     0.180232644998
    C            0.517724936985     1.665944275876    -0.900939581581
    H           -1.397245259043     0.946792626124    -1.549477635690
    H           -0.135875189483    -0.251710609527    -1.615339518888
    H            0.139113432968     2.505084400484    -0.325987192263
    H            0.799446957921     2.037164020811    -1.878967385252
    H            1.416738580081     1.304012499669    -0.416516051379

  Mulliken Charges: (a.u.)
   Center  Symbol    Alpha    Beta     Spin     Total
       1     H     0.45433  0.45433  0.00000  0.09133
       2     C     2.91557  2.91557  0.00000  0.16885
       3     C     3.09591  3.09591  0.00000 -0.19182
       4     O     4.16797  4.16797  0.00000 -0.33594
       5     C     3.08608  3.08608  0.00000 -0.17216
       6     H     0.44747  0.44747  0.00000  0.10506
       7     H     0.43960  0.43960  0.00000  0.12081
       8     C     3.15157  3.15157  0.00000 -0.30313
       9     H     0.44703  0.44703  0.00000  0.10593
      10     H     0.44338  0.44338  0.00000  0.11324
      11     H     0.45704  0.45704  0.00000  0.08591
      12     H     0.44636  0.44636  0.00000  0.10729
      13     H     0.44769  0.44769  0.00000  0.10462

   Total alpha = 20.00000, Total beta = 20.00000, Total charge = -0.00000
