                              Psi4 1.0.54 Driver

  ==> Input File <==

--------------------------------------------------------------------------
set {
	reference rhf
	basis cc-pvtz
}

set_num_threads( 4 )
memory 2 gb

molecule MOL {
0 1

O	 -2.761102	 0.716725	 0.476188
C	 -1.922978	 0.063265	 -0.045005
C	 -2.177804	 -0.966920	 -1.109070
O	 -0.637375	 0.157174	 0.243149
H	 -1.824407	 -1.932881	 -0.771802
H	 -3.233226	 -1.012043	 -1.322813
H	 -1.626346	 -0.709479	 -2.004161
C	 0.162530	 -1.009518	 0.097799
C	 1.587210	 -0.664190	 0.477086
H	 0.096803	 -1.356267	 -0.924704
H	 -0.233803	 -1.785900	 0.736810
C	 2.256770	 0.342732	 -0.454344
H	 2.154716	 -1.590834	 0.479041
H	 1.598751	 -0.289614	 1.496104
C	 3.698146	 0.643205	 -0.057145
H	 2.235038	 -0.042575	 -1.470299
H	 1.683491	 1.262594	 -0.461300
H	 4.150202	 1.356548	 -0.736242
H	 4.305463	 -0.255904	 -0.069842
H	 3.749130	 1.061068	 0.942759

	symmetry c1
}
set optking {
	frozen_dihedral = ("
		1 2 4 8
	")
}

ee,wfn = optimize('scf', return_wfn=True)
oeprop( wfn, 'DIPOLE', 'QUADRUPOLE', 'MULLIKEN_CHARGES')
f=open( 'psi4out.xyz', 'w' )
f.write( "20  " )
f.write( str(ee) + "\n" )
f.write( MOL.save_string_xyz() )
f.close()
--------------------------------------------------------------------------

    Molecular point group: c1
  Charge       = 0
  Multiplicity = 1
  Basis Set: CC-PVTZ
  Basis Set:
  @DF-RHF Final Energy:  -384.06524484819965
    Total Energy =                       -384.0652448481996544
    Molecular point group: c1
  Basis Set: CC-PVTZ
  Basis Set:
  Basis Set: CC-PVTZ
  Basis Set:
  @DF-RHF Final Energy:  -384.04532192512880
    Total Energy =                       -384.0453219251289170
  Basis Set: CC-PVTZ
  Basis Set:
  Basis Set: CC-PVTZ
  Basis Set:
  @DF-RHF Final Energy:  -384.07026571892533
    Total Energy =                       -384.0702657189251568
  Basis Set: CC-PVTZ
  Basis Set:
  Basis Set: CC-PVTZ
  Basis Set:
  @DF-RHF Final Energy:  -384.07160817128454
    Total Energy =                       -384.0716081712841969
  Basis Set: CC-PVTZ
  Basis Set:
  @DF-RHF Final Energy:  -384.07147312983307
    Total Energy =                       -384.0714731298324978
  Basis Set: CC-PVTZ
  Basis Set:
  @DF-RHF Final Energy:  -384.07272067622608
    Total Energy =                       -384.0727206762257993
  Basis Set: CC-PVTZ
  Basis Set:
  Basis Set: CC-PVTZ
  Basis Set:
  @DF-RHF Final Energy:  -384.07274799038049
    Total Energy =                       -384.0727479903810035
  Basis Set: CC-PVTZ
  Basis Set:
  Basis Set: CC-PVTZ
  Basis Set:
  @DF-RHF Final Energy:  -384.07275068707042
    Total Energy =                       -384.0727506870707657
  Basis Set: CC-PVTZ
  Basis Set:
  Charge       = 0
  Multiplicity = 1
  Basis Set: CC-PVTZ
  Basis Set:

    Orbital Energies (a.u.)
    -----------------------

    Doubly Occupied:

       1A    -20.589213     2A    -20.530962     3A    -11.368499
       4A    -11.294706     5A    -11.239627     6A    -11.228286
       7A    -11.220761     8A    -11.212560     9A     -1.464173
      10A     -1.368094    11A     -1.088067    12A     -1.020030
      13A     -1.000316    14A     -0.889624    15A     -0.815806
      16A     -0.780757    17A     -0.698951    18A     -0.690699
      19A     -0.664674    20A     -0.634300    21A     -0.611285
      22A     -0.594241    23A     -0.580974    24A     -0.557238
      25A     -0.550809    26A     -0.538811    27A     -0.509387
      28A     -0.488753    29A     -0.479461    30A     -0.477311
      31A     -0.447524    32A     -0.436043

  @DF-RHF Final Energy:  -384.07275123228550

   => Energetics <=

    Nuclear Repulsion Energy =            385.1866591604137398
    One-Electron Energy =               -1286.3749353850289481
    Two-Electron Energy =                 517.1155249923298243
    DFT Exchange-Correlation Energy =       0.0000000000000000
    Empirical Dispersion Energy =           0.0000000000000000
    PCM Polarization Energy =               0.0000000000000000
    EFP Energy =                            0.0000000000000000
    Total Energy =                       -384.0727512322854409
    Molecular point group: c1
  Basis Set: CC-PVTZ
  Basis Set:

  -Total Gradient:
     Atom            X                  Y                   Z
    ------   -----------------  -----------------  -----------------
       1       -0.000905907562    -0.002041028079     0.002277798963
       2        0.000813171572     0.002735872607    -0.001828838927
       3       -0.000004763569    -0.000034940006     0.000028627480
       4        0.000857215950    -0.000078599724    -0.003051331434
       5        0.000014617448    -0.000034526803    -0.000003483859
       6        0.000011234503     0.000014143751     0.000011078633
       7        0.000020788112     0.000004190921    -0.000033539432
       8       -0.000809162980    -0.000543605381     0.002610822062
       9        0.000014605803    -0.000014711617    -0.000024649761
      10       -0.000012423551     0.000044273641    -0.000000180889
      11        0.000008483466    -0.000054599431     0.000005086887
      12       -0.000009458381    -0.000005428945     0.000005633000
      13        0.000010258630    -0.000009453920     0.000007499574
      14       -0.000002735997     0.000001425458     0.000004319895
      15       -0.000002132540    -0.000001953279     0.000002661942
      16       -0.000002150856    -0.000002443120    -0.000014301964
      17       -0.000010802516     0.000025650424    -0.000002867987
      18        0.000002334694     0.000000572377    -0.000007258492
      19        0.000006668785    -0.000008513797     0.000003453339
      20        0.000000158982     0.000003674923     0.000009470967

  **** Optimization is complete! (in 9 steps) ****
    Final optimized geometry and variables:
    Molecular point group: c1

    Geometry (in Angstrom), charge = 0, multiplicity = 1:

    O           -2.538088108535     1.262329373120     0.305776442968
    C           -1.886261792193     0.427978638887    -0.211329706210
    C           -2.421958582840    -0.473722114360    -1.295896095384
    O           -0.611706577469     0.269976191946     0.143272036685
    H           -2.462186113373    -1.501466543810    -0.957399529440
    H           -3.415737073419    -0.145073651706    -1.550220918702
    H           -1.785462123410    -0.435561952925    -2.170957007132
    C            0.036458755191    -0.985961184296     0.083580854881
    C            1.426963360678    -0.831962190111     0.665360692765
    H            0.094041487671    -1.332396382061    -0.941981360966
    H           -0.528943609502    -1.710391855099     0.658265752630
    C            2.335608227845     0.093848018408    -0.138476665815
    H            1.869386199398    -1.823099918783     0.720039579262
    H            1.336645521769    -0.469278879048     1.683708730113
    C            3.728240239908     0.220009717380     0.469637432967
    H            2.418798153681    -0.281272940900    -1.155552890749
    H            1.878192265647     1.073461527448    -0.205502501159
    H            4.353218998482     0.878967822053    -0.121329313289
    H            4.223323373585    -0.744042843983     0.525095477774
    H            3.679570978153     0.624665948383     1.474794927177

  Mulliken Charges: (a.u.)
   Center  Symbol    Alpha    Beta     Spin     Total
       1     O     4.17847  4.17847  0.00000 -0.35695
       2     C     2.81872  2.81872  0.00000  0.36256
       3     C     3.16691  3.16691  0.00000 -0.33383
       4     O     4.13600  4.13600  0.00000 -0.27200
       5     H     0.44711  0.44711  0.00000  0.10577
       6     H     0.42703  0.42703  0.00000  0.14594
       7     H     0.44414  0.44414  0.00000  0.11173
       8     C     2.99845  2.99845  0.00000  0.00311
       9     C     3.08292  3.08292  0.00000 -0.16584
      10     H     0.45899  0.45899  0.00000  0.08202
      11     H     0.44850  0.44850  0.00000  0.10300
      12     C     3.08677  3.08677  0.00000 -0.17353
      13     H     0.45326  0.45326  0.00000  0.09348
      14     H     0.44727  0.44727  0.00000  0.10547
      15     C     3.15041  3.15041  0.00000 -0.30081
      16     H     0.45789  0.45789  0.00000  0.08422
      17     H     0.44137  0.44137  0.00000  0.11727
      18     H     0.44677  0.44677  0.00000  0.10645
      19     H     0.45660  0.45660  0.00000  0.08681
      20     H     0.45243  0.45243  0.00000  0.09514

   Total alpha = 32.00000, Total beta = 32.00000, Total charge = -0.00000

*** Psi4 exiting successfully. Buy a developer a beer!
