  ==> Input File <==

--------------------------------------------------------------------------
set {
	reference rhf
	basis 6-31G*
}

set_num_threads( 4 )
memory 2 gb

molecule MOL {
0 1

H	 -3.630439	 -0.355287	 -0.500362
O	 -2.796262	 -0.007506	 -0.781384
C	 -2.026376	 0.340750	 0.341611
C	 -0.673256	 0.843270	 -0.132153
H	 -2.525561	 1.118142	 0.917296
H	 -1.894964	 -0.519679	 0.996627
C	 0.486613	 -0.083066	 0.235839
H	 -0.715586	 0.970948	 -1.210718
H	 -0.508072	 1.829858	 0.297090
C	 1.840406	 0.433480	 -0.254303
H	 0.300215	 -1.068318	 -0.178947
H	 0.519509	 -0.203625	 1.318070
C	 3.000220	 -0.489290	 0.118523
H	 1.809207	 0.553576	 -1.335192
H	 2.021860	 1.424500	 0.157276
H	 2.864959	 -1.479103	 -0.307933
H	 3.946603	 -0.099227	 -0.243630
H	 3.080049	 -0.602997	 1.196117

	symmetry c1
}
set optking {
	frozen_dihedral = ("
		2 3 4 8
	")
}

ee = optimize('scf')
oeprop('DIPOLE', 'QUADRUPOLE', 'MULLIKEN_CHARGES')
f=open( 'psi4out.xyz', 'w' )
f.write( "18  " )
f.write( str(ee) + "\n" )
f.write( MOL.save_string_xyz() )
f.close()
--------------------------------------------------------------------------

    Molecular point group: c1
  Charge       = 0
  Multiplicity = 1
  Basis Set: 6-31G*
  Basis Set:
  @DF-RHF Final Energy:  -271.17381197066209
    Total Energy =                       -271.1738119706620864
    Molecular point group: c1
  Basis Set: 6-31G*
  Basis Set:
  Basis Set: 6-31G*
  Basis Set:
  @DF-RHF Final Energy:  -271.17414714291556
    Total Energy =                       -271.1741471429153876
  Basis Set: 6-31G*
  Basis Set:
  Basis Set: 6-31G*
  Basis Set:
  @DF-RHF Final Energy:  -271.17423350826414
    Total Energy =                       -271.1742335082640238
  Basis Set: 6-31G*
  Basis Set:
  Basis Set: 6-31G*
  Basis Set:
  @DF-RHF Final Energy:  -271.17423019732178
    Total Energy =                       -271.1742301973217764
  Basis Set: 6-31G*
  Basis Set:
  Basis Set: 6-31G*
  Basis Set:
  @DF-RHF Final Energy:  -271.17423793492321
    Total Energy =                       -271.1742379349232124
  Basis Set: 6-31G*
  Basis Set:
  Charge       = 0
  Multiplicity = 1
  Basis Set: 6-31G*
  Basis Set:

    Orbital Energies (a.u.)
    -----------------------

    Doubly Occupied:

       1A    -20.551449     2A    -11.267528     3A    -11.213635
       4A    -11.212844     5A    -11.210837     6A    -11.207274
       7A     -1.357468     8A     -1.077348     9A     -1.008000
      10A     -0.912438    11A     -0.820233    12A     -0.789893
      13A     -0.701406    14A     -0.641267    15A     -0.628053
      16A     -0.579109    17A     -0.570879    18A     -0.560956
      19A     -0.525910    20A     -0.497054    21A     -0.489775
      22A     -0.468423    23A     -0.462437    24A     -0.452781
      25A     -0.425423

  @DF-RHF Final Energy:  -271.17423803067197

   => Energetics <=

    Nuclear Repulsion Energy =            246.2148320476723029
    One-Electron Energy =                -855.5132974162854680
    Two-Electron Energy =                 338.1242273379413632
    DFT Exchange-Correlation Energy =       0.0000000000000000
    Empirical Dispersion Energy =           0.0000000000000000
    PCM Polarization Energy =               0.0000000000000000
    EFP Energy =                            0.0000000000000000
    Total Energy =                       -271.1742380306718019
    Molecular point group: c1
  Basis Set: 6-31G*
  Basis Set:

  -Total Gradient:
     Atom            X                  Y                   Z
    ------   -----------------  -----------------  -----------------
       1        0.000003515181     0.000001926528     0.000001840685
       2       -0.000642329680     0.001604765080    -0.000084441081
       3        0.000976553582    -0.002515770667     0.000064838986
       4       -0.001051847779     0.002996089239     0.000261939834
       5        0.000000252501    -0.000001118307    -0.000001871323
       6       -0.000004984750    -0.000001858910     0.000001347786
       7       -0.000005127901     0.000000877712    -0.000010344376
       8        0.000723562194    -0.002093657008    -0.000241100479
       9        0.000001202080     0.000002140351    -0.000001417848
      10        0.000003208524     0.000006678693     0.000009757430
      11        0.000006586103    -0.000000517860     0.000001959141
      12       -0.000004584855     0.000006383513    -0.000001564274
      13       -0.000001742486    -0.000007598260    -0.000007386701
      14       -0.000003136883     0.000004062867     0.000002574189
      15       -0.000002024122    -0.000000077187     0.000004774561
      16        0.000000698101    -0.000004145336     0.000003193538
      17       -0.000001276636    -0.000001728495    -0.000003630414
      18        0.000001476828     0.000003548047    -0.000000469653

  **** Optimization is complete! (in 6 steps) ****
    Final optimized geometry and variables:
    Molecular point group: c1

    Geometry (in Angstrom), charge = 0, multiplicity = 1:

    H           -3.527782055237    -0.540170748220    -0.443118399111
    O           -2.690944252495    -0.186901432423    -0.710235715177
    C           -1.951429066778     0.181156394615     0.429249856145
    C           -0.583150228712     0.705166770583    -0.023760210769
    H           -2.487647230482     0.946849624476     0.985575401851
    H           -1.830766319094    -0.673068066729     1.092620580288
    C            0.577159264501    -0.225840414644     0.337939313303
    H           -0.623584080291     0.817104391492    -1.101830617408
    H           -0.401089160346     1.690368889622     0.396350466013
    C            1.929979921925     0.274864930915    -0.168899598708
    H            0.379660833005    -1.213716143230    -0.074210212870
    H            0.622896344596    -0.348202712582     1.419330747141
    C            3.086056251124    -0.656636715218     0.193662593977
    H            1.886544224263     0.392920492850    -1.249357393714
    H            2.123381143126     1.265267940974     0.238341807672
    H            2.938172287069    -1.646851349242    -0.227913984104
    H            4.031020810048    -0.275613352998    -0.181146659838
    H            3.178012847874    -0.767191330242     1.270584477456

  Mulliken Charges: (a.u.)
   Center  Symbol    Alpha    Beta     Spin     Total
       1     H     0.28200  0.28200  0.00000  0.43600
       2     O     4.37117  4.37117  0.00000 -0.74234
       3     C     2.99642  2.99642  0.00000  0.00715
       4     C     3.16490  3.16490  0.00000 -0.32980
       5     H     0.43015  0.43015  0.00000  0.13971
       6     H     0.42947  0.42947  0.00000  0.14106
       7     C     3.15722  3.15722  0.00000 -0.31443
       8     H     0.40353  0.40353  0.00000  0.19294
       9     H     0.42100  0.42100  0.00000  0.15800
      10     C     3.15221  3.15221  0.00000 -0.30442
      11     H     0.41885  0.41885  0.00000  0.16229
      12     H     0.42597  0.42597  0.00000  0.14806
      13     C     3.23923  3.23923  0.00000 -0.47846
      14     H     0.42111  0.42111  0.00000  0.15778
      15     H     0.42366  0.42366  0.00000  0.15269
      16     H     0.42127  0.42127  0.00000  0.15747
      17     H     0.41937  0.41937  0.00000  0.16126
      18     H     0.42248  0.42248  0.00000  0.15504

   Total alpha = 25.00000, Total beta = 25.00000, Total charge =  0.00000
