  ==> Input File <==

--------------------------------------------------------------------------
set {
	reference rhf
	basis cc-pvtz
}

set_num_threads( 4 )
memory 2 gb

molecule MOL {
0 1

H	 -2.393814	 -1.745015	 -1.400503
N	 -1.483875	 -1.715297	 -0.992828
C	 -1.409278	 -0.700115	 0.041572
H	 -0.833400	 -1.509331	 -1.721152
C	 -0.023672	 -0.658154	 0.644051
H	 -1.660174	 0.298889	 -0.312812
H	 -2.112845	 -0.952675	 0.827230
O	 0.881195	 -0.248324	 -0.336237
H	 -0.006298	 0.036258	 1.482896
H	 0.244386	 -1.645476	 1.013196
C	 2.208068	 -0.234417	 0.074171
H	 2.725499	 -1.027054	 -0.446768
H	 2.688377	 0.712084	 -0.164856
H	 2.295137	 -0.403407	 1.144883

	symmetry c1
}
set optking {
	frozen_dihedral = ("
		5 8 11 13
	")
}

ee = optimize('scf')
oeprop('DIPOLE', 'QUADRUPOLE', 'MULLIKEN_CHARGES')
f=open( 'psi4out.xyz', 'w' )
f.write( "14  " )
f.write( str(ee) + "\n" )
f.write( MOL.save_string_xyz() )
f.close()
--------------------------------------------------------------------------

    Molecular point group: c1
  Charge       = 0
  Multiplicity = 1
  Basis Set: CC-PVTZ
  Basis Set:
  @DF-RHF Final Energy:  -248.22220418447725
    Total Energy =                       -248.2222041844771638
    Molecular point group: c1
  Basis Set: CC-PVTZ
  Basis Set:
  Basis Set: CC-PVTZ
  Basis Set:
  @DF-RHF Final Energy:  -248.22272535916167
    Total Energy =                       -248.2227253591613589
  Basis Set: CC-PVTZ
  Basis Set:
  Basis Set: CC-PVTZ
  Basis Set:
  @DF-RHF Final Energy:  -248.22282756370251
    Total Energy =                       -248.2228275637025376
  Basis Set: CC-PVTZ
  Basis Set:
  Charge       = 0
  Multiplicity = 1
  Basis Set: CC-PVTZ
  Basis Set:

    Orbital Energies (a.u.)
    -----------------------

    Doubly Occupied:

       1A    -20.547383     2A    -15.523114     3A    -11.264385
       4A    -11.263250     5A    -11.239376     6A     -1.379943
       7A     -1.175528     8A     -1.000360     9A     -0.907899
      10A     -0.815341    11A     -0.684111    12A     -0.673685
      13A     -0.644720    14A     -0.611540    15A     -0.607563
      16A     -0.540349    17A     -0.536329    18A     -0.496828
      19A     -0.473414    20A     -0.415135    21A     -0.383500

  @DF-RHF Final Energy:  -248.22282806929650

   => Energetics <=

    Nuclear Repulsion Energy =            194.4216023709690262
    One-Electron Energy =                -722.9213551496226273
    Two-Electron Energy =                 280.2769247093571607
    DFT Exchange-Correlation Energy =       0.0000000000000000
    Empirical Dispersion Energy =           0.0000000000000000
    PCM Polarization Energy =               0.0000000000000000
    EFP Energy =                            0.0000000000000000
    Total Energy =                       -248.2228280692964404
    Molecular point group: c1
  Basis Set: CC-PVTZ
  Basis Set:

  -Total Gradient:
     Atom            X                  Y                   Z
    ------   -----------------  -----------------  -----------------
       1        0.000007355573     0.000002692670    -0.000006910630
       2        0.000000168156     0.000013408746    -0.000007018789
       3       -0.000033354085    -0.000078895521     0.000063235918
       4       -0.000001639248     0.000005674247    -0.000015026768
       5       -0.000192927891     0.001254828022     0.000363162329
       6        0.000041952593    -0.000028084976     0.000012437904
       7       -0.000047295874    -0.000004352333     0.000007021076
       8        0.000208854489    -0.001525257762    -0.000202986139
       9       -0.000000991278    -0.000017857084     0.000026478659
      10        0.000000097996     0.000027518893    -0.000048817640
      11        0.000399170399    -0.000185638993    -0.001468268128
      12        0.000006828346    -0.000002066837    -0.000006873305
      13       -0.000384485411     0.000535109896     0.001284615027
      14       -0.000003733760     0.000002921032    -0.000001049513

  **** Optimization is complete! (in 4 steps) ****
    Final optimized geometry and variables:
    Molecular point group: c1

    Geometry (in Angstrom), charge = 0, multiplicity = 1:

    H           -2.439423684326    -1.016940395141    -1.285966928678
    N           -1.532445522834    -0.993662219590    -0.871376201493
    C           -1.460721412594     0.015828239868     0.168723207932
    H           -0.875844628004    -0.786249314102    -1.593745914242
    C           -0.080214526154     0.047079245388     0.783295691995
    H           -1.702150164690     1.018032582342    -0.183144463319
    H           -2.172544151106    -0.235932796709     0.947358386998
    O            0.833185804580     0.453371249381    -0.192414355579
    H           -0.066585479632     0.740151258430     1.622482030538
    H            0.174503743146    -0.943199441229     1.152439130660
    C            2.173635167359     0.473003927243     0.191842453931
    H            2.723589430892    -0.317318250425    -0.307529476995
    H            2.607333932712     1.429205191326    -0.073958277275
    H            2.286751192291     0.342205983551     1.263265947775

  Mulliken Charges: (a.u.)
   Center  Symbol    Alpha    Beta     Spin     Total
       1     H     0.43035  0.43035  0.00000  0.13930
       2     N     3.69427  3.69427  0.00000 -0.38853
       3     C     3.02427  3.02427  0.00000 -0.04855
       4     H     0.42219  0.42219  0.00000  0.15562
       5     C     2.96734  2.96734  0.00000  0.06531
       6     H     0.46489  0.46489  0.00000  0.07023
       7     H     0.45875  0.45875  0.00000  0.08250
       8     O     4.18449  4.18449  0.00000 -0.36897
       9     H     0.46958  0.46958  0.00000  0.06085
      10     H     0.46921  0.46921  0.00000  0.06157
      11     C     3.02726  3.02726  0.00000 -0.05453
      12     H     0.45913  0.45913  0.00000  0.08175
      13     H     0.45635  0.45635  0.00000  0.08730
      14     H     0.47193  0.47193  0.00000  0.05615

   Total alpha = 21.00000, Total beta = 21.00000, Total charge = -0.00000
