                              Psi4 1.0.54 Driver

  ==> Input File <==

--------------------------------------------------------------------------
set {
	reference rhf
	basis cc-pvtz
}

set_num_threads( 4 )
memory 2 gb

molecule MOL {
0 1

H	 3.889604	 0.356866	 -0.089510
N	 3.091268	 -0.241216	 -0.065538
C	 1.860978	 0.530248	 0.016256
H	 3.192566	 -0.835836	 0.730398
C	 0.644130	 -0.381765	 -0.031064
H	 1.835721	 1.204666	 -0.833114
H	 1.808789	 1.151975	 0.911067
C	 -0.678115	 0.376691	 0.025731
H	 0.693998	 -0.977147	 -0.936845
H	 0.693309	 -1.082142	 0.800523
C	 -0.506500	 1.872936	 0.272717
H	 -1.300883	 -0.044823	 0.811505
H	 -1.222140	 0.229204	 -0.904407
C	 -1.830848	 2.626508	 0.335204
H	 0.037238	 2.022443	 1.201313
H	 0.112327	 2.297322	 -0.513235
H	 -2.459023	 2.248271	 1.134937
H	 -1.673284	 3.684378	 0.511530
H	 -2.383475	 2.524911	 -0.593030

	symmetry c1
}
set optking {
	frozen_dihedral = ("
		12 8 5 9
	")
}

ee,wfn = optimize('scf', return_wfn=True)
oeprop( wfn, 'DIPOLE', 'QUADRUPOLE', 'MULLIKEN_CHARGES')
f=open( 'psi4out.xyz', 'w' )
f.write( "19  " )
f.write( str(ee) + "\n" )
f.write( MOL.save_string_xyz() )
f.close()
--------------------------------------------------------------------------

    Molecular point group: c1
  Charge       = 0
  Multiplicity = 1
  Basis Set: CC-PVTZ
  Basis Set:
  @DF-RHF Final Energy:  -251.43338424916070
    Total Energy =                       -251.4333842491606674
    Molecular point group: c1
  Basis Set: CC-PVTZ
  Basis Set:
  Basis Set: CC-PVTZ
  Basis Set:
  @DF-RHF Final Energy:  -251.43162907244979
    Total Energy =                       -251.4316290724501073
  Basis Set: CC-PVTZ
  Basis Set:
  Basis Set: CC-PVTZ
  Basis Set:
  @DF-RHF Final Energy:  -251.43741853869346
    Total Energy =                       -251.4374185386932936
  Basis Set: CC-PVTZ
  Basis Set:
  Basis Set: CC-PVTZ
  Basis Set:
  @DF-RHF Final Energy:  -251.43800158256636
    Total Energy =                       -251.4380015825663577
  Basis Set: CC-PVTZ
  Basis Set:
  @DF-RHF Final Energy:  -251.43805348239391
    Total Energy =                       -251.4380534823937410
  Basis Set: CC-PVTZ
  Basis Set:
  @DF-RHF Final Energy:  -251.43806962416485
    Total Energy =                       -251.4380696241648820
  Basis Set: CC-PVTZ
  Basis Set:
  Basis Set: CC-PVTZ
  Basis Set:
  @DF-RHF Final Energy:  -251.43808867349222
    Total Energy =                       -251.4380886734923024
  Basis Set: CC-PVTZ
  Basis Set:
  Basis Set: CC-PVTZ
  Basis Set:
  @DF-RHF Final Energy:  -251.43809009233303
    Total Energy =                       -251.4380900923329705
  Basis Set: CC-PVTZ
  Basis Set:
  Charge       = 0
  Multiplicity = 1
  Basis Set: CC-PVTZ
  Basis Set:

    Orbital Energies (a.u.)
    -----------------------

    Doubly Occupied:

       1A    -15.525866     2A    -11.237202     3A    -11.212549
       4A    -11.211187     5A    -11.208316     6A    -11.205835
       7A     -1.177769     8A     -1.070587     9A     -0.995170
      10A     -0.900138    11A     -0.836233    12A     -0.767959
      13A     -0.662570    14A     -0.642836    15A     -0.621021
      16A     -0.585417    17A     -0.573098    18A     -0.547577
      19A     -0.525669    20A     -0.503560    21A     -0.492317
      22A     -0.460444    23A     -0.451508    24A     -0.446153
      25A     -0.382981

  @DF-RHF Final Energy:  -251.43809013160259

   => Energetics <=

    Nuclear Repulsion Energy =            249.7163218576003203
    One-Electron Energy =                -833.8208941552277338
    Two-Electron Energy =                 332.6664821660245366
    DFT Exchange-Correlation Energy =       0.0000000000000000
    Empirical Dispersion Energy =           0.0000000000000000
    PCM Polarization Energy =               0.0000000000000000
    EFP Energy =                            0.0000000000000000
    Total Energy =                       -251.4380901316029053
    Molecular point group: c1
  Basis Set: CC-PVTZ
  Basis Set:

  -Total Gradient:
     Atom            X                  Y                   Z
    ------   -----------------  -----------------  -----------------
       1       -0.000004268670     0.000001629182     0.000002977533
       2       -0.000000485967    -0.000006309589     0.000016333134
       3       -0.000009481960     0.000006159752    -0.000048047105
       4        0.000006598178    -0.000004635060     0.000002348667
       5       -0.000892997685    -0.001693996888     0.001611122919
       6        0.000002106741     0.000006315653     0.000000467691
       7       -0.000003115168    -0.000005019224     0.000005063430
       8       -0.000838287625    -0.001293440892    -0.001908252162
       9        0.000891609235     0.001635213265    -0.001054424629
      10       -0.000005288096    -0.000008792828     0.000001474209
      11        0.000000426813    -0.000007132163     0.000012138653
      12        0.000850597172     0.001370670901     0.001367786882
      13        0.000000332826    -0.000003012305    -0.000001262560
      14        0.000000589095     0.000001230363    -0.000001025713
      15       -0.000001109558     0.000001815063     0.000000274162
      16        0.000002745214     0.000000590476    -0.000003963436
      17        0.000000445314     0.000000708240     0.000001282396
      18        0.000000906135    -0.000000343760    -0.000002507973
      19       -0.000001321997    -0.000001650188    -0.000001786098

  **** Optimization is complete! (in 9 steps) ****
    Final optimized geometry and variables:
    Molecular point group: c1

    Geometry (in Angstrom), charge = 0, multiplicity = 1:

    H            3.512009783252    -0.651810829318    -0.256529657321
    N            2.663413724264    -1.175703397798    -0.221992647060
    C            1.511103642058    -0.295310095621    -0.096075670024
    H            2.729254528027    -1.790705046012     0.562247094417
    C            0.229717637538    -1.123771830149    -0.101782742920
    H            1.520904087955     0.377088579596    -0.945802482079
    H            1.554931544393     0.324086956273     0.797594698654
    C           -1.113109934056    -0.351467358667    -0.038221066161
    H            0.257941376417    -1.723278457885    -1.003307581667
    H            0.281535567053    -1.821035377536     0.729293814601
    C           -1.050362046400     1.160459653452     0.194070053035
    H           -1.717687826963    -0.771466916056     0.759250658225
    H           -1.663480777934    -0.526335500431    -0.956635315989
    C           -2.439541472714     1.790485388163     0.223320118257
    H           -0.547526030659     1.372783244321     1.131966694936
    H           -0.464136810390     1.637203924772    -0.584249173333
    H           -3.046893782006     1.363941532644     1.014810164717
    H           -2.381756364833     2.859928900957     0.391065602513
    H           -2.961866618163     1.630463749674    -0.714096272806

  Mulliken Charges: (a.u.)
   Center  Symbol    Alpha    Beta     Spin     Total
       1     H     0.43031  0.43031  0.00000  0.13939
       2     N     3.69101  3.69101  0.00000 -0.38202
       3     C     3.02823  3.02823  0.00000 -0.05645
       4     H     0.43099  0.43099  0.00000  0.13801
       5     C     3.09116  3.09116  0.00000 -0.18232
       6     H     0.45468  0.45468  0.00000  0.09064
       7     H     0.46456  0.46456  0.00000  0.07088
       8     C     3.09621  3.09621  0.00000 -0.19242
       9     H     0.44604  0.44604  0.00000  0.10792
      10     H     0.45743  0.45743  0.00000  0.08514
      11     C     3.09267  3.09267  0.00000 -0.18533
      12     H     0.45230  0.45230  0.00000  0.09540
      13     H     0.45070  0.45070  0.00000  0.09861
      14     C     3.15002  3.15002  0.00000 -0.30003
      15     H     0.45306  0.45306  0.00000  0.09388
      16     H     0.45209  0.45209  0.00000  0.09583
      17     H     0.45521  0.45521  0.00000  0.08958
      18     H     0.44841  0.44841  0.00000  0.10319
      19     H     0.45495  0.45495  0.00000  0.09010

   Total alpha = 25.00000, Total beta = 25.00000, Total charge = -0.00000

*** Psi4 exiting successfully. Buy a developer a beer!
