  ==> Input File <==

--------------------------------------------------------------------------
set {
	reference rhf
	basis 6-31G*
}

set_num_threads( 4 )
memory 2 gb

molecule MOL {
0 1

H	 1.431327	 1.266289	 1.081473
O	 0.627711	 0.758465	 1.136679
C	 0.489431	 0.077273	 0.000046
C	 -0.764129	 -0.759190	 0.000191
O	 1.281583	 0.149058	 -0.881945
C	 -2.038368	 0.075731	 -0.000248
H	 -0.717284	 -1.412404	 -0.866059
H	 -0.717458	 -1.411724	 0.866967
H	 -2.086483	 0.712501	 -0.875098
H	 -2.908485	 -0.571682	 -0.000042
H	 -2.086576	 0.713280	 0.874068

	symmetry c1
}
set optking {
	frozen_dihedral = ("
		2 3 4 7
	")
}

ee = optimize('scf')
oeprop('DIPOLE', 'QUADRUPOLE', 'MULLIKEN_CHARGES')
f=open( 'psi4out.xyz', 'w' )
f.write( "11  " )
f.write( str(ee) + "\n" )
f.write( MOL.save_string_xyz() )
f.close()
--------------------------------------------------------------------------

    Molecular point group: c1
  Charge       = 0
  Multiplicity = 1
  Basis Set: 6-31G*
  Basis Set:
  @DF-RHF Final Energy:  -266.84418215793858
    Total Energy =                       -266.8441821579387465
    Molecular point group: c1
  Basis Set: 6-31G*
  Basis Set:
  Basis Set: 6-31G*
  Basis Set:
  @DF-RHF Final Energy:  -266.84448682737008
    Total Energy =                       -266.8444868273700195
  Basis Set: 6-31G*
  Basis Set:
  Basis Set: 6-31G*
  Basis Set:
  @DF-RHF Final Energy:  -266.84428512614954
    Total Energy =                       -266.8442851261494866
  Basis Set: 6-31G*
  Basis Set:
  Basis Set: 6-31G*
  Basis Set:
  @DF-RHF Final Energy:  -266.84451822663920
    Total Energy =                       -266.8445182266392521
  Basis Set: 6-31G*
  Basis Set:
  Basis Set: 6-31G*
  Basis Set:
  @DF-RHF Final Energy:  -266.84452358206255
    Total Energy =                       -266.8445235820625498
  Basis Set: 6-31G*
  Basis Set:
  Charge       = 0
  Multiplicity = 1
  Basis Set: 6-31G*
  Basis Set:

    Orbital Energies (a.u.)
    -----------------------

    Doubly Occupied:

       1A    -20.614000     2A    -20.551169     3A    -11.380960
       4A    -11.242915     5A    -11.230333     6A     -1.475034
       7A     -1.365587     8A     -1.067911     9A     -0.912124
      10A     -0.817148    11A     -0.701864    12A     -0.684539
      13A     -0.640775    14A     -0.616154    15A     -0.591206
      16A     -0.545049    17A     -0.526973    18A     -0.512277
      19A     -0.476776    20A     -0.440760

  @DF-RHF Final Energy:  -266.84452369731616

   => Energetics <=

    Nuclear Repulsion Energy =            180.0163372670088222
    One-Electron Energy =                -720.9346124630776558
    Two-Electron Energy =                 274.0737514987525287
    DFT Exchange-Correlation Energy =       0.0000000000000000
    Empirical Dispersion Energy =           0.0000000000000000
    PCM Polarization Energy =               0.0000000000000000
    EFP Energy =                            0.0000000000000000
    Total Energy =                       -266.8445236973163333
    Molecular point group: c1
  Basis Set: 6-31G*
  Basis Set:

  -Total Gradient:
     Atom            X                  Y                   Z
    ------   -----------------  -----------------  -----------------
       1       -0.000003411168    -0.000013573310    -0.000010802826
       2        0.000052756165    -0.000124704074     0.000082793454
       3       -0.000069538476     0.000139725255    -0.000074462583
       4       -0.000082172682     0.000150156765    -0.000109664486
       5       -0.000004808873    -0.000010566483    -0.000013059755
       6       -0.000001383861    -0.000008452249     0.000016549728
       7        0.000111448726    -0.000144879143     0.000094397851
       8       -0.000002558815    -0.000000645467     0.000003924332
       9        0.000007569810    -0.000005549644     0.000002586949
      10        0.000006413632     0.000005996028     0.000000584751
      11       -0.000014314458     0.000012492319     0.000007152591

  **** Optimization is complete! (in 6 steps) ****
    Final optimized geometry and variables:
    Molecular point group: c1

    Geometry (in Angstrom), charge = 0, multiplicity = 1:

    H            1.491278766819     1.185146345492     1.002593281873
    O            0.700848122057     0.658901381146     1.073998622846
    C            0.546204632050    -0.012772382161    -0.067115863681
    C           -0.697969427747    -0.861846897749    -0.063816366035
    O            1.317923499734     0.081950353434    -0.965204432736
    C           -1.973837355875    -0.010964525147    -0.070030503381
    H           -0.654054326628    -1.499221914540    -0.936262690357
    H           -0.678714540090    -1.488048982000     0.821867568803
    H           -2.010569551394     0.628299754440    -0.945739470445
    H           -2.846724120712    -0.653444749392    -0.089065011064
    H           -2.031406183820     0.613909547235     0.812792408940

  Mulliken Charges: (a.u.)
   Center  Symbol    Alpha    Beta     Spin     Total
       1     H     0.26748  0.26748  0.00000  0.46504
       2     O     4.34744  4.34744  0.00000 -0.69488
       3     C     2.63216  2.63216  0.00000  0.73568
       4     C     3.19899  3.19899  0.00000 -0.39799
       5     O     4.27792  4.27792  0.00000 -0.55585
       6     C     3.25122  3.25122  0.00000 -0.50244
       7     H     0.39643  0.39643  0.00000  0.20714
       8     H     0.40157  0.40157  0.00000  0.19686
       9     H     0.41044  0.41044  0.00000  0.17913
      10     H     0.41084  0.41084  0.00000  0.17833
      11     H     0.40551  0.40551  0.00000  0.18898

   Total alpha = 20.00000, Total beta = 20.00000, Total charge = -0.00000
