  ==> Input File <==

--------------------------------------------------------------------------
set {
	reference rhf
	basis 6-31G*
}

set_num_threads( 4 )
memory 2 gb

molecule MOL {
0 1

H	 -3.420663	 1.227371	 -1.044276
O	 -3.452007	 0.283848	 -0.965577
C	 -3.181085	 -0.079926	 0.364119
C	 -1.765924	 0.277073	 0.805136
H	 -3.327791	 -1.152017	 0.410903
H	 -3.905698	 0.375695	 1.036898
C	 -0.677594	 -0.417312	 -0.014550
H	 -1.637766	 1.358238	 0.744969
H	 -1.659588	 0.017670	 1.857098
C	 0.738335	 -0.034840	 0.421385
H	 -0.814977	 -0.178223	 -1.064632
H	 -0.802730	 -1.495410	 0.071702
C	 1.822265	 -0.738362	 -0.399735
H	 0.853533	 1.043532	 0.342250
H	 0.871597	 -0.279636	 1.474438
C	 1.554485	 -0.786307	 -1.908427
H	 1.954246	 -1.752851	 -0.026790
H	 2.769557	 -0.229555	 -0.233696
C	 0.345666	 -1.632095	 -2.313153
H	 2.438052	 -1.183328	 -2.402364
H	 1.427867	 0.227322	 -2.283563
H	 0.438707	 -2.648761	 -1.940498
H	 0.256241	 -1.684366	 -3.393943
H	 -0.583328	 -1.223005	 -1.930033

	symmetry c1
}
set optking {
	frozen_dihedral = ("
		17 13 10 7
	")
}

ee = optimize('scf')
oeprop('DIPOLE', 'QUADRUPOLE', 'MULLIKEN_CHARGES')
f=open( 'psi4out.xyz', 'w' )
f.write( "24  " )
f.write( str(ee) + "\n" )
f.write( MOL.save_string_xyz() )
f.close()
--------------------------------------------------------------------------

    Molecular point group: c1
  Charge       = 0
  Multiplicity = 1
  Basis Set: 6-31G*
  Basis Set:
  @DF-RHF Final Energy:  -349.21523769816974
    Total Energy =                       -349.2152376981696307
    Molecular point group: c1
  Basis Set: 6-31G*
  Basis Set:
  Basis Set: 6-31G*
  Basis Set:
  @DF-RHF Final Energy:  -349.23367840065424
    Total Energy =                       -349.2336784006542985
  Basis Set: 6-31G*
  Basis Set:
  Basis Set: 6-31G*
  Basis Set:
  @DF-RHF Final Energy:  -349.23912214997961
    Total Energy =                       -349.2391221499791527
  Basis Set: 6-31G*
  Basis Set:
  Basis Set: 6-31G*
  Basis Set:
  @DF-RHF Final Energy:  -349.24053913212589
    Total Energy =                       -349.2405391321254911
  Basis Set: 6-31G*
  Basis Set:
  @DF-RHF Final Energy:  -349.24107450043715
    Total Energy =                       -349.2410745004372075
  @DF-RHF Final Energy:  -349.24147171682057
    Total Energy =                       -349.2414717168206835
  Basis Set: 6-31G*
  Basis Set:
  @DF-RHF Final Energy:  -349.24155506326281
    Total Energy =                       -349.2415550632629220
  Basis Set: 6-31G*
  Basis Set:
  Basis Set: 6-31G*
  Basis Set:
  @DF-RHF Final Energy:  -349.24156781127198
    Total Energy =                       -349.2415678112720343
  Basis Set: 6-31G*
  Basis Set:
  Basis Set: 6-31G*
  Basis Set:
  @DF-RHF Final Energy:  -349.24157634461830
    Total Energy =                       -349.2415763446185224
  Basis Set: 6-31G*
  Basis Set:
  Charge       = 0
  Multiplicity = 1
  Basis Set: 6-31G*
  Basis Set:

    Orbital Energies (a.u.)
    -----------------------

    Doubly Occupied:

       1A    -20.553987     2A    -11.267922     3A    -11.217525
       4A    -11.213514     5A    -11.213152     6A    -11.211871
       7A    -11.210726     8A    -11.203568     9A     -1.360515
      10A     -1.086912    11A     -1.044813    12A     -0.984374
      13A     -0.918779    14A     -0.847868    15A     -0.807028
      16A     -0.768463    17A     -0.680373    18A     -0.652291
      19A     -0.620091    20A     -0.613824    21A     -0.602081
      22A     -0.586238    23A     -0.554739    24A     -0.541029
      25A     -0.520710    26A     -0.503728    27A     -0.497731
      28A     -0.478024    29A     -0.470691    30A     -0.455287
      31A     -0.451136    32A     -0.442589    33A     -0.419570

  @DF-RHF Final Energy:  -349.24157679777272

   => Energetics <=

    Nuclear Repulsion Energy =            394.1459718994395871
    One-Electron Energy =               -1254.7728003026304577
    Two-Electron Energy =                 511.3852516054181478
    DFT Exchange-Correlation Energy =       0.0000000000000000
    Empirical Dispersion Energy =           0.0000000000000000
    PCM Polarization Energy =               0.0000000000000000
    EFP Energy =                            0.0000000000000000
    Total Energy =                       -349.2415767977727228
    Molecular point group: c1
  Basis Set: 6-31G*
  Basis Set:

  -Total Gradient:
     Atom            X                  Y                   Z
    ------   -----------------  -----------------  -----------------
       1        0.000000671213     0.000001779471    -0.000006904171
       2        0.000019097185     0.000000340323     0.000002704860
       3       -0.000008250988     0.000005207936    -0.000005431284
       4       -0.000017540185    -0.000009205303     0.000025708929
       5        0.000007850901    -0.000001203418     0.000012488492
       6       -0.000002712910     0.000010542596    -0.000001897507
       7        0.000047429582     0.002528115877    -0.002188669669
       8        0.000004199252    -0.000015662579    -0.000007438003
       9       -0.000003605370    -0.000009079425     0.000004508122
      10        0.000691305350    -0.003303176625     0.003789198271
      11        0.000019404811    -0.000007934839    -0.000022110285
      12       -0.000012225956     0.000002942283    -0.000009717215
      13       -0.003823310136    -0.000641700431    -0.004593265135
      14        0.000022830485     0.000011352523     0.000004549499
      15        0.000016729994    -0.000035493401    -0.000034460279
      16       -0.000086665827     0.000026030412     0.000041815667
      17        0.003097239922     0.001406990591     0.002891335523
      18        0.000005902227     0.000020748285    -0.000015447122
      19        0.000050006014    -0.000033365761     0.000020783007
      20        0.000016658084    -0.000008762051     0.000046007090
      21       -0.000027790370     0.000018016746     0.000028652195
      22       -0.000013494578     0.000001296064     0.000001476215
      23        0.000002721348     0.000005136091    -0.000001209253
      24       -0.000006450046     0.000027084635     0.000017322053

  **** Optimization is complete! (in 10 steps) ****
    Final optimized geometry and variables:
    Molecular point group: c1

    Geometry (in Angstrom), charge = 0, multiplicity = 1:

    H           -2.841064130917     1.846544665750    -0.301354606332
    O           -2.928769455696     0.904240375480    -0.259855077843
    C           -2.616161947331     0.466055501403     1.038067757969
    C           -1.158882273260     0.708048661332     1.415324375105
    H           -2.834143340027    -0.594708973012     1.050239286359
    H           -3.272157097370     0.939741025203     1.766360645414
    C           -0.165474416872    -0.019873040620     0.507635541906
    H           -0.959954133263     1.779938181746     1.392091496810
    H           -1.015821683538     0.395778096060     2.448329939239
    C            1.288379969758     0.278337391146     0.881389525629
    H           -0.355919243050     0.267216956898    -0.519613082287
    H           -0.352655300509    -1.090528295928     0.570730068625
    C            2.379821910856    -0.434577912640     0.063640939602
    H            1.442559198546     1.352682875135     0.786880169614
    H            1.445994127075     0.046425994267     1.932497664392
    C            2.232799200128    -0.424475119528    -1.467279422399
    H            2.505053755500    -1.453652334315     0.425445735540
    H            3.316428666474     0.058724570164     0.314638061953
    C            1.451030414965    -1.602471414417    -2.054281486786
    H            3.227698773603    -0.436317471962    -1.904562158694
    H            1.781042313104     0.512872246086    -1.784980242804
    H            1.920999367476    -2.544769346187    -1.786374029814
    H            1.427394571878    -1.544149932499    -3.138489475895
    H            0.425941617223    -1.635147186185    -1.705893473767

  Mulliken Charges: (a.u.)
   Center  Symbol    Alpha    Beta     Spin     Total
       1     H     0.28333  0.28333  0.00000  0.43335
       2     O     4.36836  4.36836  0.00000 -0.73672
       3     C     2.99623  2.99623  0.00000  0.00753
       4     C     3.16840  3.16840  0.00000 -0.33680
       5     H     0.41633  0.41633  0.00000  0.16734
       6     H     0.42809  0.42809  0.00000  0.14382
       7     C     3.15607  3.15607  0.00000 -0.31213
       8     H     0.42835  0.42835  0.00000  0.14330
       9     H     0.42229  0.42229  0.00000  0.15542
      10     C     3.15170  3.15170  0.00000 -0.30340
      11     H     0.40930  0.40930  0.00000  0.18139
      12     H     0.42360  0.42360  0.00000  0.15279
      13     C     3.15405  3.15405  0.00000 -0.30811
      14     H     0.42608  0.42608  0.00000  0.14785
      15     H     0.42342  0.42342  0.00000  0.15315
      16     C     3.15688  3.15688  0.00000 -0.31376
      17     H     0.42314  0.42314  0.00000  0.15371
      18     H     0.42143  0.42143  0.00000  0.15714
      19     C     3.24093  3.24093  0.00000 -0.48187
      20     H     0.42084  0.42084  0.00000  0.15832
      21     H     0.42213  0.42213  0.00000  0.15574
      22     H     0.42308  0.42308  0.00000  0.15383
      23     H     0.42073  0.42073  0.00000  0.15854
      24     H     0.41522  0.41522  0.00000  0.16956

   Total alpha = 33.00000, Total beta = 33.00000, Total charge = -0.00000
