  ==> Input File <==

--------------------------------------------------------------------------
set {
	reference rhf
	basis 6-31G*
}

set_num_threads( 1 )
memory 2 gb

molecule MOL {
0 1

O	 0.074228	 1.262779	 -0.000085
C	 0.028650	 0.075053	 -0.000277
C	 -1.233602	 -0.752807	 0.000328
O	 1.109162	 -0.694619	 -0.000298
C	 -2.501530	 0.091881	 0.000126
H	 -1.193807	 -1.406641	 -0.865785
H	 -1.193516	 -1.405779	 0.867015
H	 -2.545121	 0.729328	 -0.874513
H	 -3.377167	 -0.548497	 0.000561
H	 -2.544818	 0.730135	 0.874258
C	 1.759378	 -0.889372	 -1.243230
H	 1.091808	 -1.358333	 -1.951636
H	 2.600176	 -1.533601	 -1.038560
H	 2.099388	 0.053827	 -1.646021

	symmetry c1
}
set optking {
	frozen_dihedral = ("
		4 2 3 6
	")
}

ee = energy('scf')
oeprop('DIPOLE', 'QUADRUPOLE', 'MULLIKEN_CHARGES')
f=open( 'psi4out.xyz', 'w' )
f.write( "14  " )
f.write( str(ee) + "\n" )
f.write( MOL.save_string_xyz() )
f.close()
--------------------------------------------------------------------------

    Molecular point group: c1

    Geometry (in Angstrom), charge = 0, multiplicity = 1:

       Center              X                  Y                   Z               Mass
    ------------   -----------------  -----------------  -----------------  -----------------
           O          0.182569151135     1.414869267166     0.222438213635    15.994914619560
           C          0.136991151135     0.227143267166     0.222246213635    12.000000000000
           C         -1.125260848865    -0.600716732834     0.222851213635    12.000000000000
           O          1.217503151135    -0.542528732834     0.222225213635    15.994914619560
           C         -2.393188848865     0.243971267166     0.222649213635    12.000000000000
           H         -1.085465848865    -1.254550732834    -0.643261786365     1.007825032070
           H         -1.085174848865    -1.253688732834     1.089538213635     1.007825032070
           H         -2.436779848865     0.881418267166    -0.651989786365     1.007825032070
           H         -3.268825848865    -0.396406732834     0.223084213635     1.007825032070
           H         -2.436476848865     0.882225267166     1.096781213635     1.007825032070
           C          1.867719151135    -0.737281732834    -1.020706786365    12.000000000000
           H          1.200149151135    -1.206242732834    -1.729112786365     1.007825032070
           H          2.708517151135    -1.381510732834    -0.816036786365     1.007825032070
           H          2.207729151135     0.205917267166    -1.423497786365     1.007825032070

  Charge       = 0
  Multiplicity = 1
  Basis Set: 6-31G*
  Basis Set:

    Orbital Energies (a.u.)
    -----------------------

    Doubly Occupied:

       1A    -20.588132     2A    -20.555346     3A    -11.374201
       4A    -11.294642     5A    -11.240012     6A    -11.217110
       7A     -1.465149     8A     -1.367494     9A     -1.062088
      10A     -0.982980    11A     -0.888980    12A     -0.769903
      13A     -0.699450    14A     -0.681250    15A     -0.674371
      16A     -0.620052    17A     -0.616388    18A     -0.558292
      19A     -0.543722    20A     -0.523103    21A     -0.508672
      22A     -0.489528    23A     -0.457198    24A     -0.436525

  @DF-RHF Final Energy:  -305.85216319824218

   => Energetics <=

    Nuclear Repulsion Energy =            247.4585873849686664
    One-Electron Energy =                -907.3923522004249662
    Two-Electron Energy =                 354.0816016172136642
    DFT Exchange-Correlation Energy =       0.0000000000000000
    Empirical Dispersion Energy =           0.0000000000000000
    PCM Polarization Energy =               0.0000000000000000
    EFP Energy =                            0.0000000000000000
    Total Energy =                       -305.8521631982425788

  Mulliken Charges: (a.u.)
   Center  Symbol    Alpha    Beta     Spin     Total
       1     O     4.26021  4.26021  0.00000 -0.52041
       2     C     2.61675  2.61675  0.00000  0.76650
       3     C     3.20768  3.20768  0.00000 -0.41536
       4     O     4.30978  4.30978  0.00000 -0.61956
       5     C     3.23988  3.23988  0.00000 -0.47975
       6     H     0.40752  0.40752  0.00000  0.18496
       7     H     0.39822  0.39822  0.00000  0.20355
       8     H     0.41123  0.41123  0.00000  0.17753
       9     H     0.41860  0.41860  0.00000  0.16280
      10     H     0.40855  0.40855  0.00000  0.18290
      11     C     3.09328  3.09328  0.00000 -0.18657
      12     H     0.42082  0.42082  0.00000  0.15836
      13     H     0.40177  0.40177  0.00000  0.19645
      14     H     0.40570  0.40570  0.00000  0.18860

   Total alpha = 24.00000, Total beta = 24.00000, Total charge = -0.00000
