                              Psi4 1.0.54 Driver

  ==> Input File <==

--------------------------------------------------------------------------
set {
	reference rhf
	basis cc-pvtz
}

set_num_threads( 4 )
memory 2 gb

molecule MOL {
0 1

H	 -3.918932	 -1.393329	 -0.936406
C	 -2.852823	 -1.274280	 -0.974003
C	 -2.208014	 -1.213097	 -2.196345
C	 -2.128253	 -1.182554	 0.199270
H	 -2.771068	 -1.284363	 -3.106615
C	 -0.838039	 -1.060108	 -2.243850
H	 -2.629249	 -1.230112	 1.146694
C	 -0.756424	 -1.029343	 0.153351
H	 -0.322804	 -1.010868	 -3.181488
C	 -0.107210	 -0.967671	 -1.069444
H	 -0.192327	 -0.957993	 1.060122
C	 1.370904	 -0.803093	 -1.174385
O	 1.968286	 -0.725612	 -0.000027
O	 1.956728	 -0.746804	 -2.203376
C	 3.373556	 -0.568203	 0.000011
H	 3.695416	 -0.031588	 -0.879663
H	 3.782700	 -1.565294	 -0.000152
H	 3.695405	 -0.031851	 0.879862

	symmetry c1
}
set optking {
	frozen_dihedral = ("
		12 13 15 16
	")
}

ee,wfn = optimize('scf', return_wfn=True)
oeprop( wfn, 'DIPOLE', 'QUADRUPOLE', 'MULLIKEN_CHARGES')
f=open( 'psi4out.xyz', 'w' )
f.write( "18  " )
f.write( str(ee) + "\n" )
f.write( MOL.save_string_xyz() )
f.close()
--------------------------------------------------------------------------

    Molecular point group: c1
  Charge       = 0
  Multiplicity = 1
  Basis Set: CC-PVTZ
  Basis Set:
  @DF-RHF Final Energy:  -457.50780440871114
    Total Energy =                       -457.5078044087108537
    Molecular point group: c1
  Basis Set: CC-PVTZ
  Basis Set:
  Basis Set: CC-PVTZ
  Basis Set:
  @DF-RHF Final Energy:  -457.50867598522143
    Total Energy =                       -457.5086759852215437
  Basis Set: CC-PVTZ
  Basis Set:
  Basis Set: CC-PVTZ
  Basis Set:
  @DF-RHF Final Energy:  -457.50768494538994
    Total Energy =                       -457.5076849453896557
  Basis Set: CC-PVTZ
  Basis Set:
  Basis Set: CC-PVTZ
  Basis Set:
  @DF-RHF Final Energy:  -457.50904367966365
    Total Energy =                       -457.5090436796633639
  Basis Set: CC-PVTZ
  Basis Set:
  Basis Set: CC-PVTZ
  Basis Set:
  @DF-RHF Final Energy:  -457.50908710276190
    Total Energy =                       -457.5090871027621233
  Basis Set: CC-PVTZ
  Basis Set:
  Charge       = 0
  Multiplicity = 1
  Basis Set: CC-PVTZ
  Basis Set:

    Orbital Energies (a.u.)
    -----------------------

    Doubly Occupied:

       1A    -20.600465     2A    -20.534069     3A    -11.372526
       4A    -11.280605     5A    -11.244693     6A    -11.243302
       7A    -11.242417     8A    -11.239791     9A    -11.235839
      10A    -11.235077    11A     -1.475661    12A     -1.368896
      13A     -1.170563    14A     -1.051719    15A     -1.028853
      16A     -0.981211    17A     -0.863012    18A     -0.838241
      19A     -0.780957    20A     -0.745123    21A     -0.688214
      22A     -0.680199    23A     -0.676259    24A     -0.634235
      25A     -0.629919    26A     -0.601141    27A     -0.588246
      28A     -0.567662    29A     -0.529319    30A     -0.520211
      31A     -0.509695    32A     -0.501880    33A     -0.462306
      34A     -0.449420    35A     -0.350073    36A     -0.346043

  @DF-RHF Final Energy:  -457.50908925151913

   => Energetics <=

    Nuclear Repulsion Energy =            493.8240818307705808
    One-Electron Energy =               -1602.1306557167840765
    Two-Electron Energy =                 650.7974846344948219
    DFT Exchange-Correlation Energy =       0.0000000000000000
    Empirical Dispersion Energy =           0.0000000000000000
    PCM Polarization Energy =               0.0000000000000000
    EFP Energy =                            0.0000000000000000
    Total Energy =                       -457.5090892515186169
    Molecular point group: c1
  Basis Set: CC-PVTZ
  Basis Set:

  -Total Gradient:
     Atom            X                  Y                   Z
    ------   -----------------  -----------------  -----------------
       1        0.000020853107     0.000001525381    -0.000001873545
       2        0.000022670736    -0.000000843387    -0.000021250038
       3        0.000008486724     0.000005239048     0.000013473462
       4        0.000049189074     0.000004655048    -0.000010492899
       5        0.000013549609     0.000002741005     0.000007570387
       6        0.000014066333    -0.000004216089     0.000012516106
       7        0.000015025049     0.000001687576    -0.000004593895
       8        0.000017081186    -0.000010595973    -0.000008821325
       9       -0.000001353013     0.000000681195    -0.000006286190
      10        0.000059246031     0.000030177764    -0.000014512242
      11        0.000009556819     0.000005048686     0.000006445031
      12       -0.000130486113     0.001408519040    -0.000081273994
      13        0.000209166991    -0.002567723825    -0.000172120864
      14       -0.000186502108    -0.000016751481    -0.000048781385
      15       -0.000265517070     0.002624605078     0.001138162181
      16        0.000165023199    -0.001509844382    -0.000767705368
      17       -0.000106429061     0.000078760865    -0.000006588028
      18        0.000086372508    -0.000053665550    -0.000033867397

  **** Optimization is complete! (in 6 steps) ****
    Final optimized geometry and variables:
    Molecular point group: c1

    Geometry (in Angstrom), charge = 0, multiplicity = 1:

    H           -4.032508396372    -0.355409919764    -0.041657431831
    C           -2.963383645955    -0.263384420358    -0.068258834719
    C           -2.302115600268    -0.248339556525    -1.283269463754
    C           -2.251228383189    -0.160428418638     1.111603004926
    H           -2.855361932109    -0.328440488786    -2.198851144303
    C           -0.928327841267    -0.130283409698    -1.316655586226
    H           -2.764686770206    -0.172289091658     2.053486049379
    C           -0.875489598553    -0.041917067242     1.079795798210
    H           -0.400624559755    -0.117228743392    -2.248564897615
    C           -0.209932213347    -0.026317884759    -0.135488435560
    H           -0.321295133688     0.037855510357     1.991938523703
    C            1.273521826857     0.099940574442    -0.226542213327
    O            1.853847703885     0.185775087675     0.956068875192
    O            1.868126129325     0.119009140650    -1.251541936576
    C            3.258337275620     0.346833455994     1.009091125721
    H            3.617365244112     0.879592456564     0.144990533114
    H            3.732113097242    -0.624411316055     1.045430270971
    H            3.472263073555     0.890450418165     1.915160039724

  Mulliken Charges: (a.u.)
   Center  Symbol    Alpha    Beta     Spin     Total
       1     H     0.42032  0.42032  0.00000  0.15935
       2     C     3.06977  3.06977  0.00000 -0.13954
       3     C     3.07554  3.07554  0.00000 -0.15107
       4     C     3.07492  3.07492  0.00000 -0.14984
       5     H     0.42044  0.42044  0.00000  0.15913
       6     C     3.07589  3.07589  0.00000 -0.15178
       7     H     0.42194  0.42194  0.00000  0.15612
       8     C     3.08202  3.08202  0.00000 -0.16405
       9     H     0.40650  0.40650  0.00000  0.18700
      10     C     3.01634  3.01634  0.00000 -0.03268
      11     H     0.41115  0.41115  0.00000  0.17771
      12     C     2.77759  2.77759  0.00000  0.44482
      13     O     4.14937  4.14937  0.00000 -0.29874
      14     O     4.21158  4.21158  0.00000 -0.42315
      15     C     3.03894  3.03894  0.00000 -0.07789
      16     H     0.44477  0.44477  0.00000  0.11046
      17     H     0.45552  0.45552  0.00000  0.08897
      18     H     0.44741  0.44741  0.00000  0.10517

   Total alpha = 36.00000, Total beta = 36.00000, Total charge = -0.00000

*** Psi4 exiting successfully. Buy a developer a beer!
