                              Psi4 1.0.54 Driver

  ==> Input File <==

--------------------------------------------------------------------------
set {
	reference rhf
	basis cc-pvtz
}

set_num_threads( 4 )
memory 2 gb

molecule MOL {
0 1

O	 1.619493	 1.024032	 0.758612
C	 1.704209	 0.119472	 -0.000093
C	 0.703924	 -0.217553	 -1.075958
O	 2.715427	 -0.733672	 0.000025
C	 -0.485657	 0.730434	 -1.126376
H	 1.239112	 -0.227216	 -2.019849
H	 0.384298	 -1.240756	 -0.907622
C	 -1.476992	 0.360011	 -2.225493
H	 -0.129392	 1.743069	 -1.277767
H	 -0.985052	 0.728543	 -0.164143
C	 -2.677597	 1.299524	 -2.291315
H	 -0.969257	 0.361310	 -3.187499
H	 -1.827957	 -0.657709	 -2.069586
C	 -3.668170	 0.929648	 -3.390119
H	 -2.328276	 2.316180	 -2.447972
H	 -3.186432	 1.297772	 -1.331500
H	 -3.197225	 0.956088	 -4.367230
H	 -4.507004	 1.615739	 -3.409358
H	 -4.062471	 -0.070221	 -3.241718
C	 4.020999	 -0.192556	 0.000019
H	 4.182809	 0.412891	 -0.879449
H	 4.692590	 -1.035653	 0.000152
H	 4.182726	 0.413087	 0.879368

	symmetry c1
}
set optking {
	frozen_dihedral = ("
		1 2 4 20
	")
}

ee,wfn = optimize('scf', return_wfn=True)
oeprop( wfn, 'DIPOLE', 'QUADRUPOLE', 'MULLIKEN_CHARGES')
f=open( 'psi4out.xyz', 'w' )
f.write( "23  " )
f.write( str(ee) + "\n" )
f.write( MOL.save_string_xyz() )
f.close()
--------------------------------------------------------------------------

    Molecular point group: c1
  Charge       = 0
  Multiplicity = 1
  Basis Set: CC-PVTZ
  Basis Set:
  @DF-RHF Final Energy:  -423.11964045233077
    Total Energy =                       -423.1196404523312822
    Molecular point group: c1
  Basis Set: CC-PVTZ
  Basis Set:
  Basis Set: CC-PVTZ
  Basis Set:
  @DF-RHF Final Energy:  -423.09573202704865
    Total Energy =                       -423.0957320270483706
  Basis Set: CC-PVTZ
  Basis Set:
  Basis Set: CC-PVTZ
  Basis Set:
  @DF-RHF Final Energy:  -423.11756789558967
    Total Energy =                       -423.1175678955893318
  Basis Set: CC-PVTZ
  Basis Set:
  Basis Set: CC-PVTZ
  Basis Set:
  @DF-RHF Final Energy:  -423.12041654184094
    Total Energy =                       -423.1204165418404273
  Basis Set: CC-PVTZ
  Basis Set:
  Basis Set: CC-PVTZ
  Basis Set:
  @DF-RHF Final Energy:  -423.12049739009240
    Total Energy =                       -423.1204973900926234
  Basis Set: CC-PVTZ
  Basis Set:
  Basis Set: CC-PVTZ
  Basis Set:
  @DF-RHF Final Energy:  -423.12051637985684
    Total Energy =                       -423.1205163798572357
  Basis Set: CC-PVTZ
  Basis Set:
  Basis Set: CC-PVTZ
  Basis Set:
  @DF-RHF Final Energy:  -423.12051841019326
    Total Energy =                       -423.1205184101933128
  Basis Set: CC-PVTZ
  Basis Set:
  Charge       = 0
  Multiplicity = 1
  Basis Set: CC-PVTZ
  Basis Set:

    Orbital Energies (a.u.)
    -----------------------

    Doubly Occupied:

       1A    -20.585271     2A    -20.540126     3A    -11.366498
       4A    -11.282790     5A    -11.235174     6A    -11.218091
       7A    -11.216694     8A    -11.215173     9A    -11.208306
      10A     -1.465089    11A     -1.367463    12A     -1.095046
      13A     -1.043859    14A     -0.984915    15A     -0.936164
      16A     -0.847025    17A     -0.796352    18A     -0.766857
      19A     -0.698477    20A     -0.681538    21A     -0.675774
      22A     -0.651401    23A     -0.612359    24A     -0.605170
      25A     -0.576816    26A     -0.568112    27A     -0.554230
      28A     -0.530966    29A     -0.513128    30A     -0.508801
      31A     -0.485903    32A     -0.472435    33A     -0.468824
      34A     -0.466520    35A     -0.455214    36A     -0.434760

  @DF-RHF Final Energy:  -423.12051865152881

   => Energetics <=

    Nuclear Repulsion Energy =            452.4196195403669094
    One-Electron Energy =               -1472.8176235760290638
    Two-Electron Energy =                 597.2774853841330014
    DFT Exchange-Correlation Energy =       0.0000000000000000
    Empirical Dispersion Energy =           0.0000000000000000
    PCM Polarization Energy =               0.0000000000000000
    EFP Energy =                            0.0000000000000000
    Total Energy =                       -423.1205186515290961
    Molecular point group: c1
  Basis Set: CC-PVTZ
  Basis Set:

  -Total Gradient:
     Atom            X                  Y                   Z
    ------   -----------------  -----------------  -----------------
       1       -0.005708090325    -0.002876878904     0.006912096282
       2        0.008413943276     0.003186286002    -0.013776488017
       3       -0.000115532121     0.000171580542    -0.000004532440
       4       -0.002581682885     0.001347778202     0.014040490889
       5       -0.000017936864    -0.000033849489    -0.000024069977
       6       -0.000003054127    -0.000014050203     0.000008273130
       7       -0.000002168750     0.000017891971     0.000010965911
       8        0.000003126053     0.000016737298     0.000001968513
       9        0.000003752562    -0.000002643112    -0.000007490902
      10        0.000002125781    -0.000007002188     0.000001787198
      11        0.000000538415    -0.000009974201    -0.000002756184
      12        0.000000582253     0.000007022447     0.000000983547
      13        0.000000117512     0.000005878090     0.000003404639
      14       -0.000006593609     0.000006162480    -0.000000231087
      15        0.000001143611    -0.000006568452    -0.000003987548
      16       -0.000000571832    -0.000005049644    -0.000001690255
      17        0.000000959804     0.000004527695     0.000003509695
      18       -0.000002163896    -0.000006710445    -0.000002683562
      19        0.000000051980     0.000005168710     0.000002045267
      20        0.000014434891    -0.001805286873    -0.007153813368
      21       -0.000010880548    -0.000004586885    -0.000002092892
      22        0.000001162921     0.000016519013    -0.000002457601
      23        0.000006735902    -0.000012952050    -0.000003231238

  **** Optimization is complete! (in 8 steps) ****
    Final optimized geometry and variables:
    Molecular point group: c1

    Geometry (in Angstrom), charge = 0, multiplicity = 1:

    O            1.551422590598     0.861393243607     1.459429735555
    C            1.445280285735    -0.193049103744     0.940822178116
    C            0.328640730354    -0.598594745824     0.016122880047
    O            2.273307359959    -1.213139635418     1.197441702121
    C           -0.743906224973     0.464451880361    -0.169485892743
    H            0.786047802318    -0.865922813908    -0.932660967666
    H           -0.087956662845    -1.520695213979     0.407735877810
    C           -1.853304879535     0.013332592387    -1.114907216737
    H           -0.286098879230     1.372480348779    -0.545114371005
    H           -1.164665893762     0.717858270614     0.797216464407
    C           -2.939058143647     1.067341505401    -1.311274364993
    H           -1.424581125407    -0.242081296617    -2.081530186599
    H           -2.306061289551    -0.899177675535    -0.733562907811
    C           -4.047837665590     0.616396731882    -2.256055609653
    H           -2.488090691829     1.978806003741    -1.693413637332
    H           -3.368760953756     1.322283437870    -0.346676060242
    H           -3.654240232683     0.387023055889    -3.240805394679
    H           -4.801127534681     1.386845245031    -2.372963600858
    H           -4.541801365919    -0.274752893422    -1.883167021654
    C            3.660811284318    -0.955015699714     1.132726004503
    H            3.945087137476    -0.690523622658     0.121534188986
    H            4.156521145787    -1.869154297086     1.416291859320
    H            3.940381356089    -0.160222636810     1.807918232290

  Mulliken Charges: (a.u.)
   Center  Symbol    Alpha    Beta     Spin     Total
       1     O     4.18303  4.18303  0.00000 -0.36606
       2     C     2.79791  2.79791  0.00000  0.40418
       3     C     3.10604  3.10604  0.00000 -0.21208
       4     O     4.16060  4.16060  0.00000 -0.32120
       5     C     3.08515  3.08515  0.00000 -0.17029
       6     H     0.44443  0.44443  0.00000  0.11113
       7     H     0.43719  0.43719  0.00000  0.12562
       8     C     3.08884  3.08884  0.00000 -0.17768
       9     H     0.44611  0.44611  0.00000  0.10778
      10     H     0.44594  0.44594  0.00000  0.10813
      11     C     3.08406  3.08406  0.00000 -0.16813
      12     H     0.45607  0.45607  0.00000  0.08785
      13     H     0.45527  0.45527  0.00000  0.08946
      14     C     3.15036  3.15036  0.00000 -0.30072
      15     H     0.45332  0.45332  0.00000  0.09335
      16     H     0.45303  0.45303  0.00000  0.09395
      17     H     0.45545  0.45545  0.00000  0.08910
      18     H     0.44763  0.44763  0.00000  0.10474
      19     H     0.45516  0.45516  0.00000  0.08967
      20     C     3.03726  3.03726  0.00000 -0.07451
      21     H     0.46491  0.46491  0.00000  0.07017
      22     H     0.44565  0.44565  0.00000  0.10869
      23     H     0.44657  0.44657  0.00000  0.10687

   Total alpha = 36.00000, Total beta = 36.00000, Total charge = -0.00000

*** Psi4 exiting successfully. Buy a developer a beer!
