  ==> Input File <==

--------------------------------------------------------------------------
set {
	reference rhf
	basis 6-31G*
}

set_num_threads( 4 )
memory 2 gb

molecule MOL {
0 1

H	 -2.365627	 -1.312883	 -0.379134
C	 -1.358347	 -1.274295	 0.019669
C	 -0.681945	 0.000119	 -0.470601
H	 -0.826096	 -2.155117	 -0.321105
H	 -1.409554	 -1.292283	 1.100109
C	 -1.357790	 1.274691	 0.020220
N	 0.739525	 -0.000142	 0.006128
H	 -0.594190	 0.000341	 -1.545128
H	 -2.364980	 1.313977	 -0.378631
H	 -0.825080	 2.155361	 -0.320114
H	 -1.409060	 1.292170	 1.100671
O	 1.319568	 1.041074	 0.007191
O	 1.200365	 -1.044839	 0.354891

	symmetry c1
}
set optking {
	frozen_dihedral = ("
		12 7 3 8
	")
}

ee = optimize('scf')
oeprop('DIPOLE', 'QUADRUPOLE', 'MULLIKEN_CHARGES')
f=open( 'psi4out.xyz', 'w' )
f.write( "13  " )
f.write( str(ee) + "\n" )
f.write( MOL.save_string_xyz() )
f.close()
--------------------------------------------------------------------------

    Molecular point group: c1
  Charge       = 0
  Multiplicity = 1
  Basis Set: 6-31G*
  Basis Set:
  @DF-RHF Final Energy:  -321.73614369323917
    Total Energy =                       -321.7361436932392280
    Molecular point group: c1
  Basis Set: 6-31G*
  Basis Set:
  Basis Set: 6-31G*
  Basis Set:
  @DF-RHF Final Energy:  -321.73385310445212
    Total Energy =                       -321.7338531044522938
  Basis Set: 6-31G*
  Basis Set:
  Basis Set: 6-31G*
  Basis Set:
  @DF-RHF Final Energy:  -321.73449786823369
    Total Energy =                       -321.7344978682334613
  Basis Set: 6-31G*
  Basis Set:
  Basis Set: 6-31G*
  Basis Set:
  @DF-RHF Final Energy:  -321.73676064132763
    Total Energy =                       -321.7367606413274075
  Basis Set: 6-31G*
  Basis Set:
  Basis Set: 6-31G*
  Basis Set:
  @DF-RHF Final Energy:  -321.73710341541039
    Total Energy =                       -321.7371034154103313
  Basis Set: 6-31G*
  Basis Set:
  Basis Set: 6-31G*
  Basis Set:
  @DF-RHF Final Energy:  -321.73711964684992
    Total Energy =                       -321.7371196468498056
  Basis Set: 6-31G*
  Basis Set:
  Basis Set: 6-31G*
  Basis Set:
  @DF-RHF Final Energy:  -321.73712201871649
    Total Energy =                       -321.7371220187164909
  Basis Set: 6-31G*
  Basis Set:
  Charge       = 0
  Multiplicity = 1
  Basis Set: 6-31G*
  Basis Set:

    Orbital Energies (a.u.)
    -----------------------

    Doubly Occupied:

       1A    -20.600821     2A    -20.598101     3A    -15.844649
       4A    -11.308754     5A    -11.242176     6A    -11.240609
       7A     -1.629555     8A     -1.414299     9A     -1.141128
      10A     -0.967911    11A     -0.959175    12A     -0.812625
      13A     -0.762647    14A     -0.725079    15A     -0.719818
      16A     -0.639119    17A     -0.596205    18A     -0.585457
      19A     -0.571188    20A     -0.522614    21A     -0.521715
      22A     -0.479949    23A     -0.471844    24A     -0.447495

  @DF-RHF Final Energy:  -321.73712268568778

   => Energetics <=

    Nuclear Repulsion Energy =            256.6761992076902175
    One-Electron Energy =                -947.2207727084346516
    Two-Electron Energy =                 368.8074508150567112
    DFT Exchange-Correlation Energy =       0.0000000000000000
    Empirical Dispersion Energy =           0.0000000000000000
    PCM Polarization Energy =               0.0000000000000000
    EFP Energy =                            0.0000000000000000
    Total Energy =                       -321.7371226856877797
    Molecular point group: c1
  Basis Set: 6-31G*
  Basis Set:

  -Total Gradient:
     Atom            X                  Y                   Z
    ------   -----------------  -----------------  -----------------
       1        0.000010609044     0.000004569150     0.000002053450
       2       -0.000008426192    -0.000012312500    -0.000009492230
       3       -0.000076827502     0.000785331922     0.000216864440
       4       -0.000004250728    -0.000010238695    -0.000000511985
       5       -0.000000587892     0.000004064238     0.000006867453
       6       -0.000001253150     0.000008649511     0.000008251435
       7        0.000252327710    -0.000243332311    -0.000858448581
       8        0.000013192277    -0.000656308415     0.000013464014
       9        0.000004413956    -0.000001568195    -0.000000981341
      10        0.000003234495     0.000017228984     0.000002014253
      11       -0.000000692212     0.000000116415    -0.000003480836
      12       -0.000207818133     0.000087088164     0.000619079677
      13        0.000016078321     0.000016711730     0.000004320250

  **** Optimization is complete! (in 8 steps) ****
    Final optimized geometry and variables:
    Molecular point group: c1

    Geometry (in Angstrom), charge = 0, multiplicity = 1:

    H           -2.403252560326    -1.260076930862    -0.370232855406
    C           -1.389323326817    -1.275356014664     0.013452906553
    C           -0.685079001642    -0.006952269054    -0.444350457526
    H           -0.894315058933    -2.162536628228    -0.352180575380
    H           -1.434005776903    -1.327469532987     1.094838025852
    C           -1.378916689996     1.270462243220     0.011257706805
    N            0.750101046879     0.000319828349     0.021183374131
    H           -0.582134590934    -0.009319803800    -1.523278521199
    H           -2.394662688770     1.265521511321    -0.367002716592
    H           -0.874521621766     2.150469194096    -0.357507482208
    H           -1.420560452734     1.321115919805     1.093680973843
    O            1.320503266335     1.048048590818     0.011149755439
    O            1.243926667523    -1.038036368218     0.334387920294

  Mulliken Charges: (a.u.)
   Center  Symbol    Alpha    Beta     Spin     Total
       1     H     0.41192  0.41192  0.00000  0.17617
       2     C     3.24296  3.24296  0.00000 -0.48592
       3     C     3.02883  3.02883  0.00000 -0.05766
       4     H     0.39518  0.39518  0.00000  0.20963
       5     H     0.40644  0.40644  0.00000  0.18712
       6     C     3.24628  3.24628  0.00000 -0.49255
       7     N     3.21612  3.21612  0.00000  0.56776
       8     H     0.38498  0.38498  0.00000  0.23005
       9     H     0.41043  0.41043  0.00000  0.17913
      10     H     0.39161  0.39161  0.00000  0.21679
      11     H     0.40775  0.40775  0.00000  0.18451
      12     O     4.22917  4.22917  0.00000 -0.45835
      13     O     4.22834  4.22834  0.00000 -0.45668

   Total alpha = 24.00000, Total beta = 24.00000, Total charge = -0.00000
