  ==> Input File <==

--------------------------------------------------------------------------
set {
	reference rhf
	basis 6-31G*
}

set_num_threads( 4 )
memory 2 gb

molecule MOL {
0 1

H	 -2.481677	 -2.175010	 0.808547
C	 -1.932416	 -1.316009	 0.471197
C	 -2.589041	 -0.166097	 0.066856
C	 -0.554838	 -1.347859	 0.436340
H	 -3.663076	 -0.121464	 0.086802
C	 -1.869210	 0.932115	 -0.365005
H	 -0.017460	 -2.221030	 0.742240
C	 0.154804	 -0.237046	 -0.000077
H	 -2.397247	 1.815019	 -0.674444
C	 -0.476731	 0.940096	 -0.415444
N	 1.611208	 -0.370857	 -0.000034
C	 0.208088	 2.197228	 -0.904906
O	 2.274126	 0.622059	 -0.008063
O	 2.068510	 -1.474748	 0.007823
H	 0.807429	 2.006647	 -1.784450
H	 -0.543191	 2.937345	 -1.150229
H	 0.867942	 2.608721	 -0.153647

	symmetry c1
}
set optking {
	frozen_dihedral = ("
		4 8 11 13
	")
}

ee = optimize('scf')
oeprop('DIPOLE', 'QUADRUPOLE', 'MULLIKEN_CHARGES')
f=open( 'psi4out.xyz', 'w' )
f.write( "17  " )
f.write( str(ee) + "\n" )
f.write( MOL.save_string_xyz() )
f.close()
--------------------------------------------------------------------------

    Molecular point group: c1
  Charge       = 0
  Multiplicity = 1
  Basis Set: 6-31G*
  Basis Set:
  @DF-RHF Final Energy:  -473.20632294544720
    Total Energy =                       -473.2063229454477096
    Molecular point group: c1
  Basis Set: 6-31G*
  Basis Set:
  Basis Set: 6-31G*
  Basis Set:
  @DF-RHF Final Energy:  -473.20409201323696
    Total Energy =                       -473.2040920132367319
  Basis Set: 6-31G*
  Basis Set:
  Basis Set: 6-31G*
  Basis Set:
  @DF-RHF Final Energy:  -473.20642094171978
    Total Energy =                       -473.2064209417194434
  Basis Set: 6-31G*
  Basis Set:
  Basis Set: 6-31G*
  Basis Set:
  @DF-RHF Final Energy:  -473.20676148771531
    Total Energy =                       -473.2067614877151982
  Basis Set: 6-31G*
  Basis Set:
  Basis Set: 6-31G*
  Basis Set:
  @DF-RHF Final Energy:  -473.20676766572592
    Total Energy =                       -473.2067676657259199
  Basis Set: 6-31G*
  Basis Set:
  Charge       = 0
  Multiplicity = 1
  Basis Set: 6-31G*
  Basis Set:

    Orbital Energies (a.u.)
    -----------------------

    Doubly Occupied:

       1A    -20.599013     2A    -20.597071     3A    -15.852937
       4A    -11.300729     5A    -11.282518     6A    -11.266134
       7A    -11.264100     8A    -11.254022     9A    -11.253180
      10A    -11.233484    11A     -1.631889    12A     -1.414100
      13A     -1.199781    14A     -1.091524    15A     -1.071733
      16A     -0.979757    17A     -0.930979    18A     -0.847202
      19A     -0.822467    20A     -0.768838    21A     -0.731811
      22A     -0.725418    23A     -0.693224    24A     -0.662685
      25A     -0.637666    26A     -0.598123    27A     -0.589992
      28A     -0.562949    29A     -0.540843    30A     -0.520173
      31A     -0.519185    32A     -0.485109    33A     -0.478219
      34A     -0.447767    35A     -0.369223    36A     -0.353452

  @DF-RHF Final Energy:  -473.20677030181793

   => Energetics <=

    Nuclear Repulsion Energy =            509.8759322162181320
    One-Electron Energy =               -1655.0108099932949699
    Two-Electron Energy =                 671.9281074752586846
    DFT Exchange-Correlation Energy =       0.0000000000000000
    Empirical Dispersion Energy =           0.0000000000000000
    PCM Polarization Energy =               0.0000000000000000
    EFP Energy =                            0.0000000000000000
    Total Energy =                       -473.2067703018180964
    Molecular point group: c1
  Basis Set: 6-31G*
  Basis Set:

  -Total Gradient:
     Atom            X                  Y                   Z
    ------   -----------------  -----------------  -----------------
       1        0.000001981948    -0.000006171520    -0.000012841104
       2       -0.000008211815     0.000010447420    -0.000000128852
       3       -0.000003449248    -0.000005733948    -0.000002201063
       4       -0.000002443688    -0.000090968698    -0.000212115542
       5        0.000000997841     0.000008121457     0.000010512406
       6       -0.000004638815    -0.000015603460    -0.000031324901
       7       -0.000013811041     0.000005503712    -0.000007490495
       8       -0.000036340878     0.000148538989     0.000195670236
       9        0.000000258544     0.000003845057     0.000009299466
      10        0.000002620057    -0.000007114812     0.000035508946
      11        0.000035804710    -0.000015535113     0.000336366201
      12       -0.000012745365     0.000007599382    -0.000008410825
      13       -0.000021989685    -0.000049933336    -0.000324660192
      14        0.000043861172     0.000020480021     0.000002069529
      15        0.000001828096    -0.000005299789     0.000001804537
      16        0.000001040556    -0.000004252852    -0.000008379799
      17        0.000015237611    -0.000003922513     0.000016321454

  **** Optimization is complete! (in 6 steps) ****
    Final optimized geometry and variables:
    Molecular point group: c1

    Geometry (in Angstrom), charge = 0, multiplicity = 1:

    H           -2.476149118685    -2.163242703868     0.894348507961
    C           -1.927475446543    -1.303874226176     0.556893643377
    C           -2.584930004999    -0.147069122715     0.173365652486
    C           -0.550372033415    -1.343326618111     0.497380349514
    H           -3.658381039292    -0.099445429417     0.208579811701
    C           -1.867935505055     0.951998827824    -0.262552650281
    H           -0.010665124183    -2.224375935696     0.777864413755
    C            0.153511808015    -0.226141798646     0.072402785605
    H           -2.396938815614     1.836276635206    -0.567041659465
    C           -0.476396727049     0.955940705082    -0.323210112645
    N            1.608759993562    -0.355100081675     0.061407488075
    C            0.219934476117     2.202387219398    -0.822688440069
    O            2.265392933706     0.642145325758     0.062861513310
    O            2.067160554103    -1.458464447601     0.061254015396
    H            0.938178293033     1.978858632059    -1.599571589196
    H           -0.517865583345     2.887038263669    -1.221846027582
    H            0.757004146368     2.696921279088    -0.024549438403

  Mulliken Charges: (a.u.)
   Center  Symbol    Alpha    Beta     Spin     Total
       1     H     0.38937  0.38937  0.00000  0.22125
       2     C     3.11226  3.11226  0.00000 -0.22452
       3     C     3.08104  3.08104  0.00000 -0.16207
       4     C     3.08365  3.08365  0.00000 -0.16730
       5     H     0.38957  0.38957  0.00000  0.22085
       6     C     3.12547  3.12547  0.00000 -0.25094
       7     H     0.36453  0.36453  0.00000  0.27095
       8     C     2.93268  2.93268  0.00000  0.13464
       9     H     0.39271  0.39271  0.00000  0.21458
      10     C     2.96331  2.96331  0.00000  0.07338
      11     N     3.24924  3.24924  0.00000  0.50152
      12     C     3.23757  3.23757  0.00000 -0.47514
      13     O     4.23429  4.23429  0.00000 -0.46858
      14     O     4.23399  4.23399  0.00000 -0.46798
      15     H     0.40062  0.40062  0.00000  0.19876
      16     H     0.41467  0.41467  0.00000  0.17066
      17     H     0.39503  0.39503  0.00000  0.20995

   Total alpha = 36.00000, Total beta = 36.00000, Total charge = -0.00000
