                              Psi4 1.0.54 Driver

  ==> Input File <==

--------------------------------------------------------------------------
set {
	reference rhf
	basis cc-pvtz
}

set_num_threads( 4 )
memory 2 gb

molecule MOL {
0 1

H	 -3.034039	 -0.667848	 0.004703
O	 -2.240597	 -1.171748	 0.000934
C	 -1.159675	 -0.364500	 0.000370
C	 0.119249	 -0.840127	 -0.205901
C	 -1.376784	 0.987186	 0.219144
H	 0.290043	 -1.887853	 -0.373708
C	 1.178241	 0.051217	 -0.189506
H	 -2.382812	 1.324084	 0.378337
C	 -0.319868	 1.874948	 0.232807
H	 2.175044	 -0.315490	 -0.346609
C	 0.969678	 1.394433	 0.027470
C	 -0.558427	 3.348319	 0.447081
H	 1.802416	 2.071824	 0.039679
H	 0.173452	 3.765689	 1.127506
H	 -1.543149	 3.533033	 0.854449
H	 -0.479168	 3.888382	 -0.490305

	symmetry c1
}
set optking {
	frozen_dihedral = ("
		5 3 2 1
	")
}

ee,wfn = optimize('scf', return_wfn=True)
oeprop( wfn, 'DIPOLE', 'QUADRUPOLE', 'MULLIKEN_CHARGES')
f=open( 'psi4out.xyz', 'w' )
f.write( "16  " )
f.write( str(ee) + "\n" )
f.write( MOL.save_string_xyz() )
f.close()
--------------------------------------------------------------------------

    Molecular point group: c1
  Charge       = 0
  Multiplicity = 1
  Basis Set: CC-PVTZ
  Basis Set:
  @DF-RHF Final Energy:  -344.71858628561949
    Total Energy =                       -344.7185862856194376
    Molecular point group: c1
  Basis Set: CC-PVTZ
  Basis Set:
  Basis Set: CC-PVTZ
  Basis Set:
  @DF-RHF Final Energy:  -344.72032691100264
    Total Energy =                       -344.7203269110026440
  Basis Set: CC-PVTZ
  Basis Set:
  Basis Set: CC-PVTZ
  Basis Set:
  @DF-RHF Final Energy:  -344.72048613117772
    Total Energy =                       -344.7204861311776085
  Basis Set: CC-PVTZ
  Basis Set:
  Basis Set: CC-PVTZ
  Basis Set:
  @DF-RHF Final Energy:  -344.72050700303379
    Total Energy =                       -344.7205070030336174
  Basis Set: CC-PVTZ
  Basis Set:
  @DF-RHF Final Energy:  -344.72051446993333
    Total Energy =                       -344.7205144699334483
  @DF-RHF Final Energy:  -344.72051888279134
    Total Energy =                       -344.7205188827913389
  @DF-RHF Final Energy:  -344.72052763414985
    Total Energy =                       -344.7205276341499030
  Basis Set: CC-PVTZ
  Basis Set:
  @DF-RHF Final Energy:  -344.72053400353843
    Total Energy =                       -344.7205340035383188
  Basis Set: CC-PVTZ
  Basis Set:
  Basis Set: CC-PVTZ
  Basis Set:
  @DF-RHF Final Energy:  -344.72053856938720
    Total Energy =                       -344.7205385693872017
  Basis Set: CC-PVTZ
  Basis Set:
  Basis Set: CC-PVTZ
  Basis Set:
  @DF-RHF Final Energy:  -344.72054251361845
    Total Energy =                       -344.7205425136185113
  Basis Set: CC-PVTZ
  Basis Set:
  Charge       = 0
  Multiplicity = 1
  Basis Set: CC-PVTZ
  Basis Set:

    Orbital Energies (a.u.)
    -----------------------

    Doubly Occupied:

       1A    -20.582847     2A    -11.295189     3A    -11.242517
       4A    -11.231086     5A    -11.221854     6A    -11.219822
       7A    -11.214381     8A    -11.212800     9A     -1.413486
      10A     -1.154537    11A     -1.047758    12A     -1.006784
      13A     -0.941208    14A     -0.845058    15A     -0.802808
      16A     -0.733180    17A     -0.683248    18A     -0.652707
      19A     -0.601867    20A     -0.596877    21A     -0.580726
      22A     -0.574072    23A     -0.569643    24A     -0.538629
      25A     -0.506221    26A     -0.484985    27A     -0.472548
      28A     -0.334727    29A     -0.309763

  @DF-RHF Final Energy:  -344.72054349603110

   => Energetics <=

    Nuclear Repulsion Energy =            346.4279692027529904
    One-Electron Energy =               -1154.1543720328620566
    Two-Electron Energy =                 463.0058593340781385
    DFT Exchange-Correlation Energy =       0.0000000000000000
    Empirical Dispersion Energy =           0.0000000000000000
    PCM Polarization Energy =               0.0000000000000000
    EFP Energy =                            0.0000000000000000
    Total Energy =                       -344.7205434960308708
    Molecular point group: c1
  Basis Set: CC-PVTZ
  Basis Set:

  -Total Gradient:
     Atom            X                  Y                   Z
    ------   -----------------  -----------------  -----------------
       1        0.000009987197     0.000017311781    -0.000931630464
       2        0.000007987529    -0.000096629214     0.001535453475
       3       -0.000047275193     0.000201714368    -0.001291977977
       4       -0.000084304861    -0.000032411860     0.000000921419
       5        0.000085712190    -0.000110722752     0.000741169208
       6        0.000020596788     0.000008496658    -0.000000480671
       7        0.000021435552     0.000033184554     0.000004267235
       8       -0.000003952935    -0.000001727539     0.000003941750
       9       -0.000011265180    -0.000000760143     0.000001117213
      10        0.000001302635    -0.000000569784     0.000000538939
      11        0.000001843756    -0.000009340676    -0.000063260658
      12       -0.000007516783     0.000006090904     0.000010122017
      13        0.000005713383    -0.000008157308    -0.000000191506
      14       -0.000035709257    -0.000009611062     0.000028670578
      15       -0.000010750311    -0.000000195152    -0.000049744335
      16        0.000046195488     0.000003327224     0.000011083775

  **** Optimization is complete! (in 11 steps) ****
    Final optimized geometry and variables:
    Molecular point group: c1

    Geometry (in Angstrom), charge = 0, multiplicity = 1:

    H           -2.540788268826    -1.434306014547    -0.099318250316
    O           -1.712440518292    -1.878542167866    -0.101450039465
    C           -0.692474387212    -0.995061208278    -0.081618055544
    C            0.586327483507    -1.485351370881    -0.272232407787
    C           -0.896038473112     0.354887286790     0.142129996939
    H            0.729076342512    -2.534483793053    -0.439111879388
    C            1.648473204420    -0.607203297971    -0.237875458325
    H           -1.895656449185     0.719975881102     0.299982385217
    C            0.172443175835     1.237541066718     0.169331547768
    H            2.644178545954    -0.982182792241    -0.382155061150
    C            1.452536315486     0.744124315364    -0.020221758280
    C           -0.061752224338     2.712363568772     0.379571541243
    H            2.293678919287     1.410563114319     0.004242535316
    H            0.736788279960     3.154568657984     0.961133999874
    H           -0.995519298618     2.894380240455     0.895309114881
    H           -0.102402063599     3.232444744571    -0.571653478447

  Mulliken Charges: (a.u.)
   Center  Symbol    Alpha    Beta     Spin     Total
       1     H     0.38708  0.38708  0.00000  0.22583
       2     O     4.17507  4.17507  0.00000 -0.35014
       3     C     2.83826  2.83826  0.00000  0.32347
       4     C     3.12504  3.12504  0.00000 -0.25008
       5     C     3.16022  3.16022  0.00000 -0.32044
       6     H     0.41976  0.41976  0.00000  0.16048
       7     C     3.04877  3.04877  0.00000 -0.09755
       8     H     0.43688  0.43688  0.00000  0.12623
       9     C     2.94312  2.94312  0.00000  0.11377
      10     H     0.42307  0.42307  0.00000  0.15386
      11     C     3.12156  3.12156  0.00000 -0.24312
      12     C     3.14662  3.14662  0.00000 -0.29323
      13     H     0.42781  0.42781  0.00000  0.14439
      14     H     0.44802  0.44802  0.00000  0.10396
      15     H     0.45193  0.45193  0.00000  0.09614
      16     H     0.44678  0.44678  0.00000  0.10644

   Total alpha = 29.00000, Total beta = 29.00000, Total charge = -0.00000

*** Psi4 exiting successfully. Buy a developer a beer!
