  ==> Input File <==

--------------------------------------------------------------------------
set {
	reference rhf
	basis 6-31G*
}

set_num_threads( 4 )
memory 2 gb

molecule MOL {
0 1

H	 -3.426402	 -0.856423	 0.515587
O	 -3.118162	 -0.155691	 -0.042606
C	 -1.777354	 -0.061246	 -0.005466
C	 -0.995437	 -0.911005	 0.771397
C	 -1.185343	 0.928369	 -0.780225
H	 -1.462240	 -1.675385	 1.368998
C	 0.376151	 -0.767599	 0.770335
H	 -1.809779	 1.571372	 -1.370902
C	 0.187684	 1.059302	 -0.770752
H	 0.991636	 -1.416233	 1.364938
C	 0.984182	 0.218375	 0.000000
H	 0.646957	 1.826032	 -1.370965
C	 2.452467	 0.370529	 0.000000
O	 3.228994	 -0.533774	 0.000000
H	 2.809473	 1.405765	 0.000000

	symmetry c1
}
set optking {
	frozen_dihedral = ("
		7 11 13 14
	")
}

ee = optimize('scf')
oeprop('DIPOLE', 'QUADRUPOLE', 'MULLIKEN_CHARGES')
f=open( 'psi4out.xyz', 'w' )
f.write( "15  " )
f.write( str(ee) + "\n" )
f.write( MOL.save_string_xyz() )
f.close()
--------------------------------------------------------------------------

    Molecular point group: c1
  Charge       = 0
  Multiplicity = 1
  Basis Set: 6-31G*
  Basis Set:
  @DF-RHF Final Energy:  -418.28340767401852
    Total Energy =                       -418.2834076740186902
    Molecular point group: c1
  Basis Set: 6-31G*
  Basis Set:
  Basis Set: 6-31G*
  Basis Set:
  @DF-RHF Final Energy:  -418.28208665466548
    Total Energy =                       -418.2820866546653633
  Basis Set: 6-31G*
  Basis Set:
  Basis Set: 6-31G*
  Basis Set:
  @DF-RHF Final Energy:  -418.28400619927640
    Total Energy =                       -418.2840061992767460
  Basis Set: 6-31G*
  Basis Set:
  Basis Set: 6-31G*
  Basis Set:
  @DF-RHF Final Energy:  -418.28417831153268
    Total Energy =                       -418.2841783115327416
  Basis Set: 6-31G*
  Basis Set:
  Basis Set: 6-31G*
  Basis Set:
  @DF-RHF Final Energy:  -418.28418087173122
    Total Energy =                       -418.2841808717313370
  Basis Set: 6-31G*
  Basis Set:
  Basis Set: 6-31G*
  Basis Set:
  @DF-RHF Final Energy:  -418.28418313446281
    Total Energy =                       -418.2841831344622960
  Basis Set: 6-31G*
  Basis Set:
  Charge       = 0
  Multiplicity = 1
  Basis Set: 6-31G*
  Basis Set:

    Orbital Energies (a.u.)
    -----------------------

    Doubly Occupied:

       1A    -20.608589     2A    -20.560817     3A    -11.329980
       4A    -11.320556     5A    -11.258571     6A    -11.256978
       7A    -11.243849     8A    -11.240736     9A    -11.238740
      10A     -1.429248    11A     -1.400955    12A     -1.170133
      13A     -1.040272    14A     -1.038331    15A     -0.888021
      16A     -0.865921    17A     -0.795802    18A     -0.755668
      19A     -0.712546    20A     -0.668399    21A     -0.644902
      22A     -0.628824    23A     -0.607403    24A     -0.606131
      25A     -0.586290    26A     -0.560878    27A     -0.538991
      28A     -0.505690    29A     -0.486426    30A     -0.420017
      31A     -0.356691    32A     -0.325532

  @DF-RHF Final Energy:  -418.28418318141411

   => Energetics <=

    Nuclear Repulsion Energy =            400.8670277447461672
    One-Electron Energy =               -1364.1186428832488673
    Two-Electron Energy =                 544.9674319570885928
    DFT Exchange-Correlation Energy =       0.0000000000000000
    Empirical Dispersion Energy =           0.0000000000000000
    PCM Polarization Energy =               0.0000000000000000
    EFP Energy =                            0.0000000000000000
    Total Energy =                       -418.2841831814141642
    Molecular point group: c1
  Basis Set: 6-31G*
  Basis Set:

  -Total Gradient:
     Atom            X                  Y                   Z
    ------   -----------------  -----------------  -----------------
       1       -0.000001192077     0.000008585357     0.000003411655
       2       -0.000020040235     0.000024288625     0.000048702331
       3        0.000024843745    -0.000089859832    -0.000127079007
       4       -0.000011439746     0.000043607030     0.000032718381
       5       -0.000017828623    -0.000020192768     0.000050770954
       6       -0.000012523577     0.000003132768    -0.000005661478
       7       -0.000793153078     0.004472040512     0.004895824234
       8        0.000004515400    -0.000007067390    -0.000001569269
       9        0.000011689913    -0.000051905935     0.000028298325
      10        0.000005661572     0.000010807204     0.000010427954
      11        0.001242010379    -0.006664820361    -0.010950770958
      12        0.000004606804     0.000008001246     0.000008258945
      13       -0.000735530694     0.002526569656     0.014142773117
      14        0.000274708364    -0.000269789881    -0.008161837169
      15        0.000023671860     0.000006603768     0.000025731985

  **** Optimization is complete! (in 7 steps) ****
    Final optimized geometry and variables:
    Molecular point group: c1

    Geometry (in Angstrom), charge = 0, multiplicity = 1:

    H           -3.434190275464    -0.850012332804     0.512176118431
    O           -3.125039593164    -0.145492724138    -0.040477119102
    C           -1.781573162313    -0.062773713302    -0.010904359885
    C           -1.001288203882    -0.910763641724     0.764295416037
    C           -1.186262307581     0.927049051070    -0.783876341493
    H           -1.467390902705    -1.662952208765     1.377652992651
    C            0.374405490225    -0.781117826024     0.747025472542
    H           -1.809490953135     1.579154256124    -1.366048859689
    C            0.185962101551     1.060898411356    -0.770918075818
    H            0.984215518605    -1.438804597034     1.338661849885
    C            0.984781800918     0.187661092830    -0.038259397706
    H            0.642795755978     1.845600866188    -1.349459986192
    C            2.454801987309     0.377766376927     0.010163770308
    O            3.246155677590    -0.509657358176     0.074982464742
    H            2.794800488369     1.414502010289    -0.078608964182

  Mulliken Charges: (a.u.)
   Center  Symbol    Alpha    Beta     Spin     Total
       1     H     0.26899  0.26899  0.00000  0.46201
       2     O     4.37397  4.37397  0.00000 -0.74794
       3     C     2.78752  2.78752  0.00000  0.42496
       4     C     3.14603  3.14603  0.00000 -0.29205
       5     C     3.12584  3.12584  0.00000 -0.25167
       6     H     0.39846  0.39846  0.00000  0.20308
       7     C     3.08402  3.08402  0.00000 -0.16805
       8     H     0.38656  0.38656  0.00000  0.22688
       9     C     3.09393  3.09393  0.00000 -0.18786
      10     H     0.37963  0.37963  0.00000  0.24075
      11     C     3.05499  3.05499  0.00000 -0.10998
      12     H     0.39067  0.39067  0.00000  0.21867
      13     C     2.84207  2.84207  0.00000  0.31585
      14     O     4.24257  4.24257  0.00000 -0.48513
      15     H     0.42476  0.42476  0.00000  0.15049

   Total alpha = 32.00000, Total beta = 32.00000, Total charge =  0.00000
