                              Psi4 1.0.54 Driver

  ==> Input File <==

--------------------------------------------------------------------------
set {
	reference rhf
	basis cc-pvtz
}

set_num_threads( 4 )
memory 2 gb

molecule MOL {
0 1

O	 -2.513339	 -0.962015	 -0.082111
C	 -1.922978	 0.063265	 -0.045005
C	 -2.529842	 1.411606	 -0.313606
O	 -0.637375	 0.157174	 0.243149
H	 -2.019375	 1.880851	 -1.144841
H	 -3.577770	 1.297793	 -0.538398
H	 -2.400819	 2.047692	 0.552602
C	 0.162530	 -1.009518	 0.097799
C	 1.587210	 -0.664190	 0.477086
H	 0.096803	 -1.356267	 -0.924704
H	 -0.233803	 -1.785900	 0.736810
C	 2.256770	 0.342732	 -0.454344
H	 2.154716	 -1.590834	 0.479041
H	 1.598751	 -0.289614	 1.496104
C	 3.698146	 0.643205	 -0.057145
H	 2.235038	 -0.042575	 -1.470299
H	 1.683491	 1.262594	 -0.461300
H	 4.150202	 1.356548	 -0.736242
H	 4.305463	 -0.255904	 -0.069842
H	 3.749130	 1.061068	 0.942759

	symmetry c1
}
set optking {
	frozen_dihedral = ("
		1 2 4 8
	")
}

ee,wfn = optimize('scf', return_wfn=True)
oeprop( wfn, 'DIPOLE', 'QUADRUPOLE', 'MULLIKEN_CHARGES')
f=open( 'psi4out.xyz', 'w' )
f.write( "20  " )
f.write( str(ee) + "\n" )
f.write( MOL.save_string_xyz() )
f.close()
--------------------------------------------------------------------------

    Molecular point group: c1
  Charge       = 0
  Multiplicity = 1
  Basis Set: CC-PVTZ
  Basis Set:
  @DF-RHF Final Energy:  -384.08520892500616
    Total Energy =                       -384.0852089250058725
    Molecular point group: c1
  Basis Set: CC-PVTZ
  Basis Set:
  Basis Set: CC-PVTZ
  Basis Set:
  @DF-RHF Final Energy:  -384.03631622113960
    Total Energy =                       -384.0363162211391455
  Basis Set: CC-PVTZ
  Basis Set:
  Basis Set: CC-PVTZ
  Basis Set:
  @DF-RHF Final Energy:  -384.08193851046263
    Total Energy =                       -384.0819385104630328
  Basis Set: CC-PVTZ
  Basis Set:
  Basis Set: CC-PVTZ
  Basis Set:
  @DF-RHF Final Energy:  -384.08537173456034
    Total Energy =                       -384.0853717345607947
  Basis Set: CC-PVTZ
  Basis Set:
  @DF-RHF Final Energy:  -384.08543436015907
    Total Energy =                       -384.0854343601590699
  @DF-RHF Final Energy:  -384.08547947938354
    Total Energy =                       -384.0854794793840483
  Basis Set: CC-PVTZ
  Basis Set:
  @DF-RHF Final Energy:  -384.08548519986152
    Total Energy =                       -384.0854851998615231
  Basis Set: CC-PVTZ
  Basis Set:
  Basis Set: CC-PVTZ
  Basis Set:
  @DF-RHF Final Energy:  -384.08549057059088
    Total Energy =                       -384.0854905705908777
  Basis Set: CC-PVTZ
  Basis Set:
  Basis Set: CC-PVTZ
  Basis Set:
  @DF-RHF Final Energy:  -384.08549347623841
    Total Energy =                       -384.0854934762384119
  Basis Set: CC-PVTZ
  Basis Set:
  Charge       = 0
  Multiplicity = 1
  Basis Set: CC-PVTZ
  Basis Set:

    Orbital Energies (a.u.)
    -----------------------

    Doubly Occupied:

       1A    -20.592366     2A    -20.533704     3A    -11.367029
       4A    -11.281184     5A    -11.231960     6A    -11.223939
       7A    -11.219521     8A    -11.212095     9A     -1.469714
      10A     -1.365525    11A     -1.087302    12A     -1.029091
      13A     -0.982923    14A     -0.881535    15A     -0.812075
      16A     -0.777650    17A     -0.693321    18A     -0.685549
      19A     -0.668337    20A     -0.633781    21A     -0.603297
      22A     -0.594858    23A     -0.572776    24A     -0.556130
      25A     -0.545470    26A     -0.527568    27A     -0.515205
      28A     -0.483485    29A     -0.477848    30A     -0.475821
      31A     -0.450706    32A     -0.441326

  @DF-RHF Final Energy:  -384.08549430084207

   => Energetics <=

    Nuclear Repulsion Energy =            385.8648260422714316
    One-Electron Energy =               -1287.9144664197351631
    Two-Electron Energy =                 517.9641460766217733
    DFT Exchange-Correlation Energy =       0.0000000000000000
    Empirical Dispersion Energy =           0.0000000000000000
    PCM Polarization Energy =               0.0000000000000000
    EFP Energy =                            0.0000000000000000
    Total Energy =                       -384.0854943008419013
    Molecular point group: c1
  Basis Set: CC-PVTZ
  Basis Set:

  -Total Gradient:
     Atom            X                  Y                   Z
    ------   -----------------  -----------------  -----------------
       1       -0.001453556260    -0.001725975397     0.005937193393
       2        0.002685365472     0.004045505424    -0.010927437988
       3       -0.000047777261    -0.000119276183     0.000159576650
       4       -0.002011049854    -0.005237849175     0.008654123894
       5        0.000050333902     0.000120875106    -0.000099755171
       6       -0.000074136591    -0.000004770642    -0.000017773082
       7        0.000018542930     0.000019424126     0.000094765236
       8        0.000804380309     0.002913882684    -0.003807113604
       9        0.000016243487    -0.000017051585     0.000007485547
      10        0.000016693433    -0.000020306976    -0.000018483280
      11       -0.000003135428     0.000008719858     0.000004778456
      12       -0.000013907829     0.000016901824     0.000021662816
      13       -0.000007149276     0.000001425351     0.000004601918
      14        0.000000951269     0.000005226460     0.000007133264
      15       -0.000005726619     0.000010895060    -0.000024385856
      16        0.000004713953    -0.000001862948    -0.000004764089
      17        0.000011592077    -0.000001960699     0.000002981105
      18        0.000004148268    -0.000011515464     0.000002627645
      19        0.000006595011    -0.000001827837     0.000004573951
      20       -0.000003120996    -0.000000458987    -0.000001790806

  **** Optimization is complete! (in 10 steps) ****
    Final optimized geometry and variables:
    Molecular point group: c1

    Geometry (in Angstrom), charge = 0, multiplicity = 1:

    O           -2.398987744399    -1.124623088171    -0.422857590284
    C           -1.911576742583    -0.136565625314     0.007796499437
    C           -2.658844038626     1.138165881299     0.279288425600
    O           -0.640015268267    -0.043462125893     0.362604508287
    H           -2.287777367063     1.917113011191    -0.375844645731
    H           -3.712093262668     0.985529997595     0.107886200389
    H           -2.484083973530     1.455560393257     1.298811471872
    C            0.267729761284    -1.002906879291    -0.165340485064
    C            1.672459433591    -0.611186538689     0.242291783462
    H            0.160391240226    -1.028550524301    -1.242224988917
    H            0.011254775992    -1.980342666628     0.216817314339
    C            2.157971458098     0.704310170336    -0.360292165774
    H            2.334050146624    -1.417103726373    -0.063337186278
    H            1.721311840705    -0.562013006181     1.325742239035
    C            3.583582835106     1.050696742102     0.055576876855
    H            2.103651029783     0.641650678529    -1.444052285235
    H            1.489682848625     1.504129360813    -0.063294909682
    H            3.904145621329     1.985849969203    -0.388348316302
    H            4.282067729061     0.280676116144    -0.255001757994
    H            3.662596081683     1.152144907213     1.132782795734

  Mulliken Charges: (a.u.)
   Center  Symbol    Alpha    Beta     Spin     Total
       1     O     4.19495  4.19495  0.00000 -0.38990
       2     C     2.80858  2.80858  0.00000  0.38285
       3     C     3.13836  3.13836  0.00000 -0.27673
       4     O     4.15563  4.15563  0.00000 -0.31126
       5     H     0.44785  0.44785  0.00000  0.10430
       6     H     0.43741  0.43741  0.00000  0.12518
       7     H     0.44457  0.44457  0.00000  0.11086
       8     C     2.99296  2.99296  0.00000  0.01408
       9     C     3.08453  3.08453  0.00000 -0.16907
      10     H     0.45493  0.45493  0.00000  0.09013
      11     H     0.44150  0.44150  0.00000  0.11701
      12     C     3.08643  3.08643  0.00000 -0.17286
      13     H     0.45141  0.45141  0.00000  0.09718
      14     H     0.45098  0.45098  0.00000  0.09804
      15     C     3.15010  3.15010  0.00000 -0.30019
      16     H     0.45568  0.45568  0.00000  0.08865
      17     H     0.44730  0.44730  0.00000  0.10539
      18     H     0.44745  0.44745  0.00000  0.10509
      19     H     0.45536  0.45536  0.00000  0.08928
      20     H     0.45402  0.45402  0.00000  0.09195

   Total alpha = 32.00000, Total beta = 32.00000, Total charge = -0.00000

*** Psi4 exiting successfully. Buy a developer a beer!
