  ==> Input File <==

--------------------------------------------------------------------------
set {
	reference rhf
	basis 6-31G*
}

set_num_threads( 4 )
memory 2 gb

molecule MOL {
0 1

H	 2.591676	 2.013956	 0.335017
O	 3.341076	 1.666752	 -0.126416
C	 3.569581	 0.339145	 0.272707
C	 2.539767	 -0.640285	 -0.279495
H	 4.553106	 0.084646	 -0.100901
H	 3.608576	 0.269204	 1.359154
C	 1.115811	 -0.397273	 0.226630
H	 2.556196	 -0.582511	 -1.364741
H	 2.852081	 -1.648031	 -0.010655
C	 0.115918	 -1.429151	 -0.302766
H	 0.797950	 0.599468	 -0.066350
H	 1.109961	 -0.420744	 1.316472
C	 0.466901	 -2.887457	 0.014247
H	 -0.873561	 -1.203467	 0.090738
H	 0.044388	 -1.319288	 -1.382819
C	 0.415902	 -3.254264	 1.499956
H	 -0.225106	 -3.530570	 -0.525519
H	 1.457090	 -3.112477	 -0.379108
C	 0.669680	 -4.741392	 1.755858
H	 -0.558415	 -2.982450	 1.903606
H	 1.148431	 -2.672657	 2.054427
C	 0.625686	 -5.109055	 3.238610
H	 -0.068704	 -5.330563	 1.216271
H	 1.638590	 -5.017021	 1.344609
H	 -0.342786	 -4.875475	 3.671883
H	 0.807097	 -6.169106	 3.386989
H	 1.378241	 -4.563215	 3.800823

	symmetry c1
}
set optking {
	frozen_dihedral = ("
		14 10 7 4
	")
}

ee = optimize('scf')
oeprop('DIPOLE', 'QUADRUPOLE', 'MULLIKEN_CHARGES')
f=open( 'psi4out.xyz', 'w' )
f.write( "27  " )
f.write( str(ee) + "\n" )
f.write( MOL.save_string_xyz() )
f.close()
--------------------------------------------------------------------------

    Molecular point group: c1
  Charge       = 0
  Multiplicity = 1
  Basis Set: 6-31G*
  Basis Set:
  @DF-RHF Final Energy:  -388.27896639930191
    Total Energy =                       -388.2789663993016802
    Molecular point group: c1
  Basis Set: 6-31G*
  Basis Set:
  Basis Set: 6-31G*
  Basis Set:
  @DF-RHF Final Energy:  -388.27959605108987
    Total Energy =                       -388.2795960510895839
  Basis Set: 6-31G*
  Basis Set:
  Basis Set: 6-31G*
  Basis Set:
  @DF-RHF Final Energy:  -388.28006168510115
    Total Energy =                       -388.2800616851013729
  Basis Set: 6-31G*
  Basis Set:
  Basis Set: 6-31G*
  Basis Set:
  @DF-RHF Final Energy:  -388.28011698323786
    Total Energy =                       -388.2801169832380310
  Basis Set: 6-31G*
  Basis Set:
  Basis Set: 6-31G*
  Basis Set:
  @DF-RHF Final Energy:  -388.28011648016479
    Total Energy =                       -388.2801164801647928
  Basis Set: 6-31G*
  Basis Set:
  Basis Set: 6-31G*
  Basis Set:
  @DF-RHF Final Energy:  -388.28012385148276
    Total Energy =                       -388.2801238514829265
  Basis Set: 6-31G*
  Basis Set:
  Basis Set: 6-31G*
  Basis Set:
  @DF-RHF Final Energy:  -388.28012757005621
    Total Energy =                       -388.2801275700556971
  Basis Set: 6-31G*
  Basis Set:
  Charge       = 0
  Multiplicity = 1
  Basis Set: 6-31G*
  Basis Set:

    Orbital Energies (a.u.)
    -----------------------

    Doubly Occupied:

       1A    -20.552280     2A    -11.267383     3A    -11.220105
       4A    -11.217601     5A    -11.216518     6A    -11.215187
       7A    -11.215005     8A    -11.214604     9A    -11.209904
      10A     -1.359137    11A     -1.095585    12A     -1.060277
      13A     -1.009754    14A     -0.950631    15A     -0.888274
      16A     -0.830924    17A     -0.801446    18A     -0.764254
      19A     -0.694171    20A     -0.655481    21A     -0.635856
      22A     -0.614807    23A     -0.604746    24A     -0.584312
      25A     -0.573477    26A     -0.554461    27A     -0.545373
      28A     -0.527649    29A     -0.512420    30A     -0.497034
      31A     -0.482339    32A     -0.478352    33A     -0.465941
      34A     -0.456859    35A     -0.448883    36A     -0.440367
      37A     -0.425572

  @DF-RHF Final Energy:  -388.28012745038524

   => Energetics <=

    Nuclear Repulsion Energy =            466.7194586754633860
    One-Electron Energy =               -1451.4252322125207684
    Two-Electron Energy =                 596.4256460866722591
    DFT Exchange-Correlation Energy =       0.0000000000000000
    Empirical Dispersion Energy =           0.0000000000000000
    PCM Polarization Energy =               0.0000000000000000
    EFP Energy =                            0.0000000000000000
    Total Energy =                       -388.2801274503851801
    Molecular point group: c1
  Basis Set: 6-31G*
  Basis Set:

  -Total Gradient:
     Atom            X                  Y                   Z
    ------   -----------------  -----------------  -----------------
       1       -0.000029332657     0.000024922936    -0.000001628899
       2       -0.000043471032    -0.000014231658     0.000031256132
       3        0.000082486512    -0.000033968844    -0.000071048818
       4        0.000148460887    -0.000504471661     0.000751977780
       5        0.000029451092    -0.000022269292     0.000008486779
       6       -0.000021138170     0.000006993627    -0.000004941209
       7       -0.000156590250     0.000595212405    -0.000801659128
       8        0.000007562252     0.000006796856     0.000001260203
       9        0.000023243249     0.000004125197     0.000005250893
      10       -0.000209823412     0.000656206797    -0.000832437929
      11       -0.000009822225     0.000027937194     0.000006197555
      12        0.000006508550     0.000004639967    -0.000015025889
      13        0.000003711399     0.000014216404    -0.000010855206
      14        0.000168457344    -0.000722316559     0.000918370603
      15        0.000010767404     0.000005420943    -0.000003422865
      16       -0.000003503854    -0.000020166099     0.000014728048
      17       -0.000027878976    -0.000018365021    -0.000006880751
      18        0.000016576739    -0.000010512665    -0.000032212709
      19        0.000018629865     0.000015495313     0.000006479030
      20       -0.000014762511    -0.000003236722     0.000036035718
      21        0.000015182168    -0.000000374774    -0.000001303426
      22       -0.000024475309    -0.000013366476     0.000003073742
      23       -0.000011340742    -0.000010095994    -0.000022393668
      24        0.000025382595     0.000002443941    -0.000009588923
      25       -0.000018457763     0.000006599217     0.000021482060
      26       -0.000008412766    -0.000004658636    -0.000000195731
      27        0.000022589608     0.000007023598     0.000008996612

  **** Optimization is complete! (in 8 steps) ****
    Final optimized geometry and variables:
    Molecular point group: c1

    Geometry (in Angstrom), charge = 0, multiplicity = 1:

    H            1.055043792588     3.840670560728    -0.496594371203
    O            1.825564407540     3.491181065691    -0.919751531367
    C            2.104469250828     2.210142132286    -0.415319613558
    C            1.138432512588     1.140540419136    -0.914855485838
    H            3.108616579354     1.976549356396    -0.745254947610
    H            2.117541663751     2.223863550834     0.673978544983
    C           -0.305104490316     1.351404880596    -0.450313257198
    H            1.175355372485     1.123831254918    -2.001422348810
    H            1.504151100992     0.176615124511    -0.569973437670
    C           -1.313534505930     0.335459142706    -1.004929488383
    H           -0.637786066753     2.339730550701    -0.759160173745
    H           -0.336005851474     1.346053797096     0.637589775422
    C           -1.031725199827    -1.141917838921    -0.700240724966
    H           -2.297181689620     0.582252456190    -0.610475707300
    H           -1.374993849318     0.460345472953    -2.083676169723
    C           -1.016701119897    -1.495722686610     0.789166473951
    H           -1.800910069509    -1.734857912954    -1.190916301344
    H           -0.090969161928    -1.444791988180    -1.153306921917
    C           -0.853007647992    -2.995466587005     1.045017490202
    H           -1.942058553574    -1.152600309195     1.250097265234
    H           -0.211893564722    -0.963564381328     1.291482120250
    C           -0.835529303968    -3.350418566625     2.531449370677
    H           -1.661219353554    -3.534229134731     0.555112992269
    H            0.068394093394    -3.341178660330     0.580869290069
    H           -1.757930569439    -3.045992881582     3.018136357166
    H           -0.721258227200    -4.419815872599     2.679564186244
    H           -0.014364605382    -2.856360797650     3.043365326246

  Mulliken Charges: (a.u.)
   Center  Symbol    Alpha    Beta     Spin     Total
       1     H     0.27978  0.27978  0.00000  0.44044
       2     O     4.37096  4.37096  0.00000 -0.74191
       3     C     2.99688  2.99688  0.00000  0.00623
       4     C     3.16322  3.16322  0.00000 -0.32643
       5     H     0.41441  0.41441  0.00000  0.17119
       6     H     0.43228  0.43228  0.00000  0.13543
       7     C     3.16400  3.16400  0.00000 -0.32799
       8     H     0.41545  0.41545  0.00000  0.16911
       9     H     0.42248  0.42248  0.00000  0.15504
      10     C     3.15233  3.15233  0.00000 -0.30465
      11     H     0.42474  0.42474  0.00000  0.15052
      12     H     0.42279  0.42279  0.00000  0.15443
      13     C     3.15663  3.15663  0.00000 -0.31327
      14     H     0.42190  0.42190  0.00000  0.15620
      15     H     0.41984  0.41984  0.00000  0.16033
      16     C     3.15257  3.15257  0.00000 -0.30513
      17     H     0.42097  0.42097  0.00000  0.15806
      18     H     0.42137  0.42137  0.00000  0.15726
      19     C     3.15107  3.15107  0.00000 -0.30214
      20     H     0.42437  0.42437  0.00000  0.15125
      21     H     0.42380  0.42380  0.00000  0.15240
      22     C     3.23919  3.23919  0.00000 -0.47839
      23     H     0.42268  0.42268  0.00000  0.15464
      24     H     0.42318  0.42318  0.00000  0.15365
      25     H     0.42178  0.42178  0.00000  0.15645
      26     H     0.41907  0.41907  0.00000  0.16187
      27     H     0.42227  0.42227  0.00000  0.15546

   Total alpha = 37.00000, Total beta = 37.00000, Total charge =  0.00000
