  ==> Input File <==

--------------------------------------------------------------------------
set {
	reference rhf
	basis cc-pvtz
}

set_num_threads( 4 )
memory 2 gb

molecule MOL {
0 1

H	 1.474109	 -1.915925	 -0.468919
C	 0.835998	 -1.505963	 0.305615
N	 0.526300	 -0.128137	 0.000000
H	 1.377974	 -1.561723	 1.241133
H	 -0.044830	 -2.146941	 0.382169
C	 -0.247113	 0.037112	 -1.209233
H	 0.049933	 0.291803	 0.768365
H	 -0.996493	 -0.743733	 -1.271440
H	 0.397975	 -0.057351	 -2.073512
H	 -0.763794	 0.997171	 -1.271673

	symmetry c1
}
set optking {
	frozen_dihedral = ("
		2 3 6 8
	")
}

ee = optimize('scf')
oeprop('DIPOLE', 'QUADRUPOLE', 'MULLIKEN_CHARGES')
f=open( 'psi4out.xyz', 'w' )
f.write( "10  " )
f.write( str(ee) + "\n" )
f.write( MOL.save_string_xyz() )
f.close()
--------------------------------------------------------------------------

    Molecular point group: c1
  Charge       = 0
  Multiplicity = 1
  Basis Set: CC-PVTZ
  Basis Set:
  @DF-RHF Final Energy:  -134.29121440816704
    Total Energy =                       -134.2912144081670647
    Molecular point group: c1
  Basis Set: CC-PVTZ
  Basis Set:
  Basis Set: CC-PVTZ
  Basis Set:
  @DF-RHF Final Energy:  -134.29213174980907
    Total Energy =                       -134.2921317498090445
  Basis Set: CC-PVTZ
  Basis Set:
  Basis Set: CC-PVTZ
  Basis Set:
  @DF-RHF Final Energy:  -134.29226672921840
    Total Energy =                       -134.2922667292184542
  Basis Set: CC-PVTZ
  Basis Set:
  Charge       = 0
  Multiplicity = 1
  Basis Set: CC-PVTZ
  Basis Set:

    Orbital Energies (a.u.)
    -----------------------

    Doubly Occupied:

       1A    -15.532756     2A    -11.234407     3A    -11.234305
       4A     -1.200890     5A     -0.948354     6A     -0.854676
       7A     -0.662049     8A     -0.614437     9A     -0.592469
      10A     -0.539596    11A     -0.509447    12A     -0.506933
      13A     -0.365033

  @DF-RHF Final Energy:  -134.29226821868562

   => Energetics <=

    Nuclear Repulsion Energy =             84.7228598175302920
    One-Electron Energy =                -348.4395537473888567
    Two-Electron Energy =                 129.4244257111729439
    DFT Exchange-Correlation Energy =       0.0000000000000000
    Empirical Dispersion Energy =           0.0000000000000000
    PCM Polarization Energy =               0.0000000000000000
    EFP Energy =                            0.0000000000000000
    Total Energy =                       -134.2922682186856491
    Molecular point group: c1
  Basis Set: CC-PVTZ
  Basis Set:

  -Total Gradient:
     Atom            X                  Y                   Z
    ------   -----------------  -----------------  -----------------
       1        0.000028013975    -0.000023097041    -0.000001443520
       2       -0.001921882959    -0.000071472023     0.001033295791
       3        0.003083630754    -0.000327396417    -0.002036661683
       4       -0.000029880522     0.000070873093    -0.000013562345
       5       -0.000004185937    -0.000022177435     0.000022488906
       6       -0.003048529113     0.002051085941     0.002392190419
       7        0.000021230583     0.000011044418    -0.000042088979
       8        0.001860532989    -0.001697994539    -0.001403206971
       9        0.000000010857     0.000013789464    -0.000004190761
      10        0.000011059373    -0.000004655461     0.000053179143

  **** Optimization is complete! (in 4 steps) ****
    Final optimized geometry and variables:
    Molecular point group: c1

    Geometry (in Angstrom), charge = 0, multiplicity = 1:

    H            1.122381299394    -1.371593918067    -0.161858694066
    C            0.489500262796    -0.954102426184     0.613382971321
    N            0.171921818568     0.419851947462     0.297445946824
    H            1.040052043609    -0.998492373075     1.544464401072
    H           -0.389701258019    -1.594991342703     0.702911769415
    C           -0.609259002657     0.571552443191    -0.911227544858
    H           -0.314073391571     0.831063925676     1.064182036269
    H           -1.381853361983    -0.190758293825    -1.024653274559
    H            0.036573727266     0.498753477334    -1.780043231831
    H           -1.076174225739     1.547405616215    -0.931436865903

  Mulliken Charges: (a.u.)
   Center  Symbol    Alpha    Beta     Spin     Total
       1     H     0.45707  0.45707  0.00000  0.08587
       2     C     3.08227  3.08227  0.00000 -0.16455
       3     N     3.62774  3.62774  0.00000 -0.25547
       4     H     0.45252  0.45252  0.00000  0.09495
       5     H     0.47386  0.47386  0.00000  0.05228
       6     C     3.07860  3.07860  0.00000 -0.15719
       7     H     0.44112  0.44112  0.00000  0.11776
       8     H     0.47643  0.47643  0.00000  0.04714
       9     H     0.45620  0.45620  0.00000  0.08760
      10     H     0.45420  0.45420  0.00000  0.09161

   Total alpha = 13.00000, Total beta = 13.00000, Total charge = -0.00000
