  ==> Input File <==

--------------------------------------------------------------------------
set {
	reference rhf
	basis cc-pvtz
}

set_num_threads( 4 )
memory 2 gb

molecule MOL {
0 1

H	 0.117480	 -5.993521	 -1.100866
C	 0.418847	 -5.006569	 -0.770394
C	 -0.753094	 -4.032202	 -0.812979
H	 0.812281	 -5.102027	 0.236153
H	 1.229791	 -4.677473	 -1.411551
C	 -0.373485	 -2.631214	 -0.356801
H	 -1.561537	 -4.393729	 -0.187291
H	 -1.144390	 -3.984113	 -1.826463
N	 -1.510973	 -1.737353	 -0.386277
H	 -0.005711	 -2.674131	 0.664017
H	 0.456233	 -2.263585	 -0.967947
C	 -1.215959	 -0.382435	 0.027143
H	 -1.910919	 -1.730953	 -1.301329
C	 -2.451944	 0.502410	 -0.038737
H	 -0.852291	 -0.414397	 1.049836
H	 -0.416722	 0.066559	 -0.570101
C	 -3.752217	 -0.292550	 0.005776
H	 -2.407325	 1.093801	 -0.946480
H	 -2.431979	 1.206234	 0.790023
H	 -3.817783	 -0.982946	 -0.828547
H	 -4.612613	 0.364348	 -0.042306
H	 -3.830160	 -0.871666	 0.919868

	symmetry c1
}
set optking {
	frozen_dihedral = ("
		15 12 14 18
	")
}

ee = optimize('scf')
oeprop('DIPOLE', 'QUADRUPOLE', 'MULLIKEN_CHARGES')
f=open( 'psi4out.xyz', 'w' )
f.write( "22  " )
f.write( str(ee) + "\n" )
f.write( MOL.save_string_xyz() )
f.close()
--------------------------------------------------------------------------

    Molecular point group: c1
  Charge       = 0
  Multiplicity = 1
  Basis Set: CC-PVTZ
  Basis Set:
  @DF-RHF Final Energy:  -290.48085739587356
    Total Energy =                       -290.4808573958734996
    Molecular point group: c1
  Basis Set: CC-PVTZ
  Basis Set:
  Basis Set: CC-PVTZ
  Basis Set:
  @DF-RHF Final Energy:  -290.48218988845116
    Total Energy =                       -290.4821898884508755
  Basis Set: CC-PVTZ
  Basis Set:
  Basis Set: CC-PVTZ
  Basis Set:
  @DF-RHF Final Energy:  -290.48365168305020
    Total Energy =                       -290.4836516830502546
  Basis Set: CC-PVTZ
  Basis Set:
  Basis Set: CC-PVTZ
  Basis Set:
  @DF-RHF Final Energy:  -290.48376409741269
    Total Energy =                       -290.4837640974129727
  Basis Set: CC-PVTZ
  Basis Set:
  Basis Set: CC-PVTZ
  Basis Set:
  @DF-RHF Final Energy:  -290.48377409291174
    Total Energy =                       -290.4837740929118581
  Basis Set: CC-PVTZ
  Basis Set:
  Charge       = 0
  Multiplicity = 1
  Basis Set: CC-PVTZ
  Basis Set:

    Orbital Energies (a.u.)
    -----------------------

    Doubly Occupied:

       1A    -15.529105     2A    -11.236918     3A    -11.236758
       4A    -11.212252     5A    -11.212150     6A    -11.207894
       7A    -11.200859     8A     -1.208090     9A     -1.057707
      10A     -1.022341    11A     -0.927498    12A     -0.880465
      13A     -0.806109    14A     -0.788102    15A     -0.664489
      16A     -0.630952    17A     -0.618021    18A     -0.607043
      19A     -0.574682    20A     -0.566532    21A     -0.532333
      22A     -0.530761    23A     -0.504883    24A     -0.488499
      25A     -0.484097    26A     -0.470631    27A     -0.459521
      28A     -0.450778    29A     -0.360395

  @DF-RHF Final Energy:  -290.48377473990166

   => Energetics <=

    Nuclear Repulsion Energy =            318.3158654055412740
    One-Electron Energy =               -1022.6595610556719294
    Two-Electron Energy =                 413.8599209102291070
    DFT Exchange-Correlation Energy =       0.0000000000000000
    Empirical Dispersion Energy =           0.0000000000000000
    PCM Polarization Energy =               0.0000000000000000
    EFP Energy =                            0.0000000000000000
    Total Energy =                       -290.4837747399016052
    Molecular point group: c1
  Basis Set: CC-PVTZ
  Basis Set:

  -Total Gradient:
     Atom            X                  Y                   Z
    ------   -----------------  -----------------  -----------------
       1        0.000005580623    -0.000006863038     0.000001009794
       2       -0.000002050066    -0.000013095969    -0.000000615335
       3        0.000007629196     0.000005113136     0.000005023677
       4        0.000000332119     0.000001272103    -0.000002306616
       5       -0.000003212106     0.000000185843     0.000000599089
       6        0.000010470326     0.000006277949    -0.000002784252
       7        0.000000774784    -0.000001377084    -0.000002908285
       8        0.000001836412     0.000002911963     0.000003304130
       9       -0.000027730700     0.000011966594     0.000028071731
      10       -0.000000929512    -0.000005055603    -0.000007184063
      11        0.000004333474    -0.000004820908     0.000002219616
      12       -0.004154860447    -0.005136510894     0.002383212616
      13        0.000005158879     0.000010166560    -0.000001695438
      14       -0.003254898774    -0.004656828162    -0.004252859006
      15        0.004015551843     0.005063321292    -0.001300814956
      16       -0.000014939547     0.000002828139    -0.000006560514
      17        0.000013010761     0.000003059451    -0.000033462055
      18        0.003379154465     0.004714765941     0.003147609603
      19        0.000001576411    -0.000004271653     0.000008981423
      20        0.000006896163     0.000009400884     0.000004358587
      21        0.000007714529     0.000006101502     0.000017547734
      22       -0.000001398833    -0.000008548047     0.000009252522

  **** Optimization is complete! (in 6 steps) ****
    Final optimized geometry and variables:
    Molecular point group: c1

    Geometry (in Angstrom), charge = 0, multiplicity = 1:

    H            1.608683501307    -4.050663789619    -0.769511149391
    C            1.871529367969    -3.063514046745    -0.408163346996
    C            0.686348884408    -2.109501733359    -0.507403865546
    H            2.206036907676    -3.166760035671     0.618708175017
    H            2.712872154218    -2.710627600677    -0.995193777748
    C            1.012067079356    -0.709509447611    -0.008524777395
    H           -0.151287536943    -2.495285757370     0.062907858378
    H            0.356207331947    -2.052478166281    -1.541978670410
    N           -0.138175115989     0.164486784406    -0.092389832092
    H            1.318739494219    -0.761665381101     1.031779976882
    H            1.869639833056    -0.317261893386    -0.563293406721
    C            0.119320158317     1.515473630834     0.353357506448
    H           -0.479810356501     0.176947782044    -1.030884949944
    C           -1.097948352542     2.451285878381     0.267106796836
    H            0.484383599433     1.489477019955     1.374694722202
    H            0.934807561370     1.974884509995    -0.213049878518
    C           -2.462607077020     1.791620888648     0.428499977640
    H           -1.050195981682     3.032017944122    -0.649330181146
    H           -0.981922271367     3.193113778892     1.052264590658
    H           -2.680818258748     1.102219964444    -0.376550608968
    H           -3.241661155639     2.545766478178     0.441247674086
    H           -2.518350002526     1.233049370434     1.355053337817

  Mulliken Charges: (a.u.)
   Center  Symbol    Alpha    Beta     Spin     Total
       1     H     0.44762  0.44762  0.00000  0.10477
       2     C     3.15383  3.15383  0.00000 -0.30765
       3     C     3.08074  3.08074  0.00000 -0.16147
       4     H     0.45470  0.45470  0.00000  0.09060
       5     H     0.45609  0.45609  0.00000  0.08781
       6     C     3.02064  3.02064  0.00000 -0.04128
       7     H     0.44887  0.44887  0.00000  0.10225
       8     H     0.45983  0.45983  0.00000  0.08035
       9     N     3.63877  3.63877  0.00000 -0.27754
      10     H     0.45927  0.45927  0.00000  0.08146
      11     H     0.47493  0.47493  0.00000  0.05013
      12     C     3.03594  3.03594  0.00000 -0.07187
      13     H     0.44300  0.44300  0.00000  0.11401
      14     C     3.09825  3.09825  0.00000 -0.19650
      15     H     0.45696  0.45696  0.00000  0.08609
      16     H     0.46747  0.46747  0.00000  0.06507
      17     C     3.13820  3.13820  0.00000 -0.27640
      18     H     0.45134  0.45134  0.00000  0.09731
      19     H     0.45292  0.45292  0.00000  0.09417
      20     H     0.45682  0.45682  0.00000  0.08637
      21     H     0.45147  0.45147  0.00000  0.09706
      22     H     0.45236  0.45236  0.00000  0.09527

   Total alpha = 29.00000, Total beta = 29.00000, Total charge = -0.00000
