  ==> Input File <==

--------------------------------------------------------------------------
set {
	reference rhf
	basis 6-31G*
}

set_num_threads( 4 )
memory 2 gb

molecule MOL {
0 1

H	 1.408059	 1.292297	 3.081193
O	 1.984617	 1.327362	 2.330159
C	 1.350518	 0.930248	 1.208823
C	 2.083111	 0.932710	 0.025926
C	 0.027940	 0.531633	 1.203565
H	 3.109403	 1.246831	 0.056100
C	 1.490058	 0.536954	 -1.155061
H	 -0.560014	 0.519924	 2.100057
C	 -0.536158	 0.140425	 0.000000
H	 2.063019	 0.541926	 -2.063657
C	 0.162331	 0.131985	 -1.186419
N	 -1.935604	 -0.280333	 0.000000
H	 -0.311539	 -0.177721	 -2.094678
O	 -2.161694	 -1.452901	 0.000000
O	 -2.770341	 0.571417	 0.000000

	symmetry c1
}
set optking {
	frozen_dihedral = ("
		11 9 12 14
	")
}

ee = optimize('scf')
oeprop('DIPOLE', 'QUADRUPOLE', 'MULLIKEN_CHARGES')
f=open( 'psi4out.xyz', 'w' )
f.write( "15  " )
f.write( str(ee) + "\n" )
f.write( MOL.save_string_xyz() )
f.close()
--------------------------------------------------------------------------

    Molecular point group: c1
  Charge       = 0
  Multiplicity = 1
  Basis Set: 6-31G*
  Basis Set:
  @DF-RHF Final Energy:  -509.01656133312753
    Total Energy =                       -509.0165613331271288
    Molecular point group: c1
  Basis Set: 6-31G*
  Basis Set:
  Basis Set: 6-31G*
  Basis Set:
  @DF-RHF Final Energy:  -509.01184595577848
    Total Energy =                       -509.0118459557785400
  Basis Set: 6-31G*
  Basis Set:
  Basis Set: 6-31G*
  Basis Set:
  @DF-RHF Final Energy:  -509.01658358117754
    Total Energy =                       -509.0165835811770876
  Basis Set: 6-31G*
  Basis Set:
  Basis Set: 6-31G*
  Basis Set:
  @DF-RHF Final Energy:  -509.01692438347112
    Total Energy =                       -509.0169243834710642
  Basis Set: 6-31G*
  Basis Set:
  Charge       = 0
  Multiplicity = 1
  Basis Set: 6-31G*
  Basis Set:

    Orbital Energies (a.u.)
    -----------------------

    Doubly Occupied:

       1A    -20.618163     2A    -20.610605     3A    -20.610263
       4A    -15.859377     5A    -11.333867     6A    -11.317342
       7A    -11.269054     8A    -11.268610     9A    -11.263070
      10A    -11.254287    11A     -1.642196    12A     -1.439256
      13A     -1.426324    14A     -1.202598    15A     -1.095595
      16A     -1.048621    17A     -0.965622    18A     -0.884596
      19A     -0.830724    20A     -0.789391    21A     -0.763899
      22A     -0.734700    23A     -0.720674    24A     -0.710756
      25A     -0.668366    26A     -0.635561    27A     -0.618314
      28A     -0.592659    29A     -0.563798    30A     -0.549063
      31A     -0.533415    32A     -0.490941    33A     -0.485123
      34A     -0.455645    35A     -0.373662    36A     -0.343191

  @DF-RHF Final Energy:  -509.01692516629203

   => Energetics <=

    Nuclear Repulsion Energy =            502.5128108566890432
    One-Electron Energy =               -1691.1208203557762317
    Two-Electron Energy =                 679.5910843327956172
    DFT Exchange-Correlation Energy =       0.0000000000000000
    Empirical Dispersion Energy =           0.0000000000000000
    PCM Polarization Energy =               0.0000000000000000
    EFP Energy =                            0.0000000000000000
    Total Energy =                       -509.0169251662914576
    Molecular point group: c1
  Basis Set: 6-31G*
  Basis Set:

  -Total Gradient:
     Atom            X                  Y                   Z
    ------   -----------------  -----------------  -----------------
       1       -0.000001235762    -0.000004838141    -0.000000409381
       2        0.000022760816     0.000018462869     0.000040810983
       3       -0.000061382528    -0.000015371374    -0.000016171231
       4       -0.000004898182     0.000009806679    -0.000001427114
       5        0.000059780620    -0.000018486537     0.000090701770
       6       -0.000006586192     0.000000321811     0.000001048461
       7        0.000006165699    -0.000036642487    -0.000033110209
       8        0.000025321587     0.000002839498    -0.000034959722
       9        0.000987394739    -0.003992815113     0.001873704712
      10       -0.000005794883     0.000004907449    -0.000007308984
      11       -0.000743533451     0.002760865781    -0.000520465794
      12       -0.000414114503     0.001429598235    -0.004695487555
      13        0.000022552733     0.000004575908     0.000034318627
      14        0.000065606596    -0.000241116812     0.003286582525
      15        0.000047962706     0.000077892233    -0.000017827090

  **** Optimization is complete! (in 5 steps) ****
    Final optimized geometry and variables:
    Molecular point group: c1

    Geometry (in Angstrom), charge = 0, multiplicity = 1:

    H            1.494569272358     0.969233476840     2.793705509129
    O            2.071654805044     1.001678890705     2.043053362319
    C            1.443079344808     0.602324760501     0.921921220846
    C            2.176767349594     0.609737841437    -0.260153452814
    C            0.118116129143     0.201850790944     0.914592127139
    H            3.200797970950     0.930338813907    -0.229241124413
    C            1.584871039554     0.213787382496    -1.440920244045
    H           -0.474362582446     0.204856215709     1.811556903827
    C           -0.429590621479    -0.204177421386    -0.286204210728
    H            2.156499180405     0.228230310727    -2.350426879746
    C            0.259396105827    -0.203780745171    -1.473296370471
    N           -1.837043561172    -0.603483238443    -0.288000447397
    H           -0.209813488342    -0.520973297142    -2.384666887036
    O           -2.070424476326    -1.771760826895    -0.307589596550
    O           -2.647281837381     0.269163171369    -0.242270113962

  Mulliken Charges: (a.u.)
   Center  Symbol    Alpha    Beta     Spin     Total
       1     H     0.26738  0.26738  0.00000  0.46525
       2     O     4.37405  4.37405  0.00000 -0.74810
       3     C     2.79034  2.79034  0.00000  0.41932
       4     C     3.11653  3.11653  0.00000 -0.23305
       5     C     3.13450  3.13450  0.00000 -0.26899
       6     H     0.38236  0.38236  0.00000  0.23529
       7     C     3.09512  3.09512  0.00000 -0.19024
       8     H     0.38128  0.38128  0.00000  0.23744
       9     C     2.88700  2.88700  0.00000  0.22601
      10     H     0.38672  0.38672  0.00000  0.22656
      11     C     3.10237  3.10237  0.00000 -0.20474
      12     N     3.25756  3.25756  0.00000  0.48489
      13     H     0.37770  0.37770  0.00000  0.24460
      14     O     4.22277  4.22277  0.00000 -0.44554
      15     O     4.22434  4.22434  0.00000 -0.44869

   Total alpha = 36.00000, Total beta = 36.00000, Total charge =  0.00000
