                              Psi4 1.0.54 Driver

  ==> Input File <==

--------------------------------------------------------------------------
set {
	reference rhf
	basis cc-pvtz
}

set_num_threads( 4 )
memory 2 gb

molecule MOL {
0 1

H	 0.207557	 1.273088	 -1.085865
O	 0.057669	 1.301365	 -0.158528
C	 0.004145	 -0.005141	 0.363049
C	 1.199168	 -0.827145	 -0.096690
C	 -1.316386	 -0.602081	 -0.083515
H	 0.012026	 0.043363	 1.450619
H	 1.216685	 -0.896776	 -1.178167
H	 2.129940	 -0.372354	 0.228035
H	 1.160783	 -1.829622	 0.314294
H	 -1.357882	 -0.655920	 -1.165207
H	 -2.140147	 0.011735	 0.257253
H	 -1.440790	 -1.601175	 0.317669

	symmetry c1
}
set optking {
	frozen_dihedral = ("
		1 2 3 4
	")
}

ee,wfn = optimize('scf', return_wfn=True)
oeprop( wfn, 'DIPOLE', 'QUADRUPOLE', 'MULLIKEN_CHARGES')
f=open( 'psi4out.xyz', 'w' )
f.write( "12  " )
f.write( str(ee) + "\n" )
f.write( MOL.save_string_xyz() )
f.close()
--------------------------------------------------------------------------

    Molecular point group: c1
  Charge       = 0
  Multiplicity = 1
  Basis Set: CC-PVTZ
  Basis Set:
  @DF-RHF Final Energy:  -193.19364639577813
    Total Energy =                       -193.1936463957780177
    Molecular point group: c1
  Basis Set: CC-PVTZ
  Basis Set:
  Basis Set: CC-PVTZ
  Basis Set:
  @DF-RHF Final Energy:  -193.19484260919077
    Total Energy =                       -193.1948426091906867
  Basis Set: CC-PVTZ
  Basis Set:
  Basis Set: CC-PVTZ
  Basis Set:
  @DF-RHF Final Energy:  -193.19539647734072
    Total Energy =                       -193.1953964773407790
  Basis Set: CC-PVTZ
  Basis Set:
  Charge       = 0
  Multiplicity = 1
  Basis Set: CC-PVTZ
  Basis Set:

    Orbital Energies (a.u.)
    -----------------------

    Doubly Occupied:

       1A    -20.543688     2A    -11.274065     3A    -11.213029
       4A    -11.208648     5A     -1.364374     6A     -1.042973
       7A     -0.941777     8A     -0.820407     9A     -0.663403
      10A     -0.645925    11A     -0.603672    12A     -0.575532
      13A     -0.545015    14A     -0.517666    15A     -0.511241
      16A     -0.467029    17A     -0.433696

  @DF-RHF Final Energy:  -193.19540118435478

   => Energetics <=

    Nuclear Repulsion Energy =            135.5872651203706312
    One-Electron Energy =                -530.8210521922615044
    Two-Electron Energy =                 202.0383858875360659
    DFT Exchange-Correlation Energy =       0.0000000000000000
    Empirical Dispersion Energy =           0.0000000000000000
    PCM Polarization Energy =               0.0000000000000000
    EFP Energy =                            0.0000000000000000
    Total Energy =                       -193.1954011843548358
    Molecular point group: c1
  Basis Set: CC-PVTZ
  Basis Set:

  -Total Gradient:
     Atom            X                  Y                   Z
    ------   -----------------  -----------------  -----------------
       1        0.000953457674     0.000042465220     0.000268895344
       2       -0.001307483530    -0.000037464373    -0.000555687359
       3        0.000633605892     0.000020545176     0.000895205224
       4       -0.000157396010    -0.000157911577    -0.000572660961
       5       -0.000160838071     0.000012378635     0.000010321723
       6        0.000002218695     0.000062601917    -0.000043190952
       7        0.000028852492    -0.000015653825     0.000048618765
       8        0.000035260835    -0.000019796669    -0.000008688979
       9       -0.000014274391     0.000028742964    -0.000010094897
      10        0.000001731680     0.000004353536     0.000020766496
      11       -0.000044428600    -0.000011714528    -0.000026424620
      12        0.000029293335     0.000071453528    -0.000027059785

  **** Optimization is complete! (in 4 steps) ****
    Final optimized geometry and variables:
    Molecular point group: c1

    Geometry (in Angstrom), charge = 0, multiplicity = 1:

    H            0.371914417730     1.296283046174    -1.050410884006
    O            0.102122497949     1.325179414552    -0.149721523067
    C           -0.030234991602     0.017770779844     0.354842287056
    C            1.206750044812    -0.814549375641     0.052422378201
    C           -1.306841383550    -0.632276589091    -0.159151858194
    H           -0.112392695453     0.143861242741     1.427461244146
    H            1.325995257053    -0.951912182829    -1.019152077727
    H            2.094894651296    -0.325608825185     0.432856913615
    H            1.134470212444    -1.796697000455     0.504784643085
    H           -1.263020568483    -0.768262890382    -1.235936045036
    H           -2.162069036576    -0.008617918743     0.067337934045
    H           -1.458777100609    -1.605089173263     0.295010805259

  Mulliken Charges: (a.u.)
   Center  Symbol    Alpha    Beta     Spin     Total
       1     H     0.39440  0.39440  0.00000  0.21120
       2     O     4.20960  4.20960  0.00000 -0.41920
       3     C     2.92715  2.92715  0.00000  0.14570
       4     C     3.14904  3.14904  0.00000 -0.29808
       5     C     3.14348  3.14348  0.00000 -0.28697
       6     H     0.45136  0.45136  0.00000  0.09727
       7     H     0.46162  0.46162  0.00000  0.07676
       8     H     0.44427  0.44427  0.00000  0.11145
       9     H     0.45491  0.45491  0.00000  0.09018
      10     H     0.46137  0.46137  0.00000  0.07726
      11     H     0.44534  0.44534  0.00000  0.10931
      12     H     0.45744  0.45744  0.00000  0.08511

   Total alpha = 17.00000, Total beta = 17.00000, Total charge =  0.00000

*** Psi4 exiting successfully. Buy a developer a beer!
