                              Psi4 1.0.54 Driver

  ==> Input File <==

--------------------------------------------------------------------------
set {
	reference rhf
	basis cc-pvtz
}

set_num_threads( 4 )
memory 2 gb

molecule MOL {
0 1

O	 0.749630	 1.305591	 -0.000460
C	 0.576499	 0.134701	 -0.003900
C	 -0.765656	 -0.550508	 -0.002152
O	 1.564816	 -0.744612	 -0.000631
C	 -1.945526	 0.411052	 0.000603
H	 -0.794329	 -1.203792	 -0.868145
H	 -0.791555	 -1.205429	 0.862701
C	 -1.522795	 1.839393	 -0.325074
H	 -2.429070	 0.380509	 0.969440
H	 -2.684332	 0.072053	 -0.715376
H	 -0.805292	 2.213289	 0.397907
H	 -2.376486	 2.506185	 -0.317344
H	 -1.064310	 1.901431	 -1.306538
C	 2.884339	 -0.237801	 0.002883
H	 3.064150	 0.362814	 -0.876312
H	 3.533055	 -1.098529	 0.004958
H	 3.059365	 0.363432	 0.882614

	symmetry c1
}
set optking {
	frozen_dihedral = ("
		9 5 3 6
	")
}

ee,wfn = optimize('scf', return_wfn=True)
oeprop( wfn, 'DIPOLE', 'QUADRUPOLE', 'MULLIKEN_CHARGES')
f=open( 'psi4out.xyz', 'w' )
f.write( "17  " )
f.write( str(ee) + "\n" )
f.write( MOL.save_string_xyz() )
f.close()
--------------------------------------------------------------------------

    Molecular point group: c1
  Charge       = 0
  Multiplicity = 1
  Basis Set: CC-PVTZ
  Basis Set:
  @DF-RHF Final Energy:  -344.99947944012996
    Total Energy =                       -344.9994794401299600
    Molecular point group: c1
  Basis Set: CC-PVTZ
  Basis Set:
  Basis Set: CC-PVTZ
  Basis Set:
  @DF-RHF Final Energy:  -345.01817814874158
    Total Energy =                       -345.0181781487415833
  Basis Set: CC-PVTZ
  Basis Set:
  Basis Set: CC-PVTZ
  Basis Set:
  @DF-RHF Final Energy:  -345.02197991575929
    Total Energy =                       -345.0219799157592888
  Basis Set: CC-PVTZ
  Basis Set:
  Basis Set: CC-PVTZ
  Basis Set:
  @DF-RHF Final Energy:  -345.02057850230625
    Total Energy =                       -345.0205785023061367
  Basis Set: CC-PVTZ
  Basis Set:
  @DF-RHF Final Energy:  -345.02414527435758
    Total Energy =                       -345.0241452743577497
  @DF-RHF Final Energy:  -345.02452502347489
    Total Energy =                       -345.0245250234747800
  @DF-RHF Final Energy:  -345.02485850766743
    Total Energy =                       -345.0248585076674317
  @DF-RHF Final Energy:  -345.02514457187016
    Total Energy =                       -345.0251445718703280
  @DF-RHF Final Energy:  -345.02484760463460
    Total Energy =                       -345.0248476046347150
  @DF-RHF Final Energy:  -345.02568720989120
    Total Energy =                       -345.0256872098914869
  @DF-RHF Final Energy:  -345.02601586029800
    Total Energy =                       -345.0260158602981164
  @DF-RHF Final Energy:  -345.02618492537493
    Total Energy =                       -345.0261849253747641
  @DF-RHF Final Energy:  -345.02629168891087
    Total Energy =                       -345.0262916889109306
  @DF-RHF Final Energy:  -345.02637511005281
    Total Energy =                       -345.0263751100528111
  @DF-RHF Final Energy:  -345.02643425889136
    Total Energy =                       -345.0264342588911859
  @DF-RHF Final Energy:  -345.02651112202420
    Total Energy =                       -345.0265111220240897
  @DF-RHF Final Energy:  -345.02658784491382
    Total Energy =                       -345.0265878449137062
  @DF-RHF Final Energy:  -345.02665263141108
    Total Energy =                       -345.0266526314111957
  @DF-RHF Final Energy:  -345.02668256167289
    Total Energy =                       -345.0266825616728283
  @DF-RHF Final Energy:  -345.02669932599576
    Total Energy =                       -345.0266993259958781
  Basis Set: CC-PVTZ
  Basis Set:
  @DF-RHF Final Energy:  -345.02673459784285
    Total Energy =                       -345.0267345978429603
  Basis Set: CC-PVTZ
  Basis Set:
  Basis Set: CC-PVTZ
  Basis Set:
  @DF-RHF Final Energy:  -345.02669634356891
    Total Energy =                       -345.0266963435691423
  Basis Set: CC-PVTZ
  Basis Set:
  Basis Set: CC-PVTZ
  Basis Set:
  @DF-RHF Final Energy:  -345.02676723859668
    Total Energy =                       -345.0267672385963920
  Basis Set: CC-PVTZ
  Basis Set:
  Charge       = 0
  Multiplicity = 1
  Basis Set: CC-PVTZ
  Basis Set:

    Orbital Energies (a.u.)
    -----------------------

    Doubly Occupied:

       1A    -20.598326     2A    -20.531622     3A    -11.364271
       4A    -11.278675     5A    -11.232383     6A    -11.230901
       7A    -11.212745     8A     -1.472426     9A     -1.364495
      10A     -1.079374    11A     -0.998266    12A     -0.944674
      13A     -0.836072    14A     -0.771084    15A     -0.693185
      16A     -0.682535    17A     -0.675628    18A     -0.632290
      19A     -0.608864    20A     -0.580598    21A     -0.554048
      22A     -0.541648    23A     -0.528585    24A     -0.503279
      25A     -0.485086    26A     -0.477126    27A     -0.458486
      28A     -0.435865

  @DF-RHF Final Energy:  -345.02676764108656

   => Energetics <=

    Nuclear Repulsion Energy =            322.4306569782267502
    One-Electron Energy =               -1109.3697726230607259
    Two-Electron Energy =                 441.9123480037476384
    DFT Exchange-Correlation Energy =       0.0000000000000000
    Empirical Dispersion Energy =           0.0000000000000000
    PCM Polarization Energy =               0.0000000000000000
    EFP Energy =                            0.0000000000000000
    Total Energy =                       -345.0267676410862805
    Molecular point group: c1
  Basis Set: CC-PVTZ
  Basis Set:

  -Total Gradient:
     Atom            X                  Y                   Z
    ------   -----------------  -----------------  -----------------
       1        0.000208030601     0.000050953080     0.000179359051
       2       -0.000274492132    -0.000077782419    -0.000060400230
       3        0.001641132855     0.002482451534    -0.003710188949
       4        0.000021155737    -0.000005511311     0.000123503018
       5        0.002781835581     0.002928692667     0.001295079891
       6       -0.001853899962    -0.002376356309     0.002769394239
       7        0.000082491491    -0.000053998868     0.000053977780
       8       -0.000035910106     0.000054845950     0.000004662256
       9       -0.002575166349    -0.003037974855    -0.000508357190
      10       -0.000046174002     0.000005840201     0.000016341099
      11        0.000056072323    -0.000003394863    -0.000010356776
      12       -0.000070865499     0.000059359912     0.000015706774
      13        0.000014033371     0.000009191246    -0.000053656025
      14       -0.000051945852    -0.000034013868    -0.000055487621
      15       -0.000041110753     0.000053360076     0.000019931847
      16        0.000078449834     0.000004110261    -0.000125257476
      17        0.000066362865    -0.000059772433     0.000045748315

  **** Optimization is complete! (in 24 steps) ****
    Final optimized geometry and variables:
    Molecular point group: c1

    Geometry (in Angstrom), charge = 0, multiplicity = 1:

    O            1.100181773458     0.141985544671     1.151444751706
    C            0.463885840515    -0.364845880435     0.289918167992
    C           -0.884855400540    -1.003923845534     0.494704415126
    O            0.867651925829    -0.422080344677    -0.967622186377
    C           -2.070030860658    -0.001478257813     0.520761010605
    H           -1.048889090943    -1.760779930505    -0.258254919141
    H           -0.831765156273    -1.510807941091     1.448391597019
    C           -1.812836237010     1.369705618690    -0.097253025493
    H           -2.410165790703     0.110591385935     1.542301997566
    H           -2.896478650803    -0.466443667901    -0.004389117174
    H           -1.035341099822     1.906223252899     0.432473779984
    H           -2.714288573792     1.969382521190    -0.056732614146
    H           -1.517725138890     1.285974247529    -1.137018510940
    C            2.115693481260     0.166852722498    -1.274644127207
    H            2.104817213625     1.222503393948    -1.046993322520
    H            2.264972114249     0.015026400173    -2.331494784630
    H            2.907761281130    -0.306590860262    -0.713716062665

  Mulliken Charges: (a.u.)
   Center  Symbol    Alpha    Beta     Spin     Total
       1     O     4.20672  4.20672  0.00000 -0.41345
       2     C     2.79393  2.79393  0.00000  0.41215
       3     C     3.09362  3.09362  0.00000 -0.18725
       4     O     4.15090  4.15090  0.00000 -0.30179
       5     C     3.08482  3.08482  0.00000 -0.16963
       6     H     0.44151  0.44151  0.00000  0.11697
       7     H     0.43895  0.43895  0.00000  0.12209
       8     C     3.16012  3.16012  0.00000 -0.32025
       9     H     0.44765  0.44765  0.00000  0.10469
      10     H     0.45088  0.45088  0.00000  0.09824
      11     H     0.44639  0.44639  0.00000  0.10721
      12     H     0.44592  0.44592  0.00000  0.10815
      13     H     0.44963  0.44963  0.00000  0.10073
      14     C     3.03906  3.03906  0.00000 -0.07812
      15     H     0.45374  0.45374  0.00000  0.09251
      16     H     0.44509  0.44509  0.00000  0.10982
      17     H     0.45104  0.45104  0.00000  0.09792

   Total alpha = 28.00000, Total beta = 28.00000, Total charge =  0.00000

*** Psi4 exiting successfully. Buy a developer a beer!
