                              Psi4 1.0.54 Driver

  ==> Input File <==

--------------------------------------------------------------------------
set {
	reference rhf
	basis cc-pvtz
}

set_num_threads( 4 )
memory 2 gb

molecule MOL {
0 1

H	 -2.386348	 0.700218	 4.849364
O	 -1.626718	 0.678596	 5.401020
C	 -1.000635	 -0.574456	 5.316452
C	 -0.274939	 -0.802134	 3.998797
H	 -0.289677	 -0.604999	 6.131060
H	 -1.721727	 -1.371304	 5.488235
C	 -1.192905	 -0.866744	 2.780187
H	 0.455191	 -0.009538	 3.865162
H	 0.280967	 -1.733133	 4.080089
C	 -0.432843	 -1.129134	 1.480843
H	 -1.742527	 0.064782	 2.695462
H	 -1.931046	 -1.653502	 2.926636
C	 -1.311023	 -1.277304	 0.237018
H	 0.285414	 -0.328909	 1.319681
H	 0.150014	 -2.038321	 1.599699
C	 -2.041121	 -0.006551	 -0.194127
H	 -0.683984	 -1.611085	 -0.585137
H	 -2.036857	 -2.070245	 0.403045
C	 -3.489218	 0.042606	 0.286507
H	 -2.022185	 0.066287	 -1.279394
H	 -1.518764	 0.869305	 0.178730
C	 -4.219984	 1.311773	 -0.139038
H	 -4.022855	 -0.824300	 -0.093339
H	 -3.510372	 -0.038577	 1.370031
H	 -4.244251	 1.405725	 -1.219696
H	 -5.244345	 1.313233	 0.215630
H	 -3.732090	 2.196311	 0.257073

	symmetry c1
}
set optking {
	frozen_dihedral = ("
		10 13 16 20
	")
}

ee,wfn = optimize('scf', return_wfn=True)
oeprop( wfn, 'DIPOLE', 'QUADRUPOLE', 'MULLIKEN_CHARGES')
f=open( 'psi4out.xyz', 'w' )
f.write( "27  " )
f.write( str(ee) + "\n" )
f.write( MOL.save_string_xyz() )
f.close()
--------------------------------------------------------------------------

    Molecular point group: c1
  Charge       = 0
  Multiplicity = 1
  Basis Set: CC-PVTZ
  Basis Set:
  @DF-RHF Final Energy:  -388.42256871990787
    Total Energy =                       -388.4225687199079857
    Molecular point group: c1
  Basis Set: CC-PVTZ
  Basis Set:
  Basis Set: CC-PVTZ
  Basis Set:
  @DF-RHF Final Energy:  -388.42305074356722
    Total Energy =                       -388.4230507435677282
  Basis Set: CC-PVTZ
  Basis Set:
  Basis Set: CC-PVTZ
  Basis Set:
  @DF-RHF Final Energy:  -388.42318133817304
    Total Energy =                       -388.4231813381725260
  Basis Set: CC-PVTZ
  Basis Set:
  Basis Set: CC-PVTZ
  Basis Set:
  @DF-RHF Final Energy:  -388.42319528061921
    Total Energy =                       -388.4231952806196659
  Basis Set: CC-PVTZ
  Basis Set:
  Basis Set: CC-PVTZ
  Basis Set:
  @DF-RHF Final Energy:  -388.42320432490158
    Total Energy =                       -388.4232043249016897
  Basis Set: CC-PVTZ
  Basis Set:
  Charge       = 0
  Multiplicity = 1
  Basis Set: CC-PVTZ
  Basis Set:

    Orbital Energies (a.u.)
    -----------------------

    Doubly Occupied:

       1A    -20.545663     2A    -11.265226     3A    -11.216910
       4A    -11.214880     5A    -11.214667     6A    -11.213443
       7A    -11.213358     8A    -11.212514     9A    -11.207893
      10A     -1.363493    11A     -1.095527    12A     -1.061324
      13A     -1.012372    14A     -0.949933    15A     -0.890116
      16A     -0.826322    17A     -0.796957    18A     -0.778266
      19A     -0.696645    20A     -0.654008    21A     -0.635197
      22A     -0.612710    23A     -0.602041    24A     -0.591274
      25A     -0.578688    26A     -0.560283    27A     -0.543386
      28A     -0.518814    29A     -0.510568    30A     -0.496784
      31A     -0.488298    32A     -0.477941    33A     -0.471109
      34A     -0.459538    35A     -0.447215    36A     -0.442061
      37A     -0.425349

  @DF-RHF Final Energy:  -388.42320508588119

   => Energetics <=

    Nuclear Repulsion Energy =            470.2324024610726951
    One-Electron Energy =               -1458.7296810283214654
    Two-Electron Energy =                 600.0740734813675772
    DFT Exchange-Correlation Energy =       0.0000000000000000
    Empirical Dispersion Energy =           0.0000000000000000
    PCM Polarization Energy =               0.0000000000000000
    EFP Energy =                            0.0000000000000000
    Total Energy =                       -388.4232050858811363
    Molecular point group: c1
  Basis Set: CC-PVTZ
  Basis Set:

  -Total Gradient:
     Atom            X                  Y                   Z
    ------   -----------------  -----------------  -----------------
       1        0.000009757455     0.000001875193     0.000005228886
       2       -0.000035320097     0.000042235982    -0.000011241774
       3        0.000033745541    -0.000058450053    -0.000007252566
       4        0.000000713803     0.000006047261     0.000023894186
       5       -0.000008226445    -0.000002670273    -0.000013169228
       6        0.000014022283     0.000013119821    -0.000002038728
       7       -0.000015289203    -0.000013850629     0.000003170587
       8       -0.000009814400    -0.000012817562     0.000003660615
       9       -0.000008454006     0.000011739718    -0.000005505866
      10        0.000159277300     0.000057944703    -0.000125971431
      11        0.000006224646    -0.000013300476     0.000005595614
      12        0.000004981927     0.000012052209     0.000004818876
      13       -0.000166827784    -0.000049206504     0.000182172557
      14       -0.000000349190    -0.000003793418    -0.000011149636
      15       -0.000004401454     0.000004981067     0.000005761035
      16       -0.000199403318    -0.000150311979    -0.000091827601
      17       -0.000003717200     0.000007483738     0.000006461726
      18        0.000006370622    -0.000003456844     0.000006184642
      19       -0.000002904307     0.000007183224     0.000012171298
      20        0.000227403390     0.000153439013     0.000001416841
      21       -0.000016630625    -0.000012616760     0.000002113801
      22        0.000000078564     0.000004699558    -0.000003869801
      23        0.000013117209    -0.000001041139    -0.000004656251
      24       -0.000004995935    -0.000000718342     0.000014930706
      25       -0.000001163441     0.000001686404     0.000001753867
      26        0.000003421744    -0.000001891427    -0.000000405297
      27       -0.000001617078    -0.000000362485    -0.000002247054

  **** Optimization is complete! (in 6 steps) ****
    Final optimized geometry and variables:
    Molecular point group: c1

    Geometry (in Angstrom), charge = 0, multiplicity = 1:

    H           -0.542017973896     1.021166277098     2.691810975530
    O            0.235821604892     0.999519754372     3.217183913075
    C            0.844909397175    -0.261987144052     3.132244781930
    C            1.533067037936    -0.514282019142     1.799174724683
    H            1.576543007490    -0.291163058207     3.928340199622
    H            0.119278410115    -1.047765851098     3.332796224441
    C            0.583679032430    -0.576224309316     0.604695001633
    H            2.271823684240     0.265221772513     1.639074681191
    H            2.076297269084    -1.453045823056     1.875946329856
    C            1.309180281527    -0.864062909158    -0.708056538802
    H            0.050429021115     0.365028444795     0.522272008002
    H           -0.164783776985    -1.346857536385     0.779185940926
    C            0.418307425668    -1.022801174496    -1.943360608594
    H            2.029700028700    -0.071343669244    -0.893815178095
    H            1.888807972595    -1.775597318559    -0.589239921082
    C           -0.376861811205     0.227589337884    -2.361154206111
    H            1.061549809024    -1.317759533773    -2.765561475948
    H           -0.265951388773    -1.853538615465    -1.790268294934
    C           -1.833502425118     0.248934888626    -1.897862876361
    H           -0.370443521231     0.305051754555    -3.444083367701
    H            0.130139639892     1.119010416566    -2.000153878439
    C           -2.570829393736     1.516694772632    -2.316169195105
    H           -2.345060471596    -0.616484035001    -2.310004219494
    H           -1.885111361708     0.143116881528    -0.819549162907
    H           -2.565985073598     1.634090759800    -3.394758331356
    H           -3.604753719458     1.496010987938    -1.990990108571
    H           -2.107092554369     2.399312625102    -1.888026483843

  Mulliken Charges: (a.u.)
   Center  Symbol    Alpha    Beta     Spin     Total
       1     H     0.39227  0.39227  0.00000  0.21547
       2     O     4.20550  4.20550  0.00000 -0.41100
       3     C     2.98077  2.98077  0.00000  0.03846
       4     C     3.08880  3.08880  0.00000 -0.17759
       5     H     0.44829  0.44829  0.00000  0.10342
       6     H     0.46943  0.46943  0.00000  0.06114
       7     C     3.10762  3.10762  0.00000 -0.21524
       8     H     0.45086  0.45086  0.00000  0.09829
       9     H     0.45506  0.45506  0.00000  0.08987
      10     C     3.09419  3.09419  0.00000 -0.18838
      11     H     0.45516  0.45516  0.00000  0.08969
      12     H     0.45131  0.45131  0.00000  0.09738
      13     C     3.10429  3.10429  0.00000 -0.20857
      14     H     0.45169  0.45169  0.00000  0.09662
      15     H     0.44837  0.44837  0.00000  0.10326
      16     C     3.10379  3.10379  0.00000 -0.20758
      17     H     0.44256  0.44256  0.00000  0.11488
      18     H     0.45423  0.45423  0.00000  0.09155
      19     C     3.08329  3.08329  0.00000 -0.16658
      20     H     0.44492  0.44492  0.00000  0.11015
      21     H     0.45164  0.45164  0.00000  0.09672
      22     C     3.15094  3.15094  0.00000 -0.30189
      23     H     0.45283  0.45283  0.00000  0.09434
      24     H     0.45508  0.45508  0.00000  0.08985
      25     H     0.45397  0.45397  0.00000  0.09206
      26     H     0.44835  0.44835  0.00000  0.10330
      27     H     0.45480  0.45480  0.00000  0.09040

   Total alpha = 37.00000, Total beta = 37.00000, Total charge =  0.00000

*** Psi4 exiting successfully. Buy a developer a beer!
