  ==> Input File <==

--------------------------------------------------------------------------
set {
	reference rhf
	basis 6-31G*
}

set_num_threads( 4 )
memory 2 gb

molecule MOL {
0 1

O	 0.365866	 0.817481	 -0.865064
C	 0.028650	 0.075053	 -0.000277
C	 -1.233602	 -0.752807	 0.000328
O	 0.736417	 -0.125482	 1.103694
C	 -2.501530	 0.091881	 0.000126
H	 -1.193807	 -1.406641	 -0.865785
H	 -1.193516	 -1.405779	 0.867015
H	 -2.545121	 0.729328	 -0.874513
H	 -3.377167	 -0.548497	 0.000561
H	 -2.544818	 0.730135	 0.874258
C	 1.949045	 0.595162	 1.229371
H	 2.624740	 0.344804	 0.424281
H	 2.370906	 0.299704	 2.177317
H	 1.761564	 1.659208	 1.218058

	symmetry c1
}
set optking {
	frozen_dihedral = ("
		4 2 3 6
	")
}

ee = optimize('scf')
oeprop('DIPOLE', 'QUADRUPOLE', 'MULLIKEN_CHARGES')
f=open( 'psi4out.xyz', 'w' )
f.write( "14  " )
f.write( str(ee) + "\n" )
f.write( MOL.save_string_xyz() )
f.close()
--------------------------------------------------------------------------

    Molecular point group: c1
  Charge       = 0
  Multiplicity = 1
  Basis Set: 6-31G*
  Basis Set:
  @DF-RHF Final Energy:  -305.86969613118413
    Total Energy =                       -305.8696961311839004
    Molecular point group: c1
  Basis Set: 6-31G*
  Basis Set:
  Basis Set: 6-31G*
  Basis Set:
  @DF-RHF Final Energy:  -305.87034801083928
    Total Energy =                       -305.8703480108392796
  Basis Set: 6-31G*
  Basis Set:
  Basis Set: 6-31G*
  Basis Set:
  @DF-RHF Final Energy:  -305.86930381223931
    Total Energy =                       -305.8693038122393659
  Basis Set: 6-31G*
  Basis Set:
  Basis Set: 6-31G*
  Basis Set:
  @DF-RHF Final Energy:  -305.87041960555644
    Total Energy =                       -305.8704196055565490
  Basis Set: 6-31G*
  Basis Set:
  Basis Set: 6-31G*
  Basis Set:
  @DF-RHF Final Energy:  -305.87042417623690
    Total Energy =                       -305.8704241762368383
  Basis Set: 6-31G*
  Basis Set:
  Charge       = 0
  Multiplicity = 1
  Basis Set: 6-31G*
  Basis Set:

    Orbital Energies (a.u.)
    -----------------------

    Doubly Occupied:

       1A    -20.607006     2A    -20.543122     3A    -11.372424
       4A    -11.281516     5A    -11.237318     6A    -11.223576
       7A     -1.470620     8A     -1.362421     9A     -1.064967
      10A     -0.979871    11A     -0.880607    12A     -0.772565
      13A     -0.698872    14A     -0.680315    15A     -0.672707
      16A     -0.617452    17A     -0.601416    18A     -0.560754
      19A     -0.539762    20A     -0.518853    21A     -0.510160
      22A     -0.500698    23A     -0.455423    24A     -0.436229

  @DF-RHF Final Energy:  -305.87042436357694

   => Energetics <=

    Nuclear Repulsion Energy =            247.4020243976416396
    One-Electron Energy =                -907.3675869986213911
    Two-Electron Energy =                 354.0951382374026934
    DFT Exchange-Correlation Energy =       0.0000000000000000
    Empirical Dispersion Energy =           0.0000000000000000
    PCM Polarization Energy =               0.0000000000000000
    EFP Energy =                            0.0000000000000000
    Total Energy =                       -305.8704243635770581
    Molecular point group: c1
  Basis Set: 6-31G*
  Basis Set:

  -Total Gradient:
     Atom            X                  Y                   Z
    ------   -----------------  -----------------  -----------------
       1       -0.000010197764    -0.000022916889     0.000031349717
       2        0.000251443080    -0.000368727532    -0.000500539262
       3        0.000263510822    -0.000404945861     0.000496921898
       4       -0.000216152341     0.000370915134     0.000293601461
       5        0.000018812425     0.000004591506    -0.000010171590
       6       -0.000292913773     0.000434771909    -0.000313788333
       7       -0.000000785123    -0.000006648158     0.000002722036
       8       -0.000002523509     0.000010108970     0.000002364976
       9        0.000005085371    -0.000005487011    -0.000000986254
      10       -0.000000958225    -0.000003649732    -0.000002819950
      11       -0.000031209130    -0.000015085208    -0.000004604724
      12        0.000005559211     0.000002293680     0.000001313519
      13        0.000003572702     0.000000374717     0.000002687381
      14        0.000006756253     0.000004404478     0.000001949128

  **** Optimization is complete! (in 6 steps) ****
    Final optimized geometry and variables:
    Molecular point group: c1

    Geometry (in Angstrom), charge = 0, multiplicity = 1:

    O            0.396406745966     0.703842145005    -1.087316546135
    C            0.107553758720    -0.067370429826    -0.228614883126
    C           -1.147271583588    -0.908274603847    -0.234072997698
    O            0.854722150316    -0.270766692459     0.846104358326
    C           -2.401199851578    -0.030445785134    -0.289010162662
    H           -1.105132484457    -1.531359060952    -1.121551295710
    H           -1.158583341871    -1.554024879074     0.633527830401
    H           -2.375774011725     0.616086353725    -1.157052783962
    H           -3.289564964743    -0.649527449516    -0.346102311547
    H           -2.483653049471     0.591201776269     0.596703657100
    C            2.054531443796     0.476096598968     0.943467486568
    H            2.706435398547     0.256598160294     0.110346120100
    H            2.515925440162     0.173175508784     1.870368166953
    H            1.841486869304     1.535178262420     0.958607175013

  Mulliken Charges: (a.u.)
   Center  Symbol    Alpha    Beta     Spin     Total
       1     O     4.28643  4.28643  0.00000 -0.57285
       2     C     2.61044  2.61044  0.00000  0.77912
       3     C     3.20205  3.20205  0.00000 -0.40409
       4     O     4.30283  4.30283  0.00000 -0.60565
       5     C     3.24818  3.24818  0.00000 -0.49637
       6     H     0.40021  0.40021  0.00000  0.19958
       7     H     0.40037  0.40037  0.00000  0.19926
       8     H     0.40230  0.40230  0.00000  0.19539
       9     H     0.41375  0.41375  0.00000  0.17249
      10     H     0.41478  0.41478  0.00000  0.17044
      11     C     3.09363  3.09363  0.00000 -0.18727
      12     H     0.40833  0.40833  0.00000  0.18335
      13     H     0.40832  0.40832  0.00000  0.18337
      14     H     0.40838  0.40838  0.00000  0.18323

   Total alpha = 24.00000, Total beta = 24.00000, Total charge =  0.00000
