  ==> Input File <==

--------------------------------------------------------------------------
set {
	reference rhf
	basis 6-31G*
}

set_num_threads( 1 )
memory 2 gb

molecule MOL {
0 1

O	 0.749854	 1.307668	 -0.000040
C	 0.576249	 0.131685	 -0.000108
C	 -0.766779	 -0.556801	 -0.000461
O	 1.568443	 -0.749345	 -0.000005
C	 -1.945214	 0.412366	 0.000161
H	 -0.796911	 -1.211249	 -0.867467
H	 -0.796854	 -1.212390	 0.865687
C	 -3.287791	 -0.317055	 0.000105
H	 -1.876087	 1.060580	 -0.866812
H	 -1.875822	 1.059691	 0.867761
H	 -3.394745	 -0.949193	 -0.877058
H	 -4.111778	 0.388953	 0.000015
H	 -3.394954	 -0.949187	 0.877259
C	 2.874122	 -0.246864	 -0.218919
H	 2.939132	 0.234424	 -1.184153
H	 3.529548	 -1.103015	 -0.183028
H	 3.142262	 0.462664	 0.550614

	symmetry c1
}
set optking {
	frozen_dihedral = ("
		1 2 3 6,
		9 5 3 6
	")
}

ee = energy('scf')
oeprop('DIPOLE', 'QUADRUPOLE', 'MULLIKEN_CHARGES')
f=open( 'psi4out.xyz', 'w' )
f.write( "17  " )
f.write( str(ee) + "\n" )
f.write( MOL.save_string_xyz() )
f.close()
--------------------------------------------------------------------------

    Molecular point group: c1

    Geometry (in Angstrom), charge = 0, multiplicity = 1:

       Center              X                  Y                   Z               Mass
    ------------   -----------------  -----------------  -----------------  -----------------
           O          0.751814759635     1.309880080962     0.033809566499    15.994914619560
           C          0.578209759635     0.133897080962     0.033741566499    12.000000000000
           C         -0.764818240365    -0.554588919038     0.033388566499    12.000000000000
           O          1.570403759635    -0.747132919038     0.033844566499    15.994914619560
           C         -1.943253240365     0.414578080962     0.034010566499    12.000000000000
           H         -0.794950240365    -1.209036919038    -0.833617433501     1.007825032070
           H         -0.794893240365    -1.210177919038     0.899536566499     1.007825032070
           C         -3.285830240365    -0.314842919038     0.033954566499    12.000000000000
           H         -1.874126240365     1.062792080962    -0.832962433501     1.007825032070
           H         -1.873861240365     1.061903080962     0.901610566499     1.007825032070
           H         -3.392784240365    -0.946980919038    -0.843208433501     1.007825032070
           H         -4.109817240365     0.391165080962     0.033864566499     1.007825032070
           H         -3.392993240365    -0.946974919038     0.911108566499     1.007825032070
           C          2.876082759635    -0.244651919038    -0.185069433501    12.000000000000
           H          2.941092759635     0.236636080962    -1.150303433501     1.007825032070
           H          3.531508759635    -1.100802919038    -0.149178433501     1.007825032070
           H          3.144222759635     0.464876080962     0.584463566499     1.007825032070

  Charge       = 0
  Multiplicity = 1
  Basis Set: 6-31G*
  Basis Set:

    Orbital Energies (a.u.)
    -----------------------

    Doubly Occupied:

       1A    -20.603483     2A    -20.546081     3A    -11.372766
       4A    -11.281393     5A    -11.236091     6A    -11.221975
       7A    -11.214610     8A     -1.469598     9A     -1.363285
      10A     -1.080614    11A     -1.001413    12A     -0.940030
      13A     -0.827383    14A     -0.767396    15A     -0.700417
      16A     -0.683419    17A     -0.672335    18A     -0.637001
      19A     -0.595743    20A     -0.574832    21A     -0.568936
      22A     -0.527914    23A     -0.521643    24A     -0.498660
      25A     -0.487195    26A     -0.478887    27A     -0.456181
      28A     -0.437992

  @DF-RHF Final Energy:  -344.90620750556326

   => Energetics <=

    Nuclear Repulsion Energy =            312.4804893702046797
    One-Electron Energy =               -1089.2386635032148661
    Two-Electron Energy =                 431.8519666274458473
    DFT Exchange-Correlation Energy =       0.0000000000000000
    Empirical Dispersion Energy =           0.0000000000000000
    PCM Polarization Energy =               0.0000000000000000
    EFP Energy =                            0.0000000000000000
    Total Energy =                       -344.9062075055643959

  Mulliken Charges: (a.u.)
   Center  Symbol    Alpha    Beta     Spin     Total
       1     O     4.28525  4.28525  0.00000 -0.57050
       2     C     2.60601  2.60601  0.00000  0.78799
       3     C     3.20619  3.20619  0.00000 -0.41238
       4     O     4.30714  4.30714  0.00000 -0.61427
       5     C     3.15197  3.15197  0.00000 -0.30394
       6     H     0.40145  0.40145  0.00000  0.19710
       7     H     0.40055  0.40055  0.00000  0.19890
       8     C     3.24277  3.24277  0.00000 -0.48553
       9     H     0.41109  0.41109  0.00000  0.17783
      10     H     0.41072  0.41072  0.00000  0.17857
      11     H     0.42147  0.42147  0.00000  0.15707
      12     H     0.41512  0.41512  0.00000  0.16977
      13     H     0.42124  0.42124  0.00000  0.15752
      14     C     3.09280  3.09280  0.00000 -0.18561
      15     H     0.41128  0.41128  0.00000  0.17745
      16     H     0.40824  0.40824  0.00000  0.18352
      17     H     0.40673  0.40673  0.00000  0.18654

   Total alpha = 28.00000, Total beta = 28.00000, Total charge =  0.00000
