  ==> Input File <==

--------------------------------------------------------------------------
set {
	reference rhf
	basis 6-31G*
}

set_num_threads( 1 )
memory 2 gb

molecule MOL {
0 1

H	 -4.236494	 0.538104	 0.039757
O	 -3.517110	 -0.026191	 -0.205115
C	 -2.306886	 0.532354	 0.237577
C	 -1.177863	 -0.397191	 -0.171080
H	 -2.156308	 1.517575	 -0.201710
H	 -2.315015	 0.655684	 1.319734
C	 0.198102	 0.111031	 0.262842
H	 -1.208843	 -0.518759	 -1.250427
H	 -1.368741	 -1.376554	 0.258909
C	 1.331804	 -0.827780	 -0.158768
H	 0.361943	 1.100838	 -0.156218
H	 0.217265	 0.229072	 1.345532
C	 2.723619	 -0.410569	 0.329459
H	 1.342964	 -0.912588	 -1.244120
H	 1.116806	 -1.824343	 0.220779
C	 2.729885	 0.776894	 1.293942
H	 3.330276	 -0.158642	 -0.536906
H	 3.209308	 -1.262233	 0.801623
H	 2.238932	 1.640297	 0.852875
H	 2.222162	 0.547426	 2.224930
H	 3.746476	 1.066806	 1.541424

	symmetry c1
}
set optking {
	frozen_dihedral = ("
		2 3 4 8,
		8 4 7 10,
		4 7 10 14,
		1 2 3 5
	")
}

ee = energy('scf')
oeprop('DIPOLE', 'QUADRUPOLE', 'MULLIKEN_CHARGES')
f=open( 'psi4out.xyz', 'w' )
f.write( "21  " )
f.write( str(ee) + "\n" )
f.write( MOL.save_string_xyz() )
f.close()
--------------------------------------------------------------------------

    Molecular point group: c1

    Geometry (in Angstrom), charge = 0, multiplicity = 1:

       Center              X                  Y                   Z               Mass
    ------------   -----------------  -----------------  -----------------  -----------------
           H         -4.160881804942     0.555239859566    -0.190437300156     1.007825032070
           O         -3.441497804942    -0.009055140434    -0.435309300156    15.994914619560
           C         -2.231273804942     0.549489859566     0.007382699844    12.000000000000
           C         -1.102250804942    -0.380055140434    -0.401274300156    12.000000000000
           H         -2.080695804942     1.534710859566    -0.431904300156     1.007825032070
           H         -2.239402804942     0.672819859566     1.089539699844     1.007825032070
           C          0.273714195058     0.128166859566     0.032647699844    12.000000000000
           H         -1.133230804942    -0.501623140434    -1.480621300156     1.007825032070
           H         -1.293128804942    -1.359418140434     0.028714699844     1.007825032070
           C          1.407416195058    -0.810644140434    -0.388962300156    12.000000000000
           H          0.437555195058     1.117973859566    -0.386412300156     1.007825032070
           H          0.292877195058     0.246207859566     1.115337699844     1.007825032070
           C          2.799231195058    -0.393433140434     0.099264699844    12.000000000000
           H          1.418576195058    -0.895452140434    -1.474314300156     1.007825032070
           H          1.192418195058    -1.807207140434    -0.009415300156     1.007825032070
           C          2.805497195058     0.794029859566     1.063747699844    12.000000000000
           H          3.405888195058    -0.141506140434    -0.767100300156     1.007825032070
           H          3.284920195058    -1.245097140434     0.571428699844     1.007825032070
           H          2.314544195058     1.657432859566     0.622680699844     1.007825032070
           H          2.297774195058     0.564561859566     1.994735699844     1.007825032070
           H          3.822088195058     1.083941859566     1.311229699844     1.007825032070

  Charge       = 0
  Multiplicity = 1
  Basis Set: 6-31G*
  Basis Set:

    Orbital Energies (a.u.)
    -----------------------

    Doubly Occupied:

       1A    -20.551540     2A    -11.266634     3A    -11.214878
       4A    -11.213618     5A    -11.212048     6A    -11.209718
       7A    -11.207643     8A     -1.358346     9A     -1.087536
      10A     -1.031683    11A     -0.951074    12A     -0.882014
      13A     -0.810190    14A     -0.768506    15A     -0.691745
      16A     -0.663924    17A     -0.631708    18A     -0.599776
      19A     -0.581468    20A     -0.574313    21A     -0.534638
      22A     -0.529238    23A     -0.501012    24A     -0.488362
      25A     -0.485137    26A     -0.459013    27A     -0.444659
      28A     -0.442710    29A     -0.433541

  @DF-RHF Final Energy:  -310.20270208018940

   => Energetics <=

    Nuclear Repulsion Energy =            315.2488858565484406
    One-Electron Energy =               -1045.2497193185445212
    Two-Electron Energy =                 419.7981313818064564
    DFT Exchange-Correlation Energy =       0.0000000000000000
    Empirical Dispersion Energy =           0.0000000000000000
    PCM Polarization Energy =               0.0000000000000000
    EFP Energy =                            0.0000000000000000
    Total Energy =                       -310.2027020801896242

  Mulliken Charges: (a.u.)
   Center  Symbol    Alpha    Beta     Spin     Total
       1     H     0.28125  0.28125  0.00000  0.43750
       2     O     4.37190  4.37190  0.00000 -0.74379
       3     C     2.98943  2.98943  0.00000  0.02114
       4     C     3.15764  3.15764  0.00000 -0.31528
       5     H     0.43317  0.43317  0.00000  0.13366
       6     H     0.43305  0.43305  0.00000  0.13390
       7     C     3.16544  3.16544  0.00000 -0.33087
       8     H     0.41525  0.41525  0.00000  0.16949
       9     H     0.41510  0.41510  0.00000  0.16980
      10     C     3.15444  3.15444  0.00000 -0.30887
      11     H     0.42246  0.42246  0.00000  0.15507
      12     H     0.42097  0.42097  0.00000  0.15805
      13     C     3.15464  3.15464  0.00000 -0.30928
      14     H     0.41971  0.41971  0.00000  0.16058
      15     H     0.42063  0.42063  0.00000  0.15873
      16     C     3.24459  3.24459  0.00000 -0.48917
      17     H     0.42088  0.42088  0.00000  0.15823
      18     H     0.41983  0.41983  0.00000  0.16034
      19     H     0.42028  0.42028  0.00000  0.15945
      20     H     0.42088  0.42088  0.00000  0.15824
      21     H     0.41846  0.41846  0.00000  0.16308

   Total alpha = 29.00000, Total beta = 29.00000, Total charge = -0.00000
