  ==> Input File <==

--------------------------------------------------------------------------
set {
	reference rhf
	basis cc-pvtz
}

set_num_threads( 4 )
memory 2 gb

molecule MOL {
0 1

H	 2.152523	 -0.796664	 -0.509608
C	 1.401152	 -1.282063	 -1.146384
C	 0.098917	 -0.541496	 -1.275002
O	 1.645935	 -2.314415	 -1.667887
C	 -0.554654	 -0.292621	 0.086567
H	 -0.553531	 -1.105866	 -1.928174
H	 0.312838	 0.412546	 -1.752411
C	 -1.846385	 0.513195	 -0.016346
H	 -0.761432	 -1.246699	 0.562924
H	 0.143946	 0.230396	 0.734705
C	 -3.089953	 -0.365049	 -0.098564
H	 -1.798267	 1.154820	 -0.891143
H	 -1.925398	 1.173265	 0.842889
H	 -3.055079	 -1.012299	 -0.968245
H	 -3.988403	 0.236438	 -0.170014
H	 -3.183055	 -0.995885	 0.779079

	symmetry c1
}
set optking {
	frozen_dihedral = ("
		9 5 8 12
	")
}

ee = optimize('scf')
oeprop('DIPOLE', 'QUADRUPOLE', 'MULLIKEN_CHARGES')
f=open( 'psi4out.xyz', 'w' )
f.write( "16  " )
f.write( str(ee) + "\n" )
f.write( MOL.save_string_xyz() )
f.close()
--------------------------------------------------------------------------

    Molecular point group: c1
  Charge       = 0
  Multiplicity = 1
  Basis Set: CC-PVTZ
  Basis Set:
  @DF-RHF Final Energy:  -270.11517588578351
    Total Energy =                       -270.1151758857834011
    Molecular point group: c1
  Basis Set: CC-PVTZ
  Basis Set:
  Basis Set: CC-PVTZ
  Basis Set:
  @DF-RHF Final Energy:  -270.11543434323835
    Total Energy =                       -270.1154343432382916
  Basis Set: CC-PVTZ
  Basis Set:
  Basis Set: CC-PVTZ
  Basis Set:
  @DF-RHF Final Energy:  -270.11549792900621
    Total Energy =                       -270.1154979290060965
  Basis Set: CC-PVTZ
  Basis Set:
  Basis Set: CC-PVTZ
  Basis Set:
  @DF-RHF Final Energy:  -270.11500170810848
    Total Energy =                       -270.1150017081087071
  Basis Set: CC-PVTZ
  Basis Set:
  Basis Set: CC-PVTZ
  Basis Set:
  @DF-RHF Final Energy:  -270.11551713258774
    Total Energy =                       -270.1155171325877973
  Basis Set: CC-PVTZ
  Basis Set:
  Basis Set: CC-PVTZ
  Basis Set:
  @DF-RHF Final Energy:  -270.11551372658334
    Total Energy =                       -270.1155137265832309
  Basis Set: CC-PVTZ
  Basis Set:
  Basis Set: CC-PVTZ
  Basis Set:
  @DF-RHF Final Energy:  -270.11552312906770
    Total Energy =                       -270.1155231290676397
  Basis Set: CC-PVTZ
  Basis Set:
  Charge       = 0
  Multiplicity = 1
  Basis Set: CC-PVTZ
  Basis Set:

    Orbital Energies (a.u.)
    -----------------------

    Doubly Occupied:

       1A    -20.552142     2A    -11.321143     3A    -11.234730
       4A    -11.233965     5A    -11.227428     6A    -11.215874
       7A     -1.406806     8A     -1.096710     9A     -1.017420
      10A     -0.908846    11A     -0.811278    12A     -0.793706
      13A     -0.679886    14A     -0.650261    15A     -0.624742
      16A     -0.613280    17A     -0.583089    18A     -0.548693
      19A     -0.536411    20A     -0.510384    21A     -0.487915
      22A     -0.479829    23A     -0.475831    24A     -0.411587

  @DF-RHF Final Energy:  -270.11552324199420

   => Energetics <=

    Nuclear Repulsion Energy =            231.5749203798091003
    One-Electron Energy =                -824.5369753385008380
    Two-Electron Energy =                 322.8465317166974273
    DFT Exchange-Correlation Energy =       0.0000000000000000
    Empirical Dispersion Energy =           0.0000000000000000
    PCM Polarization Energy =               0.0000000000000000
    EFP Energy =                            0.0000000000000000
    Total Energy =                       -270.1155232419943104
    Molecular point group: c1
  Basis Set: CC-PVTZ
  Basis Set:

  -Total Gradient:
     Atom            X                  Y                   Z
    ------   -----------------  -----------------  -----------------
       1       -0.000003413565    -0.000002237288     0.000009050854
       2        0.000009909461     0.000000986890    -0.000012522189
       3       -0.000018995277    -0.000006385403     0.000038794254
       4       -0.000003060856     0.000008060843    -0.000006905532
       5        0.000429015478     0.001158644507     0.003369204989
       6        0.000000153389     0.000001787068    -0.000004223614
       7        0.000011384577    -0.000002955726    -0.000013327850
       8        0.001552552950     0.002812736631     0.001652527674
       9       -0.000614920973    -0.001417364517    -0.003110535915
      10       -0.000009081678     0.000008170924     0.000000870356
      11        0.000004973318    -0.000012321390     0.000001685814
      12       -0.001365184220    -0.002548511539    -0.001929326925
      13        0.000007477673    -0.000003384318     0.000003302034
      14       -0.000000143623    -0.000001293971     0.000000377325
      15        0.000005239883     0.000003095587    -0.000002598186
      16       -0.000005906541     0.000000971702     0.000003626911

  **** Optimization is complete! (in 8 steps) ****
    Final optimized geometry and variables:
    Molecular point group: c1

    Geometry (in Angstrom), charge = 0, multiplicity = 1:

    H            2.561685097562    -0.108842583324     0.161783647278
    C            1.788708020365    -0.574491081115    -0.463874729286
    C            0.508353341566     0.204800206174    -0.582218277575
    O            1.995938891337    -1.617154094072    -0.981384112736
    C           -0.126614716143     0.470175745709     0.788509984738
    H           -0.163144745499    -0.339458201154    -1.232941369803
    H            0.746579243560     1.153693603746    -1.057542409986
    C           -1.444647413422     1.253509735940     0.690579244911
    H           -0.311834413449    -0.488694607063     1.262721480006
    H            0.582650187750     1.005539332323     1.410550446410
    C           -2.671167216152     0.350257292660     0.575920847993
    H           -1.415523310020     1.898967727620    -0.181702676831
    H           -1.556180191333     1.894417843944     1.557340946074
    H           -2.598243612046    -0.310708167005    -0.280930932660
    H           -3.576093748969     0.935798889480     0.462945952937
    H           -2.783729820557    -0.267540225468     1.460050240740

  Mulliken Charges: (a.u.)
   Center  Symbol    Alpha    Beta     Spin     Total
       1     H     0.46465  0.46465  0.00000  0.07071
       2     C     2.91072  2.91072  0.00000  0.17855
       3     C     3.07722  3.07722  0.00000 -0.15445
       4     O     4.16396  4.16396  0.00000 -0.32792
       5     C     3.10925  3.10925  0.00000 -0.21850
       6     H     0.44295  0.44295  0.00000  0.11410
       7     H     0.45008  0.45008  0.00000  0.09984
       8     C     3.08946  3.08946  0.00000 -0.17892
       9     H     0.44688  0.44688  0.00000  0.10625
      10     H     0.44438  0.44438  0.00000  0.11124
      11     C     3.14719  3.14719  0.00000 -0.29438
      12     H     0.45454  0.45454  0.00000  0.09093
      13     H     0.44522  0.44522  0.00000  0.10955
      14     H     0.45260  0.45260  0.00000  0.09480
      15     H     0.44731  0.44731  0.00000  0.10538
      16     H     0.45358  0.45358  0.00000  0.09284

   Total alpha = 24.00000, Total beta = 24.00000, Total charge = -0.00000
