  ==> Input File <==

--------------------------------------------------------------------------
set {
	reference rhf
	basis 6-31G*
}

set_num_threads( 4 )
memory 2 gb

molecule MOL {
0 1

O	 -1.107602	 2.212866	 -2.470673
C	 -1.374957	 1.424418	 -1.615508
C	 -0.548681	 0.163291	 -1.433486
C	 -2.520726	 1.652861	 -0.655091
C	 0.758148	 0.467775	 -0.683401
H	 -0.317893	 -0.223894	 -2.419959
H	 -1.116859	 -0.591995	 -0.898000
C	 1.631333	 -0.777471	 -0.511575
H	 1.291863	 1.235608	 -1.232004
H	 0.529694	 0.883100	 0.296936
C	 2.915987	 -0.544314	 0.291766
H	 1.888045	 -1.172784	 -1.492672
H	 1.047304	 -1.549551	 -0.014935
C	 3.373361	 0.914346	 0.347591
H	 3.708709	 -1.142521	 -0.150311
H	 2.780642	 -0.921148	 1.303579
H	 3.506512	 1.320010	 -0.651625
H	 4.322697	 0.999599	 0.867103
H	 2.660624	 1.545032	 0.868198
H	 -3.291146	 0.904393	 -0.820958
H	 -2.939236	 2.638232	 -0.805686
H	 -2.187415	 1.546608	 0.373218

	symmetry c1
}
set optking {
	frozen_dihedral = ("
		12 8 11 15
	")
}

ee = optimize('scf')
oeprop('DIPOLE', 'QUADRUPOLE', 'MULLIKEN_CHARGES')
f=open( 'psi4out.xyz', 'w' )
f.write( "22  " )
f.write( str(ee) + "\n" )
f.write( MOL.save_string_xyz() )
f.close()
--------------------------------------------------------------------------

    Molecular point group: c1
  Charge       = 0
  Multiplicity = 1
  Basis Set: 6-31G*
  Basis Set:
  @DF-RHF Final Energy:  -348.09095351437429
    Total Energy =                       -348.0909535143745188
    Molecular point group: c1
  Basis Set: 6-31G*
  Basis Set:
  Basis Set: 6-31G*
  Basis Set:
  @DF-RHF Final Energy:  -348.09141495907920
    Total Energy =                       -348.0914149590794864
  Basis Set: 6-31G*
  Basis Set:
  Basis Set: 6-31G*
  Basis Set:
  @DF-RHF Final Energy:  -348.09230343266773
    Total Energy =                       -348.0923034326674497
  Basis Set: 6-31G*
  Basis Set:
  Basis Set: 6-31G*
  Basis Set:
  @DF-RHF Final Energy:  -348.09225669509846
    Total Energy =                       -348.0922566950983992
  Basis Set: 6-31G*
  Basis Set:
  @DF-RHF Final Energy:  -348.09236524130006
    Total Energy =                       -348.0923652412997171
  @DF-RHF Final Energy:  -348.09220809141107
    Total Energy =                       -348.0922080914104413
  @DF-RHF Final Energy:  -348.09229256837455
    Total Energy =                       -348.0922925683748872
  Basis Set: 6-31G*
  Basis Set:
  @DF-RHF Final Energy:  -348.09237323329216
    Total Energy =                       -348.0923732332921645
  Basis Set: 6-31G*
  Basis Set:
  Basis Set: 6-31G*
  Basis Set:
  @DF-RHF Final Energy:  -348.09234293787455
    Total Energy =                       -348.0923429378749461
  Basis Set: 6-31G*
  Basis Set:
  Basis Set: 6-31G*
  Basis Set:
  @DF-RHF Final Energy:  -348.09238267015212
    Total Energy =                       -348.0923826701524604
  Basis Set: 6-31G*
  Basis Set:
  Charge       = 0
  Multiplicity = 1
  Basis Set: 6-31G*
  Basis Set:

    Orbital Energies (a.u.)
    -----------------------

    Doubly Occupied:

       1A    -20.547341     2A    -11.324441     3A    -11.229870
       4A    -11.229064     5A    -11.228211     6A    -11.222474
       7A    -11.220997     8A    -11.211129     9A     -1.393098
      10A     -1.094204    11A     -1.042621    12A     -0.999163
      13A     -0.937215    14A     -0.862905    15A     -0.779761
      16A     -0.733187    17A     -0.664200    18A     -0.644949
      19A     -0.629307    20A     -0.616436    21A     -0.592607
      22A     -0.587195    23A     -0.560899    24A     -0.538756
      25A     -0.532994    26A     -0.525166    27A     -0.499669
      28A     -0.487741    29A     -0.467165    30A     -0.462282
      31A     -0.456820    32A     -0.396287

  @DF-RHF Final Energy:  -348.09238279271415

   => Energetics <=

    Nuclear Repulsion Energy =            373.9728199444581378
    One-Electron Energy =               -1212.6941005069509174
    Two-Electron Energy =                 490.6288977697786322
    DFT Exchange-Correlation Energy =       0.0000000000000000
    Empirical Dispersion Energy =           0.0000000000000000
    PCM Polarization Energy =               0.0000000000000000
    EFP Energy =                            0.0000000000000000
    Total Energy =                       -348.0923827927141474
    Molecular point group: c1
  Basis Set: 6-31G*
  Basis Set:

  -Total Gradient:
     Atom            X                  Y                   Z
    ------   -----------------  -----------------  -----------------
       1        0.000005245143    -0.000006320424    -0.000001748353
       2        0.000004044173     0.000019414306     0.000028757901
       3       -0.000004651301    -0.000013362892     0.000004533944
       4       -0.000015928196    -0.000004892915    -0.000020742679
       5        0.000016702240     0.000000088977    -0.000015440140
       6       -0.000000463959    -0.000008464024    -0.000002756802
       7       -0.000002595415     0.000000609123    -0.000005536133
       8        0.001083820384     0.007703807570    -0.003471435006
       9        0.000006891566     0.000002081527     0.000001311035
      10       -0.000001617507    -0.000005798962     0.000001302010
      11       -0.002120540167    -0.006596333841     0.004866594130
      12       -0.000603582864    -0.005454882768     0.002171918951
      13       -0.000001092443    -0.000002479054    -0.000002538225
      14        0.000000212510    -0.000003324658    -0.000001367636
      15        0.001625682122     0.004369686567    -0.003559380541
      16        0.000000848873     0.000004497330     0.000001429913
      17       -0.000006031460     0.000003265747    -0.000002276262
      18        0.000002514614    -0.000004729026    -0.000002910058
      19        0.000004254991    -0.000002117708     0.000003687078
      20       -0.000000876329    -0.000000849894     0.000006275047
      21       -0.000000019108     0.000000077992     0.000000599264
      22        0.000007182132     0.000000027029    -0.000000277437

  **** Optimization is complete! (in 11 steps) ****
    Final optimized geometry and variables:
    Molecular point group: c1

    Geometry (in Angstrom), charge = 0, multiplicity = 1:

    O           -1.545021207979     1.514888648817    -1.632449835095
    C           -1.799616298020     0.713003863231    -0.786033170049
    C           -0.945303101054    -0.529972111249    -0.608320807232
    C           -2.962092337237     0.902144677415     0.163058272546
    C            0.339712199168    -0.204489020970     0.170080782550
    H           -0.687346454681    -0.895673148559    -1.596251928589
    H           -1.504330226719    -1.307189164836    -0.095059221442
    C            1.232354853760    -1.435775413187     0.331042046861
    H            0.863955939096     0.585462729243    -0.355043107397
    H            0.080673604747     0.188521084878     1.151402583716
    C            2.531022185977    -1.250240794929     1.152164730495
    H            1.475572265162    -1.850403950346    -0.644190460537
    H            0.644665448983    -2.215887095163     0.811733412290
    C            3.109547504264     0.169337957633     1.173938738588
    H            3.297483483366    -1.887178477172     0.720766029533
    H            2.372225721786    -1.579573537413     2.174272176245
    H            3.316710067715     0.530485283220     0.170939871566
    H            4.044961161116     0.181245521232     1.724829196215
    H            2.442331839957     0.879368422844     1.650662421784
    H           -3.711790589693     0.137062767329    -0.020822590171
    H           -3.402875992114     1.878618555860     0.018299147044
    H           -2.638847522391     0.792221508990     1.194153821392

  Mulliken Charges: (a.u.)
   Center  Symbol    Alpha    Beta     Spin     Total
       1     O     4.26229  4.26229  0.00000 -0.52458
       2     C     2.73715  2.73715  0.00000  0.52569
       3     C     3.19983  3.19983  0.00000 -0.39965
       4     C     3.28952  3.28952  0.00000 -0.57905
       5     C     3.16461  3.16461  0.00000 -0.32922
       6     H     0.40110  0.40110  0.00000  0.19781
       7     H     0.41688  0.41688  0.00000  0.16623
       8     C     3.15606  3.15606  0.00000 -0.31212
       9     H     0.40313  0.40313  0.00000  0.19375
      10     H     0.42058  0.42058  0.00000  0.15884
      11     C     3.15375  3.15375  0.00000 -0.30750
      12     H     0.41856  0.41856  0.00000  0.16288
      13     H     0.42201  0.42201  0.00000  0.15597
      14     C     3.24401  3.24401  0.00000 -0.48802
      15     H     0.41872  0.41872  0.00000  0.16256
      16     H     0.42033  0.42033  0.00000  0.15933
      17     H     0.41930  0.41930  0.00000  0.16139
      18     H     0.41838  0.41838  0.00000  0.16324
      19     H     0.42002  0.42002  0.00000  0.15995
      20     H     0.40683  0.40683  0.00000  0.18634
      21     H     0.39708  0.39708  0.00000  0.20584
      22     H     0.40984  0.40984  0.00000  0.18032

   Total alpha = 32.00000, Total beta = 32.00000, Total charge =  0.00000
