                              Psi4 1.0.54 Driver

  ==> Input File <==

--------------------------------------------------------------------------
set {
	reference rhf
	basis cc-pvtz
}

set_num_threads( 4 )
memory 2 gb

molecule MOL {
0 1

H	 -3.441263	 -0.179401	 0.125147
O	 -2.657622	 -0.705875	 0.075665
C	 -1.604054	 0.105859	 0.079937
C	 -0.310616	 -0.658853	 0.000791
O	 -1.716064	 1.281531	 0.136678
C	 0.926581	 0.227233	 0.000178
H	 -0.356966	 -1.272737	 -0.892924
H	 -0.298720	 -1.352898	 0.834984
C	 2.220156	 -0.582071	 -0.000088
H	 0.899945	 0.878221	 -0.866390
H	 0.900542	 0.878581	 0.866486
C	 3.466689	 0.296012	 -0.000457
H	 2.239073	 -1.234095	 -0.869382
H	 2.239505	 -1.233985	 0.869270
H	 3.493549	 0.935857	 -0.875887
H	 4.368821	 -0.304526	 -0.001199
H	 3.494559	 0.935166	 0.875458

	symmetry c1
}
set optking {
	frozen_dihedral = ("
		7 4 6 10
	")
}

ee,wfn = optimize('scf', return_wfn=True)
oeprop( wfn, 'DIPOLE', 'QUADRUPOLE', 'MULLIKEN_CHARGES')
f=open( 'psi4out.xyz', 'w' )
f.write( "17  " )
f.write( str(ee) + "\n" )
f.write( MOL.save_string_xyz() )
f.close()
--------------------------------------------------------------------------

    Molecular point group: c1
  Charge       = 0
  Multiplicity = 1
  Basis Set: CC-PVTZ
  Basis Set:
  @DF-RHF Final Energy:  -345.04889370547227
    Total Energy =                       -345.0488937054722669
    Molecular point group: c1
  Basis Set: CC-PVTZ
  Basis Set:
  Basis Set: CC-PVTZ
  Basis Set:
  @DF-RHF Final Energy:  -345.04884563249709
    Total Energy =                       -345.0488456324970912
  Basis Set: CC-PVTZ
  Basis Set:
  Basis Set: CC-PVTZ
  Basis Set:
  @DF-RHF Final Energy:  -345.04889367261660
    Total Energy =                       -345.0488936726165434
  Basis Set: CC-PVTZ
  Basis Set:
  Basis Set: CC-PVTZ
  Basis Set:
  @DF-RHF Final Energy:  -345.04890025012560
    Total Energy =                       -345.0489002501252571
  Basis Set: CC-PVTZ
  Basis Set:
  Charge       = 0
  Multiplicity = 1
  Basis Set: CC-PVTZ
  Basis Set:

    Orbital Energies (a.u.)
    -----------------------

    Doubly Occupied:

       1A    -20.604126     2A    -20.540714     3A    -11.373668
       4A    -11.239433     5A    -11.221318     6A    -11.220668
       7A    -11.210687     8A     -1.477704     9A     -1.369221
      10A     -1.092923    11A     -1.019854    12A     -0.914924
      13A     -0.824927    14A     -0.790982    15A     -0.703938
      16A     -0.688027    17A     -0.672359    18A     -0.631437
      19A     -0.593293    20A     -0.585339    21A     -0.574870
      22A     -0.538575    23A     -0.509470    24A     -0.484785
      25A     -0.483009    26A     -0.478280    27A     -0.472759
      28A     -0.446244

  @DF-RHF Final Energy:  -345.04890027949602

   => Energetics <=

    Nuclear Repulsion Energy =            304.8020531027497100
    One-Electron Energy =               -1074.1748414026194496
    Two-Electron Energy =                 424.3238880203737153
    DFT Exchange-Correlation Energy =       0.0000000000000000
    Empirical Dispersion Energy =           0.0000000000000000
    PCM Polarization Energy =               0.0000000000000000
    EFP Energy =                            0.0000000000000000
    Total Energy =                       -345.0489002794960243
    Molecular point group: c1
  Basis Set: CC-PVTZ
  Basis Set:

  -Total Gradient:
     Atom            X                  Y                   Z
    ------   -----------------  -----------------  -----------------
       1        0.000003928903    -0.000001170605     0.000001364535
       2       -0.000005228459     0.000003526262    -0.000005535104
       3        0.000006396247     0.000004683572     0.000022117957
       4        0.000418559815    -0.000580994925     0.000235709778
       5       -0.000007602464    -0.000000869454    -0.000002220238
       6       -0.000405749447     0.000562972149     0.000263704742
       7       -0.000280985026     0.000390509713    -0.000259860855
       8        0.000006250756     0.000004076361    -0.000006184935
       9       -0.000001067963    -0.000002366714     0.000046516240
      10        0.000259176677    -0.000372727099    -0.000287303697
      11        0.000001643792    -0.000004782823    -0.000002505953
      12        0.000001692304     0.000000003938    -0.000012224091
      13       -0.000005764528     0.000007213844     0.000005608024
      14        0.000011685700    -0.000008706731     0.000005229999
      15       -0.000000253932     0.000005194033     0.000000587507
      16       -0.000001505924    -0.000000753930    -0.000005520005
      17       -0.000001176456    -0.000005807588     0.000000516094

  **** Optimization is complete! (in 5 steps) ****
    Final optimized geometry and variables:
    Molecular point group: c1

    Geometry (in Angstrom), charge = 0, multiplicity = 1:

    H           -3.441958263763    -0.178276010713     0.071520843759
    O           -2.658305805765    -0.705063732751     0.025505001766
    C           -1.604733753691     0.106750902987     0.033995357975
    C           -0.310852808513    -0.658358350397    -0.037540835036
    O           -1.717134589095     1.282353286484     0.091286881791
    C            0.925757443543     0.228632724391    -0.033293230282
    H           -0.354644760330    -1.269765706084    -0.933016523389
    H           -0.303554374520    -1.352103437934     0.796803825825
    C            2.219443377632    -0.580872340390    -0.040459958300
    H            0.899850671580     0.881678465316    -0.898501479033
    H            0.900820077717     0.875382652641     0.836089509379
    C            3.465935719008     0.297190007974    -0.048295735671
    H            2.233661892637    -1.233468753722    -0.909433248780
    H            2.243522107500    -1.232130038760     0.829237526576
    H            3.488454413187     0.935907489320    -0.924687133365
    H            4.368061912674    -0.303346141578    -0.052788843604
    H            3.498091405083     0.937478963874     0.826634596880

  Mulliken Charges: (a.u.)
   Center  Symbol    Alpha    Beta     Spin     Total
       1     H     0.38244  0.38244  0.00000  0.23513
       2     O     4.15979  4.15979  0.00000 -0.31958
       3     C     2.80473  2.80473  0.00000  0.39054
       4     C     3.11090  3.11090  0.00000 -0.22181
       5     O     4.19112  4.19112  0.00000 -0.38223
       6     C     3.08201  3.08201  0.00000 -0.16401
       7     H     0.43791  0.43791  0.00000  0.12418
       8     H     0.43832  0.43832  0.00000  0.12337
       9     C     3.08608  3.08608  0.00000 -0.17216
      10     H     0.44702  0.44702  0.00000  0.10596
      11     H     0.44540  0.44540  0.00000  0.10920
      12     C     3.14924  3.14924  0.00000 -0.29848
      13     H     0.45496  0.45496  0.00000  0.09009
      14     H     0.45474  0.45474  0.00000  0.09051
      15     H     0.45375  0.45375  0.00000  0.09250
      16     H     0.44801  0.44801  0.00000  0.10398
      17     H     0.45359  0.45359  0.00000  0.09281

   Total alpha = 28.00000, Total beta = 28.00000, Total charge = -0.00000

*** Psi4 exiting successfully. Buy a developer a beer!
