                              Psi4 1.0.54 Driver

  ==> Input File <==

--------------------------------------------------------------------------
set {
	reference rhf
	basis cc-pvtz
}

set_num_threads( 4 )
memory 2 gb

molecule MOL {
0 1

H	 2.955835	 1.524441	 1.419624
N	 2.127094	 0.970395	 1.376739
C	 1.860978	 0.530248	 0.016256
H	 1.378127	 1.533621	 1.721955
C	 0.644130	 -0.381765	 -0.031064
H	 2.731268	 -0.016244	 -0.331378
H	 1.714882	 1.359670	 -0.677047
C	 -0.678115	 0.376691	 0.025731
H	 0.693998	 -0.977147	 -0.936845
H	 0.693309	 -1.082142	 0.800523
C	 -1.900706	 -0.535531	 -0.022488
H	 -0.725296	 1.079516	 -0.802982
H	 -0.715474	 0.974884	 0.933278
C	 -3.220513	 0.226854	 0.028039
H	 -1.865036	 -1.134397	 -0.928236
H	 -1.857948	 -1.236381	 0.806820
H	 -3.309098	 0.911849	 -0.808725
H	 -4.066838	 -0.449485	 -0.008086
H	 -3.301685	 0.809374	 0.939860

	symmetry c1
}
set optking {
	frozen_dihedral = ("
		6 3 5 9
	")
}

ee,wfn = optimize('scf', return_wfn=True)
oeprop( wfn, 'DIPOLE', 'QUADRUPOLE', 'MULLIKEN_CHARGES')
f=open( 'psi4out.xyz', 'w' )
f.write( "19  " )
f.write( str(ee) + "\n" )
f.write( MOL.save_string_xyz() )
f.close()
--------------------------------------------------------------------------

    Molecular point group: c1
  Charge       = 0
  Multiplicity = 1
  Basis Set: CC-PVTZ
  Basis Set:
  @DF-RHF Final Energy:  -251.44611630608492
    Total Energy =                       -251.4461163060848321
    Molecular point group: c1
  Basis Set: CC-PVTZ
  Basis Set:
  Basis Set: CC-PVTZ
  Basis Set:
  @DF-RHF Final Energy:  -251.44633667670570
    Total Energy =                       -251.4463366767056982
  Basis Set: CC-PVTZ
  Basis Set:
  Basis Set: CC-PVTZ
  Basis Set:
  @DF-RHF Final Energy:  -251.44638027373159
    Total Energy =                       -251.4463802737313358
  Basis Set: CC-PVTZ
  Basis Set:
  Basis Set: CC-PVTZ
  Basis Set:
  @DF-RHF Final Energy:  -251.44638265871870
    Total Energy =                       -251.4463826587187327
  Basis Set: CC-PVTZ
  Basis Set:
  Charge       = 0
  Multiplicity = 1
  Basis Set: CC-PVTZ
  Basis Set:

    Orbital Energies (a.u.)
    -----------------------

    Doubly Occupied:

       1A    -15.526597     2A    -11.238154     3A    -11.212134
       4A    -11.211131     5A    -11.207104     6A    -11.205889
       7A     -1.178228     8A     -1.073242     9A     -0.998710
      10A     -0.906456    11A     -0.814559    12A     -0.783629
      13A     -0.666672    14A     -0.648753    15A     -0.614742
      16A     -0.588646    17A     -0.560240    18A     -0.550374
      19A     -0.533849    20A     -0.501329    21A     -0.486919
      22A     -0.464348    23A     -0.462012    24A     -0.445403
      25A     -0.383456

  @DF-RHF Final Energy:  -251.44638334823318

   => Energetics <=

    Nuclear Repulsion Energy =            248.8350325063888988
    One-Electron Energy =                -832.0376737697828275
    Two-Electron Energy =                 331.7562579151607451
    DFT Exchange-Correlation Energy =       0.0000000000000000
    Empirical Dispersion Energy =           0.0000000000000000
    PCM Polarization Energy =               0.0000000000000000
    EFP Energy =                            0.0000000000000000
    Total Energy =                       -251.4463833482332120
    Molecular point group: c1
  Basis Set: CC-PVTZ
  Basis Set:

  -Total Gradient:
     Atom            X                  Y                   Z
    ------   -----------------  -----------------  -----------------
       1        0.000076536130     0.000057869047     0.000050359873
       2        0.000022502208    -0.000086657050    -0.000087468517
       3        0.000952629191    -0.001623564092     0.003707880568
       4       -0.000069959721     0.000042610080     0.000009608541
       5       -0.001954959798     0.002848827147    -0.002384102395
       6       -0.000542629260     0.000865913728    -0.002721161370
       7        0.000002571718     0.000047078620    -0.000014591820
       8        0.000100466225    -0.000040999727     0.000005896956
       9        0.001457491516    -0.002098081995     0.001379915693
      10       -0.000008507228    -0.000014175075     0.000032181649
      11        0.000004668093    -0.000019695832     0.000013770430
      12        0.000002670905     0.000009558253     0.000007554002
      13       -0.000004070463     0.000000766794     0.000005779755
      14       -0.000033490884    -0.000005811019    -0.000017173276
      15        0.000004059325     0.000007315456     0.000010673780
      16        0.000009950011     0.000006870957     0.000005279520
      17       -0.000001269031     0.000003566328     0.000000814500
      18       -0.000021304749     0.000004530285    -0.000004673922
      19        0.000002645810    -0.000005921906    -0.000000543967

  **** Optimization is complete! (in 5 steps) ****
    Final optimized geometry and variables:
    Molecular point group: c1

    Geometry (in Angstrom), charge = 0, multiplicity = 1:

    H            3.200367987676     1.267652491950     1.119066182382
    N            2.338626356013     0.764863368567     1.095608882526
    C            2.045241277453     0.303292111720    -0.252877301721
    H            1.631585006288     1.386995292405     1.425957332270
    C            0.810885642847    -0.592009185011    -0.294922699598
    H            2.899616693283    -0.258016549320    -0.612400145568
    H            1.910537883289     1.125226357119    -0.958981853146
    C           -0.516551239244     0.156130614726    -0.209847824172
    H            0.840700365618    -1.184336469694    -1.205394815620
    H            0.882879654382    -1.298851711207     0.526149507982
    C           -1.730752024529    -0.767553432808    -0.254069486442
    H           -0.580183193104     0.870583970171    -1.027582011437
    H           -0.553928287877     0.737838127576     0.708121727566
    C           -3.057858079614    -0.020367350206    -0.174957532921
    H           -1.701125811889    -1.352838430319    -1.169102243916
    H           -1.668295697398    -1.479235371303     0.564268685530
    H           -3.164748356705     0.676632175764    -0.999651352251
    H           -3.897340749803    -0.705235797111    -0.210748598291
    H           -3.133525914797     0.546628391249     0.747058094524

  Mulliken Charges: (a.u.)
   Center  Symbol    Alpha    Beta     Spin     Total
       1     H     0.42933  0.42933  0.00000  0.14133
       2     N     3.68777  3.68777  0.00000 -0.37555
       3     C     3.03734  3.03734  0.00000 -0.07467
       4     H     0.43084  0.43084  0.00000  0.13832
       5     C     3.09011  3.09011  0.00000 -0.18023
       6     H     0.45168  0.45168  0.00000  0.09665
       7     H     0.46694  0.46694  0.00000  0.06613
       8     C     3.08710  3.08710  0.00000 -0.17419
       9     H     0.45299  0.45299  0.00000  0.09402
      10     H     0.45068  0.45068  0.00000  0.09865
      11     C     3.08392  3.08392  0.00000 -0.16785
      12     H     0.45586  0.45586  0.00000  0.08827
      13     H     0.45848  0.45848  0.00000  0.08305
      14     C     3.14989  3.14989  0.00000 -0.29978
      15     H     0.45463  0.45463  0.00000  0.09074
      16     H     0.45292  0.45292  0.00000  0.09417
      17     H     0.45563  0.45563  0.00000  0.08874
      18     H     0.44838  0.44838  0.00000  0.10325
      19     H     0.45552  0.45552  0.00000  0.08896

   Total alpha = 25.00000, Total beta = 25.00000, Total charge = -0.00000

*** Psi4 exiting successfully. Buy a developer a beer!
