                              Psi4 1.0.54 Driver

  ==> Input File <==

--------------------------------------------------------------------------
set {
	reference rhf
	basis cc-pvtz
}

set_num_threads( 4 )
memory 2 gb

molecule MOL {
0 1

O	 -0.694481	 1.313155	 -0.204815
C	 -0.862519	 0.151932	 -0.046791
C	 -2.171428	 -0.477048	 0.339095
O	 0.085519	 -0.757083	 -0.192238
H	 -2.467997	 -1.191667	 -0.417688
H	 -2.923379	 0.287970	 0.444097
H	 -2.053854	 -1.015120	 1.270901
C	 1.392036	 -0.330828	 -0.560749
C	 2.427161	 -1.403785	 -0.293957
H	 1.630810	 0.579545	 -0.033470
H	 1.322514	 -0.117645	 -1.616907
H	 3.396000	 -1.069716	 -0.647796
H	 2.505063	 -1.611045	 0.764512
H	 2.172005	 -2.319330	 -0.813829

	symmetry c1
}
set optking {
	frozen_dihedral = ("
		10 8 4 2
	")
}

ee,wfn = optimize('scf', return_wfn=True)
oeprop( wfn, 'DIPOLE', 'QUADRUPOLE', 'MULLIKEN_CHARGES')
f=open( 'psi4out.xyz', 'w' )
f.write( "14  " )
f.write( str(ee) + "\n" )
f.write( MOL.save_string_xyz() )
f.close()
--------------------------------------------------------------------------

    Molecular point group: c1
  Charge       = 0
  Multiplicity = 1
  Basis Set: CC-PVTZ
  Basis Set:
  @DF-RHF Final Energy:  -305.99040566081499
    Total Energy =                       -305.9904056608149858
    Molecular point group: c1
  Basis Set: CC-PVTZ
  Basis Set:
  Basis Set: CC-PVTZ
  Basis Set:
  @DF-RHF Final Energy:  -305.99143249872895
    Total Energy =                       -305.9914324987289547
  Basis Set: CC-PVTZ
  Basis Set:
  Basis Set: CC-PVTZ
  Basis Set:
  @DF-RHF Final Energy:  -305.99157600900458
    Total Energy =                       -305.9915760090046888
  Basis Set: CC-PVTZ
  Basis Set:
  Basis Set: CC-PVTZ
  Basis Set:
  @DF-RHF Final Energy:  -305.99143327046772
    Total Energy =                       -305.9914332704678941
  Basis Set: CC-PVTZ
  Basis Set:
  Basis Set: CC-PVTZ
  Basis Set:
  @DF-RHF Final Energy:  -305.99165940789618
    Total Energy =                       -305.9916594078960088
  Basis Set: CC-PVTZ
  Basis Set:
  Charge       = 0
  Multiplicity = 1
  Basis Set: CC-PVTZ
  Basis Set:

    Orbital Energies (a.u.)
    -----------------------

    Doubly Occupied:

       1A    -20.594787     2A    -20.532914     3A    -11.367320
       4A    -11.283049     5A    -11.231639     6A    -11.221148
       7A     -1.471062     8A     -1.365784     9A     -1.059026
      10A     -1.001098    11A     -0.872985    12A     -0.781899
      13A     -0.694880    14A     -0.689040    15A     -0.668901
      16A     -0.612139    17A     -0.581767    18A     -0.564980
      19A     -0.555495    20A     -0.540903    21A     -0.511865
      22A     -0.502996    23A     -0.456395    24A     -0.442196

  @DF-RHF Final Energy:  -305.99166099419415

   => Energetics <=

    Nuclear Repulsion Energy =            246.0641358543633714
    One-Electron Energy =                -904.9030539876582679
    Two-Electron Energy =                 352.8472571391006909
    DFT Exchange-Correlation Energy =       0.0000000000000000
    Empirical Dispersion Energy =           0.0000000000000000
    PCM Polarization Energy =               0.0000000000000000
    EFP Energy =                            0.0000000000000000
    Total Energy =                       -305.9916609941942056
    Molecular point group: c1
  Basis Set: CC-PVTZ
  Basis Set:

  -Total Gradient:
     Atom            X                  Y                   Z
    ------   -----------------  -----------------  -----------------
       1        0.000009624851     0.000142696586    -0.000016971372
       2        0.000339988395    -0.000159073056     0.001276818344
       3        0.000014614810     0.000038886561    -0.000000437206
       4       -0.000646445455     0.000107557384    -0.002093781387
       5        0.000007830680     0.000010292219     0.000001469219
       6        0.000022230757    -0.000009281619    -0.000007133453
       7        0.000004629808     0.000006073358    -0.000008343238
       8        0.000898079048    -0.000923164612     0.001945271480
       9       -0.000037493908    -0.000020233021     0.000002143392
      10       -0.000598944795     0.000798477178    -0.001112979036
      11       -0.000007246114    -0.000015128509     0.000018743798
      12       -0.000010352803     0.000014217780    -0.000002506178
      13        0.000002008909    -0.000000290991    -0.000006409498
      14        0.000001475815     0.000008970738     0.000004115134

  **** Optimization is complete! (in 6 steps) ****
    Final optimized geometry and variables:
    Molecular point group: c1

    Geometry (in Angstrom), charge = 0, multiplicity = 1:

    O           -0.740393009870     1.559998913372    -0.061714630945
    C           -0.892198078924     0.398862704058     0.110915545449
    C           -2.184035241267    -0.241641662284     0.532959878538
    O            0.063890473550    -0.498874254253    -0.048950957089
    H           -2.490364300885    -0.964949215841    -0.211649611020
    H           -2.941869444301     0.515811396025     0.649212238337
    H           -2.039183706362    -0.771413772983     1.465593038877
    C            1.360165209190    -0.046636934838    -0.417765027962
    C            2.344404048712    -1.151717992927    -0.114609121437
    H            1.587685776601     0.860686918096     0.119791027968
    H            1.352430867883     0.193127625215    -1.473283228718
    H            3.341184608358    -0.843439223749    -0.407270446382
    H            2.353224433589    -1.380200007610     0.943777612952
    H            2.091989576185    -2.053839281289    -0.657454016406

  Mulliken Charges: (a.u.)
   Center  Symbol    Alpha    Beta     Spin     Total
       1     O     4.19774  4.19774  0.00000 -0.39547
       2     C     2.80613  2.80613  0.00000  0.38774
       3     C     3.13854  3.13854  0.00000 -0.27707
       4     O     4.15299  4.15299  0.00000 -0.30599
       5     H     0.44559  0.44559  0.00000  0.10883
       6     H     0.43804  0.43804  0.00000  0.12393
       7     H     0.44618  0.44618  0.00000  0.10764
       8     C     2.97947  2.97947  0.00000  0.04107
       9     C     3.13249  3.13249  0.00000 -0.26498
      10     H     0.44913  0.44913  0.00000  0.10173
      11     H     0.45632  0.45632  0.00000  0.08737
      12     H     0.45442  0.45442  0.00000  0.09116
      13     H     0.45171  0.45171  0.00000  0.09659
      14     H     0.45127  0.45127  0.00000  0.09747

   Total alpha = 24.00000, Total beta = 24.00000, Total charge = -0.00000

*** Psi4 exiting successfully. Buy a developer a beer!
