                              Psi4 1.0.54 Driver

  ==> Input File <==

--------------------------------------------------------------------------
set {
	reference rhf
	basis cc-pvtz
}

set_num_threads( 4 )
memory 2 gb

molecule MOL {
0 1

H	 -3.378233	 -2.491902	 1.995408
C	 -2.967127	 -1.669059	 1.447477
C	 -1.772399	 -1.778084	 0.920138
H	 -3.548407	 -0.774045	 1.343257
O	 -1.189946	 -0.765863	 0.237511
H	 -1.184721	 -2.673328	 1.011241
C	 0.026572	 -0.995256	 -0.379403
C	 1.057223	 0.049888	 -0.004615
H	 -0.054361	 -1.010670	 -1.459674
H	 0.397526	 -1.952058	 -0.044198
F	 2.203233	 -0.234060	 -0.590375
F	 0.698147	 1.254887	 -0.392621
F	 1.266440	 0.094219	 1.288722

	symmetry c1
}
set optking {
	frozen_dihedral = ("
		3 5 7 9
	")
}

ee,wfn = optimize('scf', return_wfn=True)
oeprop( wfn, 'DIPOLE', 'QUADRUPOLE', 'MULLIKEN_CHARGES')
f=open( 'psi4out.xyz', 'w' )
f.write( "13  " )
f.write( str(ee) + "\n" )
f.write( MOL.save_string_xyz() )
f.close()
--------------------------------------------------------------------------

    Molecular point group: c1
  Charge       = 0
  Multiplicity = 1
  Basis Set: CC-PVTZ
  Basis Set:
  @DF-RHF Final Energy:  -527.73995765035579
    Total Energy =                       -527.7399576503556773
    Molecular point group: c1
  Basis Set: CC-PVTZ
  Basis Set:
  Basis Set: CC-PVTZ
  Basis Set:
  @DF-RHF Final Energy:  -527.74071063344911
    Total Energy =                       -527.7407106334494529
  Basis Set: CC-PVTZ
  Basis Set:
  Basis Set: CC-PVTZ
  Basis Set:
  @DF-RHF Final Energy:  -527.74117124256634
    Total Energy =                       -527.7411712425659971
  Basis Set: CC-PVTZ
  Basis Set:
  Basis Set: CC-PVTZ
  Basis Set:
  @DF-RHF Final Energy:  -527.74120103903647
    Total Energy =                       -527.7412010390366959
  Basis Set: CC-PVTZ
  Basis Set:
  Basis Set: CC-PVTZ
  Basis Set:
  @DF-RHF Final Energy:  -527.74122268829478
    Total Energy =                       -527.7412226882947834
  Basis Set: CC-PVTZ
  Basis Set:
  Basis Set: CC-PVTZ
  Basis Set:
  @DF-RHF Final Energy:  -527.74123940180164
    Total Energy =                       -527.7412394018014083
  Basis Set: CC-PVTZ
  Basis Set:
  Basis Set: CC-PVTZ
  Basis Set:
  @DF-RHF Final Energy:  -527.74124418412953
    Total Energy =                       -527.7412441841296413
  Basis Set: CC-PVTZ
  Basis Set:
  Charge       = 0
  Multiplicity = 1
  Basis Set: CC-PVTZ
  Basis Set:

    Orbital Energies (a.u.)
    -----------------------

    Doubly Occupied:

       1A    -26.340288     2A    -26.337585     3A    -26.336549
       4A    -20.603440     5A    -11.497352     6A    -11.320171
       7A    -11.301052     8A    -11.216374     9A     -1.748785
      10A     -1.645064    11A     -1.643571    12A     -1.445099
      13A     -1.090845    14A     -1.019916    15A     -0.930659
      16A     -0.844287    17A     -0.838460    18A     -0.815540
      19A     -0.805741    20A     -0.730008    21A     -0.719088
      22A     -0.705994    23A     -0.683423    24A     -0.665441
      25A     -0.660214    26A     -0.648898    27A     -0.638305
      28A     -0.589849    29A     -0.565109    30A     -0.531624
      31A     -0.515732    32A     -0.359102

  @DF-RHF Final Energy:  -527.74124538260776

   => Energetics <=

    Nuclear Repulsion Energy =            408.9478722172943321
    One-Electron Energy =               -1541.7911050901807357
    Two-Electron Energy =                 605.1019874902787024
    DFT Exchange-Correlation Energy =       0.0000000000000000
    Empirical Dispersion Energy =           0.0000000000000000
    PCM Polarization Energy =               0.0000000000000000
    EFP Energy =                            0.0000000000000000
    Total Energy =                       -527.7412453826076444
    Molecular point group: c1
  Basis Set: CC-PVTZ
  Basis Set:

  -Total Gradient:
     Atom            X                  Y                   Z
    ------   -----------------  -----------------  -----------------
       1       -0.000023393087    -0.000029656013    -0.000017795964
       2       -0.000034215925    -0.000022664328     0.000026864085
       3        0.000102460749     0.000081649625     0.000145301496
       4        0.000006713901    -0.000006233619    -0.000003133743
       5       -0.000079153373     0.000049722552    -0.000183152263
       6       -0.000030546474    -0.000036450887    -0.000011684240
       7        0.000017289395    -0.000135489838     0.000051608514
       8       -0.000116792719    -0.000053582741    -0.000084969603
       9        0.000014496122     0.000101484632     0.000017649477
      10        0.000021766851    -0.000004471789    -0.000008060409
      11        0.000051338107     0.000015084978    -0.000033833650
      12        0.000048265471     0.000001852265     0.000035338226
      13        0.000021770974     0.000038755161     0.000065868072

  **** Optimization is complete! (in 8 steps) ****
    Final optimized geometry and variables:
    Molecular point group: c1

    Geometry (in Angstrom), charge = 0, multiplicity = 1:

    H           -3.517333503987    -2.099795989164     1.557286978561
    C           -3.087575454825    -1.265166652383     1.042215808261
    C           -1.841950864777    -1.327941074974     0.638652655681
    H           -3.686905161930    -0.390513144953     0.882491856410
    O           -1.227225024975    -0.295870761469     0.022554028070
    H           -1.232663799409    -2.200012590659     0.796451943864
    C           -0.065761812041    -0.543720549263    -0.689279797866
    C            0.992199395093     0.459298454213    -0.288309730554
    H           -0.241475453639    -0.437186159651    -1.752136266980
    H            0.333739749475    -1.531342078401    -0.497535284697
    F            2.088826563704     0.240606609504    -0.987115225880
    F            0.613865342378     1.694424436932    -0.512726711199
    F            1.301663547682     0.358516500724     0.984305133862

  Mulliken Charges: (a.u.)
   Center  Symbol    Alpha    Beta     Spin     Total
       1     H     0.42486  0.42486  0.00000  0.15027
       2     C     3.19618  3.19618  0.00000 -0.39237
       3     C     2.96474  2.96474  0.00000  0.07052
       4     H     0.42392  0.42392  0.00000  0.15216
       5     O     4.14287  4.14287  0.00000 -0.28575
       6     H     0.43516  0.43516  0.00000  0.12969
       7     C     3.00458  3.00458  0.00000 -0.00915
       8     C     2.67499  2.67499  0.00000  0.65002
       9     H     0.44573  0.44573  0.00000  0.10853
      10     H     0.45855  0.45855  0.00000  0.08291
      11     F     4.61273  4.61273  0.00000 -0.22546
      12     F     4.60654  4.60654  0.00000 -0.21309
      13     F     4.60914  4.60914  0.00000 -0.21829

   Total alpha = 32.00000, Total beta = 32.00000, Total charge =  0.00000

*** Psi4 exiting successfully. Buy a developer a beer!
