                              Psi4 1.0.54 Driver

  ==> Input File <==

--------------------------------------------------------------------------
set {
	reference rhf
	basis cc-pvtz
}

set_num_threads( 4 )
memory 2 gb

molecule MOL {
0 1

H	 2.614283	 2.028610	 0.296620
O	 3.358864	 1.662087	 -0.142800
C	 3.565468	 0.338079	 0.273842
C	 3.030031	 -0.696288	 -0.704973
H	 4.636502	 0.223014	 0.371948
H	 3.132751	 0.178575	 1.259624
C	 1.510804	 -0.686711	 -0.858944
H	 3.496708	 -0.531281	 -1.671483
H	 3.350685	 -1.677383	 -0.362874
C	 1.007675	 -1.759542	 -1.823689
H	 1.191757	 0.290182	 -1.206637
H	 1.049113	 -0.838378	 0.115287
C	 -0.513694	 -1.844185	 -1.959798
H	 1.446854	 -1.592144	 -2.804162
H	 1.376494	 -2.725070	 -1.488730
C	 -1.171964	 -0.634722	 -2.621328
H	 -0.755141	 -2.729734	 -2.541205
H	 -0.953382	 -2.000207	 -0.977206
C	 -2.674905	 -0.809195	 -2.824153
H	 -0.700167	 -0.452810	 -3.584543
H	 -1.000448	 0.256589	 -2.025383
C	 -3.335932	 0.398065	 -3.481007
H	 -2.854823	 -1.692339	 -3.431001
H	 -3.146657	 -0.999445	 -1.863780
H	 -2.907788	 0.595142	 -4.458294
H	 -4.400318	 0.240287	 -3.612520
H	 -3.206402	 1.291471	 -2.879010

	symmetry c1
}
set optking {
	frozen_dihedral = ("
		4 3 2 1
	")
}

ee,wfn = optimize('scf', return_wfn=True)
oeprop( wfn, 'DIPOLE', 'QUADRUPOLE', 'MULLIKEN_CHARGES')
f=open( 'psi4out.xyz', 'w' )
f.write( "27  " )
f.write( str(ee) + "\n" )
f.write( MOL.save_string_xyz() )
f.close()
--------------------------------------------------------------------------

    Molecular point group: c1
  Charge       = 0
  Multiplicity = 1
  Basis Set: CC-PVTZ
  Basis Set:
  @DF-RHF Final Energy:  -388.42711285945876
    Total Energy =                       -388.4271128594584752
    Molecular point group: c1
  Basis Set: CC-PVTZ
  Basis Set:
  Basis Set: CC-PVTZ
  Basis Set:
  @DF-RHF Final Energy:  -388.42720989477868
    Total Energy =                       -388.4272098947787981
  Basis Set: CC-PVTZ
  Basis Set:
  Basis Set: CC-PVTZ
  Basis Set:
  @DF-RHF Final Energy:  -388.42726087469214
    Total Energy =                       -388.4272608746925926
  Basis Set: CC-PVTZ
  Basis Set:
  Charge       = 0
  Multiplicity = 1
  Basis Set: CC-PVTZ
  Basis Set:

    Orbital Energies (a.u.)
    -----------------------

    Doubly Occupied:

       1A    -20.545491     2A    -11.265723     3A    -11.212088
       4A    -11.211826     5A    -11.211304     6A    -11.210713
       7A    -11.210550     8A    -11.209387     9A    -11.205756
      10A     -1.362929    11A     -1.093531    12A     -1.060506
      13A     -1.011216    14A     -0.947552    15A     -0.885757
      16A     -0.817059    17A     -0.799010    18A     -0.775360
      19A     -0.704206    20A     -0.649707    21A     -0.634048
      22A     -0.619555    23A     -0.594348    24A     -0.582452
      25A     -0.580180    26A     -0.548958    27A     -0.540845
      28A     -0.529291    29A     -0.506672    30A     -0.488544
      31A     -0.482663    32A     -0.472502    33A     -0.467609
      34A     -0.459432    35A     -0.453869    36A     -0.442018
      37A     -0.421971

  @DF-RHF Final Energy:  -388.42726021032644

   => Energetics <=

    Nuclear Repulsion Energy =            460.4323657685750391
    One-Electron Energy =               -1439.2899900287848141
    Two-Electron Energy =                 590.4303640498825416
    DFT Exchange-Correlation Energy =       0.0000000000000000
    Empirical Dispersion Energy =           0.0000000000000000
    PCM Polarization Energy =               0.0000000000000000
    EFP Energy =                            0.0000000000000000
    Total Energy =                       -388.4272602103272902
    Molecular point group: c1
  Basis Set: CC-PVTZ
  Basis Set:

  -Total Gradient:
     Atom            X                  Y                   Z
    ------   -----------------  -----------------  -----------------
       1        0.000628976508     0.000217954321     0.000583520231
       2       -0.000541016265    -0.000405604527    -0.000806268118
       3       -0.000566767289     0.000096346864     0.000483620824
       4        0.000432093372     0.000021446549    -0.000225069654
       5       -0.000009777342     0.000059706813     0.000021682998
       6        0.000059212855     0.000028839142    -0.000141917822
       7       -0.000045767885    -0.000036800737    -0.000019990333
       8       -0.000018924952    -0.000002300427     0.000117772785
       9       -0.000015447911     0.000014588401    -0.000030171057
      10       -0.000004503148    -0.000023625137     0.000020696217
      11       -0.000042072227    -0.000020774190     0.000018582283
      12        0.000039943364    -0.000005015113    -0.000052090311
      13        0.000003755839    -0.000020070405    -0.000080533146
      14       -0.000016414507    -0.000055718797     0.000050075686
      15       -0.000020835214     0.000085884755     0.000037414923
      16        0.000032482430    -0.000006542705     0.000002392642
      17       -0.000007413529     0.000065502560     0.000003360225
      18        0.000042978552    -0.000009325578    -0.000072801138
      19       -0.000017785662     0.000013922022     0.000020131228
      20       -0.000037563585    -0.000029742220     0.000063097194
      21        0.000062863083    -0.000005333025     0.000006105534
      22        0.000011511804     0.000010860374     0.000000189241
      23        0.000011521671     0.000054889620     0.000032093704
      24        0.000023066978     0.000012050220    -0.000055594436
      25       -0.000024022889    -0.000017132575     0.000061338340
      26        0.000017742290     0.000005013675    -0.000003436954
      27        0.000002163667    -0.000049019878    -0.000034201086

  **** Optimization is complete! (in 4 steps) ****
    Final optimized geometry and variables:
    Molecular point group: c1

    Geometry (in Angstrom), charge = 0, multiplicity = 1:

    H            1.968730975744     2.420415475122     1.829961283021
    O            2.726308423752     2.070900520458     1.402033505461
    C            2.977252300114     0.757325372225     1.836689993183
    C            2.473745761315    -0.283625684074     0.850027210188
    H            4.050283518584     0.661245546441     1.947228769032
    H            2.538135294132     0.590058168910     2.816674330742
    C            0.956503119743    -0.302754447036     0.687859410012
    H            2.941730469063    -0.095487217247    -0.111406903652
    H            2.818876493532    -1.259859485771     1.182662386173
    C            0.480931613202    -1.350908716157    -0.316554185210
    H            0.624657243962     0.681317812130     0.378628639683
    H            0.494531580500    -0.500323959565     1.653904108829
    C           -1.037700116288    -1.462353009874    -0.462489146039
    H            0.919488738175    -1.138623702745    -1.288530282144
    H            0.868896033728    -2.320298319085    -0.015892842898
    C           -1.719733380932    -0.236300612944    -1.066498701469
    H           -1.259129380338    -2.323496750521    -1.086875232025
    H           -1.476367086897    -1.674927339424     0.509822077503
    C           -3.219569437510    -0.428647496743    -1.275000434179
    H           -1.253552224962    -0.001752294759    -2.020846063277
    H           -1.562326383018     0.629369454145    -0.430603428470
    C           -3.904222165947     0.795367331560    -1.873826100799
    H           -3.385011590309    -1.285670714125    -1.921973039382
    H           -3.685519388122    -0.671952094953    -0.323915621489
    H           -3.482652137371     1.045027824013    -2.841768311056
    H           -4.966020929997     0.624850534135    -2.010164387439
    H           -3.788579067586     1.662143370241    -1.231609342237

  Mulliken Charges: (a.u.)
   Center  Symbol    Alpha    Beta     Spin     Total
       1     H     0.39069  0.39069  0.00000  0.21861
       2     O     4.20782  4.20782  0.00000 -0.41563
       3     C     2.98421  2.98421  0.00000  0.03159
       4     C     3.08182  3.08182  0.00000 -0.16364
       5     H     0.45082  0.45082  0.00000  0.09837
       6     H     0.46876  0.46876  0.00000  0.06248
       7     C     3.10171  3.10171  0.00000 -0.20342
       8     H     0.45222  0.45222  0.00000  0.09557
       9     H     0.45493  0.45493  0.00000  0.09015
      10     C     3.09861  3.09861  0.00000 -0.19722
      11     H     0.45055  0.45055  0.00000  0.09889
      12     H     0.45734  0.45734  0.00000  0.08533
      13     C     3.09800  3.09800  0.00000 -0.19600
      14     H     0.45206  0.45206  0.00000  0.09588
      15     H     0.44903  0.44903  0.00000  0.10194
      16     C     3.08762  3.08762  0.00000 -0.17525
      17     H     0.44844  0.44844  0.00000  0.10311
      18     H     0.45441  0.45441  0.00000  0.09117
      19     C     3.08400  3.08400  0.00000 -0.16800
      20     H     0.45421  0.45421  0.00000  0.09159
      21     H     0.45476  0.45476  0.00000  0.09048
      22     C     3.14961  3.14961  0.00000 -0.29921
      23     H     0.45402  0.45402  0.00000  0.09197
      24     H     0.45505  0.45505  0.00000  0.08989
      25     H     0.45486  0.45486  0.00000  0.09027
      26     H     0.44862  0.44862  0.00000  0.10277
      27     H     0.45584  0.45584  0.00000  0.08832

   Total alpha = 37.00000, Total beta = 37.00000, Total charge = -0.00000

*** Psi4 exiting successfully. Buy a developer a beer!
