  ==> Input File <==

--------------------------------------------------------------------------
set {
	reference rhf
	basis 6-31G*
}

set_num_threads( 4 )
memory 2 gb

molecule MOL {
0 1

H	 1.999832	 0.069849	 0.727879
C	 1.138537	 -0.484033	 0.414394
C	 1.131025	 -1.867295	 0.411660
C	 0.000000	 0.183220	 0.000000
H	 2.005206	 -2.404452	 0.729835
C	 0.000000	 -2.555744	 0.000000
N	 0.000000	 1.642018	 0.000000
C	 -1.138537	 -0.484034	 -0.414394
H	 0.000000	 -3.630640	 0.000000
C	 -1.131025	 -1.867295	 -0.411660
O	 1.057097	 2.196749	 0.000000
O	 -1.057097	 2.196749	 0.000000
H	 -1.999832	 0.069849	 -0.727879
H	 -2.005206	 -2.404452	 -0.729835

	symmetry c1
}
set optking {
	frozen_dihedral = ("
		2 4 7 11
	")
}

ee = optimize('scf')
oeprop('DIPOLE', 'QUADRUPOLE', 'MULLIKEN_CHARGES')
f=open( 'psi4out.xyz', 'w' )
f.write( "14  " )
f.write( str(ee) + "\n" )
f.write( MOL.save_string_xyz() )
f.close()
--------------------------------------------------------------------------

    Molecular point group: c1
  Charge       = 0
  Multiplicity = 1
  Basis Set: 6-31G*
  Basis Set:
  @DF-RHF Final Energy:  -434.17353307778859
    Total Energy =                       -434.1735330777883064
    Molecular point group: c1
  Basis Set: 6-31G*
  Basis Set:
  Basis Set: 6-31G*
  Basis Set:
  @DF-RHF Final Energy:  -434.16915898512752
    Total Energy =                       -434.1691589851277513
  Basis Set: 6-31G*
  Basis Set:
  Basis Set: 6-31G*
  Basis Set:
  @DF-RHF Final Energy:  -434.17353044017517
    Total Energy =                       -434.1735304401755684
  Basis Set: 6-31G*
  Basis Set:
  Basis Set: 6-31G*
  Basis Set:
  @DF-RHF Final Energy:  -434.17361125561450
    Total Energy =                       -434.1736112556145599
  Basis Set: 6-31G*
  Basis Set:
  Basis Set: 6-31G*
  Basis Set:
  @DF-RHF Final Energy:  -434.17361138212988
    Total Energy =                       -434.1736113821298204
  Basis Set: 6-31G*
  Basis Set:
  Charge       = 0
  Multiplicity = 1
  Basis Set: 6-31G*
  Basis Set:

    Orbital Energies (a.u.)
    -----------------------

    Doubly Occupied:

       1A    -20.601523     2A    -20.601457     3A    -15.855557
       4A    -11.304090     5A    -11.270966     6A    -11.270890
       7A    -11.267896     8A    -11.261376     9A    -11.261255
      10A     -1.634401    11A     -1.417800    12A     -1.201645
      13A     -1.094668    14A     -1.052800    15A     -0.957980
      16A     -0.865371    17A     -0.825248    18A     -0.783825
      19A     -0.733397    20A     -0.728765    21A     -0.709773
      22A     -0.654015    23A     -0.650041    24A     -0.624498
      25A     -0.553823    26A     -0.536856    27A     -0.529758
      28A     -0.488718    29A     -0.487913    30A     -0.451134
      31A     -0.373297    32A     -0.365752

  @DF-RHF Final Energy:  -434.17361159341743

   => Energetics <=

    Nuclear Repulsion Energy =            417.1639575142557419
    One-Electron Energy =               -1417.8421606568720108
    Two-Electron Energy =                 566.5045915491984942
    DFT Exchange-Correlation Energy =       0.0000000000000000
    Empirical Dispersion Energy =           0.0000000000000000
    PCM Polarization Energy =               0.0000000000000000
    EFP Energy =                            0.0000000000000000
    Total Energy =                       -434.1736115934177178
    Molecular point group: c1
  Basis Set: 6-31G*
  Basis Set:

  -Total Gradient:
     Atom            X                  Y                   Z
    ------   -----------------  -----------------  -----------------
       1       -0.000001340407    -0.000001694200    -0.000000897994
       2       -0.000658801094    -0.000028245808     0.001770457794
       3        0.000004591363     0.000004669777    -0.000004552719
       4        0.000964293917     0.000046081013    -0.003385249051
       5       -0.000000299452    -0.000000318680     0.000000331453
       6       -0.000004774698     0.000000158360    -0.000005169145
       7       -0.000321726262    -0.000042415865     0.003758055500
       8        0.000003827070     0.000003384732    -0.000001542855
       9        0.000000370313     0.000000345811     0.000000639792
      10        0.000000412646    -0.000005291451     0.000010404803
      11        0.000018396780     0.000022918653    -0.002146628799
      12       -0.000005612840     0.000000467439     0.000005097624
      13        0.000000649956    -0.000000951595     0.000000000999
      14        0.000000012709     0.000000891805    -0.000000947403

  **** Optimization is complete! (in 6 steps) ****
    Final optimized geometry and variables:
    Molecular point group: c1

    Geometry (in Angstrom), charge = 0, multiplicity = 1:

    H            2.004322588296     0.072318793240     0.715252124250
    C            1.141047716506    -0.482521490367     0.407528287872
    C            1.130437003988    -1.865887789152     0.413599314072
    C            0.003989300985     0.183281910936    -0.011059862546
    H            2.001618878295    -2.403090348922     0.739699375358
    C           -0.000243316141    -2.554010184706     0.000166577021
    N           -0.000332840014     1.640696988655     0.004947450215
    C           -1.139708941344    -0.482191022724    -0.411808495650
    H           -0.001311373375    -3.628914452130     0.002643145063
    C           -1.130660464086    -1.865553527329    -0.413666785993
    O            1.056285906215     2.196352563357     0.021497359013
    O           -1.059331867670     2.191444510958    -0.015103821426
    H           -2.004972016809     0.072570722929    -0.713808544376
    H           -2.004574527139    -2.402672542595    -0.732526225801

  Mulliken Charges: (a.u.)
   Center  Symbol    Alpha    Beta     Spin     Total
       1     H     0.36583  0.36583  0.00000  0.26834
       2     C     3.08553  3.08553  0.00000 -0.17106
       3     C     3.10827  3.10827  0.00000 -0.21654
       4     C     2.91870  2.91870  0.00000  0.16260
       5     H     0.38848  0.38848  0.00000  0.22305
       6     C     3.08659  3.08659  0.00000 -0.17317
       7     N     3.24551  3.24551  0.00000  0.50898
       8     C     3.08484  3.08484  0.00000 -0.16967
       9     H     0.38898  0.38898  0.00000  0.22203
      10     C     3.10833  3.10833  0.00000 -0.21666
      11     O     4.23201  4.23201  0.00000 -0.46402
      12     O     4.23266  4.23266  0.00000 -0.46532
      13     H     0.36580  0.36580  0.00000  0.26840
      14     H     0.38847  0.38847  0.00000  0.22306

   Total alpha = 32.00000, Total beta = 32.00000, Total charge =  0.00000
