  ==> Input File <==

--------------------------------------------------------------------------
set {
	reference rhf
	basis 6-31G*
}

set_num_threads( 4 )
memory 2 gb

molecule MOL {
0 1

H	 -3.420663	 1.227371	 -1.044276
O	 -3.452007	 0.283848	 -0.965577
C	 -3.181085	 -0.079926	 0.364119
C	 -1.765924	 0.277073	 0.805136
H	 -3.327791	 -1.152017	 0.410903
H	 -3.905698	 0.375695	 1.036898
C	 -0.677594	 -0.417312	 -0.014550
H	 -1.637766	 1.358238	 0.744969
H	 -1.659588	 0.017670	 1.857098
C	 0.738335	 -0.034840	 0.421385
H	 -0.814977	 -0.178223	 -1.064632
H	 -0.802730	 -1.495410	 0.071702
C	 1.822265	 -0.738362	 -0.399735
H	 0.853533	 1.043532	 0.342250
H	 0.871597	 -0.279636	 1.474438
C	 3.258060	 -0.455774	 0.057203
H	 1.718003	 -0.459167	 -1.447053
H	 1.651028	 -1.811884	 -0.354513
C	 3.782571	 -1.409424	 1.132305
H	 3.303281	 0.560427	 0.441366
H	 3.921729	 -0.483218	 -0.804767
H	 3.131289	 -1.412381	 2.002340
H	 4.772580	 -1.110496	 1.463003
H	 3.855613	 -2.429586	 0.770230

	symmetry c1
}
set optking {
	frozen_dihedral = ("
		20 16 13 17
	")
}

ee = optimize('scf')
oeprop('DIPOLE', 'QUADRUPOLE', 'MULLIKEN_CHARGES')
f=open( 'psi4out.xyz', 'w' )
f.write( "24  " )
f.write( str(ee) + "\n" )
f.write( MOL.save_string_xyz() )
f.close()
--------------------------------------------------------------------------

    Molecular point group: c1
  Charge       = 0
  Multiplicity = 1
  Basis Set: 6-31G*
  Basis Set:
  @DF-RHF Final Energy:  -349.24576318195722
    Total Energy =                       -349.2457631819574431
    Molecular point group: c1
  Basis Set: 6-31G*
  Basis Set:
  Basis Set: 6-31G*
  Basis Set:
  @DF-RHF Final Energy:  -349.24604298096682
    Total Energy =                       -349.2460429809666493
  Basis Set: 6-31G*
  Basis Set:
  Basis Set: 6-31G*
  Basis Set:
  @DF-RHF Final Energy:  -349.24606157908119
    Total Energy =                       -349.2460615790816973
  Basis Set: 6-31G*
  Basis Set:
  Basis Set: 6-31G*
  Basis Set:
  @DF-RHF Final Energy:  -349.24607874606113
    Total Energy =                       -349.2460787460611868
  Basis Set: 6-31G*
  Basis Set:
  Basis Set: 6-31G*
  Basis Set:
  @DF-RHF Final Energy:  -349.24608148068404
    Total Energy =                       -349.2460814806844382
  Basis Set: 6-31G*
  Basis Set:
  Charge       = 0
  Multiplicity = 1
  Basis Set: 6-31G*
  Basis Set:

    Orbital Energies (a.u.)
    -----------------------

    Doubly Occupied:

       1A    -20.553644     2A    -11.267789     3A    -11.217611
       4A    -11.213762     5A    -11.213144     6A    -11.211291
       7A    -11.211178     8A    -11.207362     9A     -1.360248
      10A     -1.088337    11A     -1.048171    12A     -0.986431
      13A     -0.913919    14A     -0.846967    15A     -0.799753
      16A     -0.782299    17A     -0.678992    18A     -0.654048
      19A     -0.624626    20A     -0.617552    21A     -0.598941
      22A     -0.584005    23A     -0.557690    24A     -0.537105
      25A     -0.516503    26A     -0.513548    27A     -0.494023
      28A     -0.472168    29A     -0.467704    30A     -0.459773
      31A     -0.456554    32A     -0.451344    33A     -0.418775

  @DF-RHF Final Energy:  -349.24608236882170

   => Energetics <=

    Nuclear Repulsion Energy =            383.3136572132319770
    One-Electron Energy =               -1233.0689684803446653
    Two-Electron Energy =                 500.5092288982914397
    DFT Exchange-Correlation Energy =       0.0000000000000000
    Empirical Dispersion Energy =           0.0000000000000000
    PCM Polarization Energy =               0.0000000000000000
    EFP Energy =                            0.0000000000000000
    Total Energy =                       -349.2460823688212486
    Molecular point group: c1
  Basis Set: 6-31G*
  Basis Set:

  -Total Gradient:
     Atom            X                  Y                   Z
    ------   -----------------  -----------------  -----------------
       1        0.000000418305    -0.000000345475     0.000001278753
       2       -0.000000109075    -0.000004372533    -0.000002727540
       3        0.000001673123     0.000011257945    -0.000001931194
       4        0.000004336665    -0.000000599253    -0.000004186083
       5        0.000002655585     0.000000640853    -0.000001060655
       6       -0.000000876719    -0.000000480081     0.000002464892
       7       -0.000007413634    -0.000002715228    -0.000013193798
       8       -0.000006165640     0.000003061137     0.000001498523
       9        0.000002487384    -0.000000393686     0.000000137211
      10       -0.000003188106    -0.000045634792    -0.000001736685
      11       -0.000009273426     0.000000102541    -0.000003510955
      12        0.000002081918     0.000001043930    -0.000005191875
      13       -0.001300277575     0.003340613915     0.001709806279
      14        0.000006319736    -0.000037001814    -0.000014581045
      15        0.000007681185    -0.000004550425     0.000030667140
      16        0.001082244312     0.000521758672    -0.003664632741
      17        0.000899575689    -0.002877880274    -0.000873293432
      18       -0.000067853315     0.000041294135     0.000036024402
      19        0.000013328245     0.000056470911    -0.000043639168
      20       -0.000640824169    -0.001085027924     0.002891339768
      21        0.000031343632     0.000017017241    -0.000018346923
      22       -0.000036693002     0.000014055949     0.000002385752
      23        0.000005602099     0.000007293773    -0.000015677520
      24        0.000012926786     0.000044390481    -0.000011893103

  **** Optimization is complete! (in 6 steps) ****
    Final optimized geometry and variables:
    Molecular point group: c1

    Geometry (in Angstrom), charge = 0, multiplicity = 1:

    H           -3.417570346744     1.549384995095    -1.196660904909
    O           -3.455982521971     0.605790103008    -1.122495758685
    C           -3.187050144773     0.233622812290     0.205277890382
    C           -1.768868821162     0.577597845798     0.646968015387
    H           -3.341803205696    -0.837456414235     0.246895379698
    H           -3.907699905559     0.691394118248     0.880777360483
    C           -0.686471500096    -0.119531866415    -0.178260194804
    H           -1.632906422114     1.658121215903     0.593191511882
    H           -1.663320073911     0.311008192982     1.697229881205
    C            0.732175972791     0.251971606245     0.256417697286
    H           -0.824340157156     0.125341593702    -1.226938515032
    H           -0.817803082346    -1.197263823508    -0.096870288679
    C            1.815214734731    -0.437500490128    -0.575582830594
    H            0.860962046347     1.330625167888     0.182755480442
    H            0.864432826955     0.001903911080     1.307741224190
    C            3.249625722908    -0.128022703211    -0.113922502962
    H            1.699261205321    -0.166382881167    -1.622356746408
    H            1.657908785668    -1.514535860934    -0.541952478134
    C            3.751233207172    -1.076703696857     0.977573853837
    H            3.293807951511     0.888306393792     0.271329234079
    H            3.928842845097    -0.173976600178    -0.960161470065
    H            3.102351781952    -1.060111907828     1.848528229463
    H            4.749013544734    -0.802700903127     1.306983250190
    H            3.791416755800    -2.100274195758     0.616194608093

  Mulliken Charges: (a.u.)
   Center  Symbol    Alpha    Beta     Spin     Total
       1     H     0.28338  0.28338  0.00000  0.43325
       2     O     4.36828  4.36828  0.00000 -0.73657
       3     C     2.99616  2.99616  0.00000  0.00769
       4     C     3.16910  3.16910  0.00000 -0.33821
       5     H     0.41631  0.41631  0.00000  0.16739
       6     H     0.42813  0.42813  0.00000  0.14373
       7     C     3.15224  3.15224  0.00000 -0.30449
       8     H     0.42819  0.42819  0.00000  0.14361
       9     H     0.42239  0.42239  0.00000  0.15521
      10     C     3.15283  3.15283  0.00000 -0.30566
      11     H     0.41199  0.41199  0.00000  0.17602
      12     H     0.42332  0.42332  0.00000  0.15336
      13     C     3.15424  3.15424  0.00000 -0.30847
      14     H     0.42460  0.42460  0.00000  0.15081
      15     H     0.42423  0.42423  0.00000  0.15154
      16     C     3.15407  3.15407  0.00000 -0.30814
      17     H     0.42069  0.42069  0.00000  0.15863
      18     H     0.42318  0.42318  0.00000  0.15363
      19     C     3.23990  3.23990  0.00000 -0.47979
      20     H     0.42288  0.42288  0.00000  0.15423
      21     H     0.42003  0.42003  0.00000  0.15994
      22     H     0.42201  0.42201  0.00000  0.15599
      23     H     0.42022  0.42022  0.00000  0.15957
      24     H     0.42164  0.42164  0.00000  0.15673

   Total alpha = 33.00000, Total beta = 33.00000, Total charge = -0.00000
