  ==> Input File <==

--------------------------------------------------------------------------
set {
	reference rhf
	basis 6-31G*
}

set_num_threads( 4 )
memory 2 gb

molecule MOL {
0 1

H	 -0.216825	 0.021369	 -3.357402
C	 0.374198	 0.036393	 -2.447010
C	 -0.521757	 -0.028637	 -1.217342
H	 0.969602	 0.942322	 -2.434777
H	 1.053364	 -0.811668	 -2.481329
N	 0.263400	 0.031178	 0.000000
H	 -1.199035	 0.820290	 -1.219355
H	 -1.147901	 -0.924895	 -1.265384
C	 -0.521757	 -0.028637	 1.217342
H	 0.935769	 -0.712709	 0.000000
C	 -1.791536	 -0.842552	 1.006975
H	 0.086290	 -0.500581	 1.983458
H	 -0.780302	 0.965297	 1.595353
H	 -1.548345	 -1.845155	 0.673796
H	 -2.363671	 -0.911368	 1.926906
H	 -2.429804	 -0.384353	 0.255764

	symmetry c1
}
set optking {
	frozen_dihedral = ("
		12 9 6 3
	")
}

ee = optimize('scf')
oeprop('DIPOLE', 'QUADRUPOLE', 'MULLIKEN_CHARGES')
f=open( 'psi4out.xyz', 'w' )
f.write( "16  " )
f.write( str(ee) + "\n" )
f.write( MOL.save_string_xyz() )
f.close()
--------------------------------------------------------------------------

    Molecular point group: c1
  Charge       = 0
  Multiplicity = 1
  Basis Set: 6-31G*
  Basis Set:
  @DF-RHF Final Energy:  -212.30080837542704
    Total Energy =                       -212.3008083754269251
    Molecular point group: c1
  Basis Set: 6-31G*
  Basis Set:
  Basis Set: 6-31G*
  Basis Set:
  @DF-RHF Final Energy:  -212.30118138417157
    Total Energy =                       -212.3011813841716275
  Basis Set: 6-31G*
  Basis Set:
  Basis Set: 6-31G*
  Basis Set:
  @DF-RHF Final Energy:  -212.30591146053544
    Total Energy =                       -212.3059114605355262
  Basis Set: 6-31G*
  Basis Set:
  Basis Set: 6-31G*
  Basis Set:
  @DF-RHF Final Energy:  -212.30687508325681
    Total Energy =                       -212.3068750832567844
  Basis Set: 6-31G*
  Basis Set:
  Basis Set: 6-31G*
  Basis Set:
  @DF-RHF Final Energy:  -212.30700855999277
    Total Energy =                       -212.3070085599928234
  Basis Set: 6-31G*
  Basis Set:
  Basis Set: 6-31G*
  Basis Set:
  @DF-RHF Final Energy:  -212.30704901033738
    Total Energy =                       -212.3070490103373800
  Basis Set: 6-31G*
  Basis Set:
  Basis Set: 6-31G*
  Basis Set:
  @DF-RHF Final Energy:  -212.30705338338049
    Total Energy =                       -212.3070533833804916
  Basis Set: 6-31G*
  Basis Set:
  Charge       = 0
  Multiplicity = 1
  Basis Set: 6-31G*
  Basis Set:

    Orbital Energies (a.u.)
    -----------------------

    Doubly Occupied:

       1A    -15.532632     2A    -11.241745     3A    -11.239797
       4A    -11.208858     5A    -11.206829     6A     -1.200043
       7A     -1.023598     8A     -0.967398     9A     -0.852663
      10A     -0.797871    11A     -0.662306    12A     -0.626903
      13A     -0.604311    14A     -0.584128    15A     -0.540616
      16A     -0.533441    17A     -0.510835    18A     -0.492120
      19A     -0.479742    20A     -0.471697    21A     -0.354330

  @DF-RHF Final Energy:  -212.30705455970232

   => Energetics <=

    Nuclear Repulsion Energy =            191.5114230232324246
    One-Electron Energy =                -665.3732279188836856
    Two-Electron Energy =                 261.5547503359488815
    DFT Exchange-Correlation Energy =       0.0000000000000000
    Empirical Dispersion Energy =           0.0000000000000000
    PCM Polarization Energy =               0.0000000000000000
    EFP Energy =                            0.0000000000000000
    Total Energy =                       -212.3070545597024079
    Molecular point group: c1
  Basis Set: 6-31G*
  Basis Set:

  -Total Gradient:
     Atom            X                  Y                   Z
    ------   -----------------  -----------------  -----------------
       1       -0.000002211293     0.000001939437     0.000002170418
       2       -0.000000519430    -0.000003661189     0.000008202666
       3        0.000326735710    -0.005031443074     0.000013567815
       4       -0.000000074360     0.000002171861    -0.000001811403
       5       -0.000000701949     0.000000212909     0.000000564587
       6       -0.000952332595     0.006146795864    -0.000349102596
       7        0.000000789044     0.000006643056     0.000004451135
       8       -0.000003850601     0.000002627358    -0.000005675726
       9        0.002918234531     0.004400584410     0.001980261331
      10        0.000004110134    -0.000005088006    -0.000019358016
      11       -0.000005209495    -0.000006288751     0.000012009232
      12       -0.002293270074    -0.005515025873    -0.001642385695
      13       -0.000000743480    -0.000001454082     0.000004600135
      14        0.000002636885    -0.000003061170    -0.000008877651
      15       -0.000002298859    -0.000000553034    -0.000000380844
      16        0.000008705835     0.000005600282     0.000001764612

  **** Optimization is complete! (in 8 steps) ****
    Final optimized geometry and variables:
    Molecular point group: c1

    Geometry (in Angstrom), charge = 0, multiplicity = 1:

    H            0.372014870670     0.276331470759    -3.118702899456
    C            0.907544651961     0.289273055030    -2.174292086632
    C           -0.053521192234     0.130647451707    -1.003037756489
    H            1.452009717186     1.223155531493    -2.095188463991
    H            1.632631423736    -0.520572141302    -2.196118793281
    N            0.675601311069     0.176629237494     0.251222734414
    H           -0.766111400268     0.950548834269    -1.013947395499
    H           -0.631179361067    -0.785763305609    -1.131365029812
    C           -0.094569382624     0.127769854659     1.491431611146
    H            1.348336476893    -0.564323208219     0.253607739719
    C           -1.413449780946    -0.653662950457     1.462650801472
    H            0.533241199529    -0.352570168055     2.234461342540
    H           -0.290815217895     1.141406557918     1.828397270396
    H           -1.256955948333    -1.686280040142     1.163662884198
    H           -1.853519610637    -0.659057715623     2.455691577307
    H           -2.139678602025    -0.215226845740     0.787094009650

  Mulliken Charges: (a.u.)
   Center  Symbol    Alpha    Beta     Spin     Total
       1     H     0.42122  0.42122  0.00000  0.15756
       2     C     3.23978  3.23978  0.00000 -0.47955
       3     C     3.05703  3.05703  0.00000 -0.11406
       4     H     0.41205  0.41205  0.00000  0.17589
       5     H     0.42554  0.42554  0.00000  0.14892
       6     N     3.85295  3.85295  0.00000 -0.70591
       7     H     0.42095  0.42095  0.00000  0.15810
       8     H     0.43179  0.43179  0.00000  0.13642
       9     C     3.05094  3.05094  0.00000 -0.10187
      10     H     0.33455  0.33455  0.00000  0.33090
      11     C     3.25113  3.25113  0.00000 -0.50226
      12     H     0.42270  0.42270  0.00000  0.15460
      13     H     0.41925  0.41925  0.00000  0.16150
      14     H     0.42252  0.42252  0.00000  0.15496
      15     H     0.41925  0.41925  0.00000  0.16151
      16     H     0.41836  0.41836  0.00000  0.16329

   Total alpha = 21.00000, Total beta = 21.00000, Total charge =  0.00000
