  ==> Input File <==

--------------------------------------------------------------------------
set {
	reference rhf
	basis 6-31G*
}

set_num_threads( 1 )
memory 2 gb

molecule MOL {
0 1

O	 0.074228	 1.262779	 -0.000085
C	 0.028650	 0.075053	 -0.000277
C	 -1.233602	 -0.752807	 0.000328
O	 1.109162	 -0.694619	 -0.000298
C	 -2.501530	 0.091881	 0.000126
H	 -1.193807	 -1.406641	 -0.865785
H	 -1.193516	 -1.405779	 0.867015
H	 -2.545121	 0.729328	 -0.874513
H	 -3.377167	 -0.548497	 0.000561
H	 -2.544818	 0.730135	 0.874258
C	 2.266812	 -0.177057	 0.630229
H	 2.584427	 0.737039	 0.149644
H	 3.024748	 -0.937605	 0.525526
H	 2.074698	 0.019075	 1.675263

	symmetry c1
}
set optking {
	frozen_dihedral = ("
		4 2 3 6
	")
}

ee = energy('scf')
oeprop('DIPOLE', 'QUADRUPOLE', 'MULLIKEN_CHARGES')
f=open( 'psi4out.xyz', 'w' )
f.write( "14  " )
f.write( str(ee) + "\n" )
f.write( MOL.save_string_xyz() )
f.close()
--------------------------------------------------------------------------

    Molecular point group: c1

    Geometry (in Angstrom), charge = 0, multiplicity = 1:

       Center              X                  Y                   Z               Mass
    ------------   -----------------  -----------------  -----------------  -----------------
           O          0.091753736650     1.287386309913    -0.112848716316    15.994914619560
           C          0.046175736650     0.099660309913    -0.113040716316    12.000000000000
           C         -1.216076263350    -0.728199690087    -0.112435716316    12.000000000000
           O          1.126687736650    -0.670011690087    -0.113061716316    15.994914619560
           C         -2.484004263350     0.116488309913    -0.112637716316    12.000000000000
           H         -1.176281263350    -1.382033690087    -0.978548716316     1.007825032070
           H         -1.175990263350    -1.381171690087     0.754251283684     1.007825032070
           H         -2.527595263350     0.753935309913    -0.987276716316     1.007825032070
           H         -3.359641263350    -0.523889690087    -0.112202716316     1.007825032070
           H         -2.527292263350     0.754742309913     0.761494283684     1.007825032070
           C          2.284337736650    -0.152449690087     0.517465283684    12.000000000000
           H          2.601952736650     0.761646309913     0.036880283684     1.007825032070
           H          3.042273736650    -0.912997690087     0.412762283684     1.007825032070
           H          2.092223736650     0.043682309913     1.562499283684     1.007825032070

  Charge       = 0
  Multiplicity = 1
  Basis Set: 6-31G*
  Basis Set:

    Orbital Energies (a.u.)
    -----------------------

    Doubly Occupied:

       1A    -20.599914     2A    -20.548107     3A    -11.373348
       4A    -11.283846     5A    -11.238896     6A    -11.216602
       7A     -1.468842     8A     -1.364204     9A     -1.063921
      10A     -0.980602    11A     -0.880185    12A     -0.768964
      13A     -0.700663    14A     -0.681507    15A     -0.671828
      16A     -0.621113    17A     -0.605297    18A     -0.548387
      19A     -0.538419    20A     -0.521905    21A     -0.512024
      22A     -0.496024    23A     -0.456141    24A     -0.437781

  @DF-RHF Final Energy:  -305.86694548708118

   => Energetics <=

    Nuclear Repulsion Energy =            247.1000284905687181
    One-Electron Energy =                -906.7769671863045460
    Two-Electron Energy =                 353.8099932086549870
    DFT Exchange-Correlation Energy =       0.0000000000000000
    Empirical Dispersion Energy =           0.0000000000000000
    PCM Polarization Energy =               0.0000000000000000
    EFP Energy =                            0.0000000000000000
    Total Energy =                       -305.8669454870807840

  Mulliken Charges: (a.u.)
   Center  Symbol    Alpha    Beta     Spin     Total
       1     O     4.28018  4.28018  0.00000 -0.56037
       2     C     2.60812  2.60812  0.00000  0.78375
       3     C     3.20607  3.20607  0.00000 -0.41214
       4     O     4.30725  4.30725  0.00000 -0.61451
       5     C     3.23937  3.23937  0.00000 -0.47874
       6     H     0.39922  0.39922  0.00000  0.20155
       7     H     0.40218  0.40218  0.00000  0.19563
       8     H     0.40931  0.40931  0.00000  0.18138
       9     H     0.41803  0.41803  0.00000  0.16395
      10     H     0.41049  0.41049  0.00000  0.17902
      11     C     3.09434  3.09434  0.00000 -0.18867
      12     H     0.40306  0.40306  0.00000  0.19387
      13     H     0.40722  0.40722  0.00000  0.18556
      14     H     0.41515  0.41515  0.00000  0.16969

   Total alpha = 24.00000, Total beta = 24.00000, Total charge =  0.00000
