  ==> Input File <==

--------------------------------------------------------------------------
set {
	reference rhf
	basis 6-31G*
}

set_num_threads( 4 )
memory 2 gb

molecule MOL {
0 1

H	 -1.836216	 1.387520	 -0.000064
C	 -1.301823	 0.443321	 -0.000031
O	 -0.003969	 0.658512	 0.000451
O	 -1.829879	 -0.616434	 -0.000857
C	 0.850537	 -0.484732	 0.000380
C	 -0.033759	 -1.712466	 -0.031418
H	 1.468891	 -0.457782	 0.887076
H	 1.500267	 -0.434817	 -0.862553
H	 -0.683085	 -1.741625	 0.836083
H	 0.579318	 -2.607658	 -0.032023
H	 -0.651633	 -1.718696	 -0.921969

	symmetry c1
}
set optking {
	frozen_dihedral = ("
		7 5 3 2
	")
}

ee = optimize('scf')
oeprop('DIPOLE', 'QUADRUPOLE', 'MULLIKEN_CHARGES')
f=open( 'psi4out.xyz', 'w' )
f.write( "11  " )
f.write( str(ee) + "\n" )
f.write( MOL.save_string_xyz() )
f.close()
--------------------------------------------------------------------------

    Molecular point group: c1
  Charge       = 0
  Multiplicity = 1
  Basis Set: 6-31G*
  Basis Set:
  @DF-RHF Final Energy:  -266.75771029673518
    Total Energy =                       -266.7577102967351834
    Molecular point group: c1
  Basis Set: 6-31G*
  Basis Set:
  Basis Set: 6-31G*
  Basis Set:
  @DF-RHF Final Energy:  -266.80108277968327
    Total Energy =                       -266.8010827796832700
  Basis Set: 6-31G*
  Basis Set:
  Basis Set: 6-31G*
  Basis Set:
  @DF-RHF Final Energy:  -266.81088908238792
    Total Energy =                       -266.8108890823878028
  Basis Set: 6-31G*
  Basis Set:
  Basis Set: 6-31G*
  Basis Set:
  @DF-RHF Final Energy:  -266.80738782513868
    Total Energy =                       -266.8073878251387328
  Basis Set: 6-31G*
  Basis Set:
  @DF-RHF Final Energy:  -266.81702057244991
    Total Energy =                       -266.8170205724500192
  Basis Set: 6-31G*
  Basis Set:
  @DF-RHF Final Energy:  -266.81741790670776
    Total Energy =                       -266.8174179067078171
  Basis Set: 6-31G*
  Basis Set:
  Basis Set: 6-31G*
  Basis Set:
  @DF-RHF Final Energy:  -266.81746783098322
    Total Energy =                       -266.8174678309831052
  Basis Set: 6-31G*
  Basis Set:
  Basis Set: 6-31G*
  Basis Set:
  @DF-RHF Final Energy:  -266.81747565137476
    Total Energy =                       -266.8174756513748207
  Basis Set: 6-31G*
  Basis Set:
  Charge       = 0
  Multiplicity = 1
  Basis Set: 6-31G*
  Basis Set:

    Orbital Energies (a.u.)
    -----------------------

    Doubly Occupied:

       1A    -20.609835     2A    -20.551747     3A    -11.379140
       4A    -11.298148     5A    -11.221129     6A     -1.467614
       7A     -1.372799     8A     -1.050393     9A     -0.919519
      10A     -0.795853    11A     -0.715414    12A     -0.686093
      13A     -0.672761    14A     -0.603268    15A     -0.586792
      16A     -0.546923    17A     -0.528790    18A     -0.503387
      19A     -0.447672    20A     -0.444426

  @DF-RHF Final Energy:  -266.81747619601333

   => Energetics <=

    Nuclear Repulsion Energy =            182.0775683420872895
    One-Electron Energy =                -724.9866848214792299
    Two-Electron Energy =                 276.0916402833786947
    DFT Exchange-Correlation Energy =       0.0000000000000000
    Empirical Dispersion Energy =           0.0000000000000000
    PCM Polarization Energy =               0.0000000000000000
    EFP Energy =                            0.0000000000000000
    Total Energy =                       -266.8174761960132741
    Molecular point group: c1
  Basis Set: 6-31G*
  Basis Set:

  -Total Gradient:
     Atom            X                  Y                   Z
    ------   -----------------  -----------------  -----------------
       1       -0.000009536856     0.000018084531     0.000019760957
       2        0.000019687610     0.000007073146    -0.000923831544
       3        0.000187913608     0.000074723022     0.001247102913
       4       -0.000037741762    -0.000040264368     0.000021940018
       5       -0.000725837411    -0.000483419349     0.000072046469
       6       -0.000014092499    -0.000024600677     0.000057835333
       7        0.000581673997     0.000419691953    -0.000447383990
       8       -0.000017852589     0.000026449421    -0.000009397537
       9        0.000014646725     0.000003406534    -0.000003192773
      10        0.000013649501    -0.000019085341    -0.000010554315
      11       -0.000012510322     0.000017941126    -0.000024325531

  **** Optimization is complete! (in 9 steps) ****
    Final optimized geometry and variables:
    Molecular point group: c1

    Geometry (in Angstrom), charge = 0, multiplicity = 1:

    H           -1.149684242793     1.988974207454    -0.050177180871
    C           -0.833395259516     0.951534446471     0.000946352672
    O            0.479928320686     0.915317878765    -0.019997786977
    O           -1.593418412328     0.046821370264     0.067754758225
    C            1.309165030724    -0.254737392581    -0.000547490214
    C            0.650653383335    -1.624217142736    -0.047615795623
    H            1.912733538079    -0.156451020034     0.891651643585
    H            1.964161001101    -0.132403415057    -0.852323008387
    H            0.027620172822    -1.812783791516     0.813814067351
    H            1.453762754711    -2.356292152511    -0.061755040076
    H            0.051175043798    -1.758259801976    -0.936944337509

  Mulliken Charges: (a.u.)
   Center  Symbol    Alpha    Beta     Spin     Total
       1     H     0.41401  0.41401  0.00000  0.17198
       2     C     2.72633  2.72633  0.00000  0.54734
       3     O     4.30156  4.30156  0.00000 -0.60312
       4     O     4.26286  4.26286  0.00000 -0.52571
       5     C     2.99369  2.99369  0.00000  0.01262
       6     C     3.25356  3.25356  0.00000 -0.50711
       7     H     0.41082  0.41082  0.00000  0.17836
       8     H     0.41046  0.41046  0.00000  0.17908
       9     H     0.40139  0.40139  0.00000  0.19722
      10     H     0.42051  0.42051  0.00000  0.15899
      11     H     0.40482  0.40482  0.00000  0.19036

   Total alpha = 20.00000, Total beta = 20.00000, Total charge =  0.00000
