  ==> Input File <==

--------------------------------------------------------------------------
set {
	reference rhf
	basis 6-31G*
}

set_num_threads( 1 )
memory 2 gb

molecule MOL {
0 1

O	 -1.276010	 1.052711	 -0.768302
C	 -1.204840	 0.067374	 -0.106123
C	 -2.388195	 -0.672128	 0.458071
O	 -0.067104	 -0.527208	 0.221609
H	 -2.388023	 -1.694060	 0.097175
H	 -3.300579	 -0.174919	 0.164318
H	 -2.315377	 -0.706351	 1.539059
C	 -0.107932	 -1.713527	 1.027157
C	 1.231570	 -1.780353	 1.739096
C	 -0.375175	 -2.923861	 0.146067
H	 -0.907401	 -1.600116	 1.744440
H	 1.389277	 -0.893467	 2.342262
H	 1.266178	 -2.648030	 2.389688
H	 2.043000	 -1.855683	 1.023163
H	 -0.384415	 -3.827859	 0.746665
H	 -1.335283	 -2.835855	 -0.346298
H	 0.399251	 -3.022310	 -0.607975

	symmetry c1
}
set optking {
	frozen_dihedral = ("
		11 8 4 2
	")
}

ee = energy('scf')
oeprop('DIPOLE', 'QUADRUPOLE', 'MULLIKEN_CHARGES')
f=open( 'psi4out.xyz', 'w' )
f.write( "17  " )
f.write( str(ee) + "\n" )
f.write( MOL.save_string_xyz() )
f.close()
--------------------------------------------------------------------------

    Molecular point group: c1

    Geometry (in Angstrom), charge = 0, multiplicity = 1:

       Center              X                  Y                   Z               Mass
    ------------   -----------------  -----------------  -----------------  -----------------
           O         -0.676463806600     1.986145961718    -1.156185796709    15.994914619560
           C         -0.605293806600     1.000808961718    -0.494006796709    12.000000000000
           C         -1.788648806600     0.261306961718     0.070187203291    12.000000000000
           O          0.532442193400     0.406226961718    -0.166274796709    15.994914619560
           H         -1.788476806600    -0.760625038282    -0.290708796709     1.007825032070
           H         -2.701032806600     0.758515961718    -0.223565796709     1.007825032070
           H         -1.715830806600     0.227083961718     1.151175203291     1.007825032070
           C          0.491614193400    -0.780092038282     0.639273203291    12.000000000000
           C          1.831116193400    -0.846918038282     1.351212203291    12.000000000000
           C          0.224371193400    -1.990426038282    -0.241816796709    12.000000000000
           H         -0.307854806600    -0.666681038282     1.356556203291     1.007825032070
           H          1.988823193400     0.039967961718     1.954378203291     1.007825032070
           H          1.865724193400    -1.714595038282     2.001804203291     1.007825032070
           H          2.642546193400    -0.922248038282     0.635279203291     1.007825032070
           H          0.215131193400    -2.894424038282     0.358781203291     1.007825032070
           H         -0.735736806600    -1.902420038282    -0.734181796709     1.007825032070
           H          0.998797193400    -2.088875038282    -0.995858796709     1.007825032070

  Charge       = 0
  Multiplicity = 1
  Basis Set: 6-31G*
  Basis Set:

    Orbital Energies (a.u.)
    -----------------------

    Doubly Occupied:

       1A    -20.602757     2A    -20.540178     3A    -11.375690
       4A    -11.305838     5A    -11.235299     6A    -11.233269
       7A    -11.228712     8A     -1.464399     9A     -1.366354
      10A     -1.082794    11A     -1.026463    12A     -0.961190
      13A     -0.862852    14A     -0.777604    15A     -0.707378
      16A     -0.675996    17A     -0.664190    18A     -0.635857
      19A     -0.601188    20A     -0.573215    21A     -0.569836
      22A     -0.556906    23A     -0.550782    24A     -0.530370
      25A     -0.510675    26A     -0.494970    27A     -0.442312
      28A     -0.430046

  @DF-RHF Final Energy:  -344.87816168285281

   => Energetics <=

    Nuclear Repulsion Energy =            327.2323688055593038
    One-Electron Energy =               -1118.2068511523893903
    Two-Electron Energy =                 446.0963206639773375
    DFT Exchange-Correlation Energy =       0.0000000000000000
    Empirical Dispersion Energy =           0.0000000000000000
    PCM Polarization Energy =               0.0000000000000000
    EFP Energy =                            0.0000000000000000
    Total Energy =                       -344.8781616828527490

  Mulliken Charges: (a.u.)
   Center  Symbol    Alpha    Beta     Spin     Total
       1     O     4.27417  4.27417  0.00000 -0.54834
       2     C     2.60189  2.60189  0.00000  0.79621
       3     C     3.32403  3.32403  0.00000 -0.64806
       4     O     4.30573  4.30573  0.00000 -0.61145
       5     H     0.40382  0.40382  0.00000  0.19237
       6     H     0.38850  0.38850  0.00000  0.22299
       7     H     0.39949  0.39949  0.00000  0.20102
       8     C     2.93566  2.93566  0.00000  0.12869
       9     C     3.23666  3.23666  0.00000 -0.47331
      10     C     3.24866  3.24866  0.00000 -0.49732
      11     H     0.41420  0.41420  0.00000  0.17159
      12     H     0.40778  0.40778  0.00000  0.18445
      13     H     0.41839  0.41839  0.00000  0.16323
      14     H     0.40822  0.40822  0.00000  0.18357
      15     H     0.41465  0.41465  0.00000  0.17071
      16     H     0.41318  0.41318  0.00000  0.17363
      17     H     0.40499  0.40499  0.00000  0.19003

   Total alpha = 28.00000, Total beta = 28.00000, Total charge = -0.00000
