  ==> Input File <==

--------------------------------------------------------------------------
set {
	reference rhf
	basis 6-31G*
}

set_num_threads( 4 )
memory 2 gb

molecule MOL {
0 1

H	 -2.499100	 -0.730091	 -0.745082
O	 -2.347518	 -0.290803	 0.079804
C	 -1.184022	 0.487508	 -0.006784
C	 0.062599	 -0.378592	 0.031606
H	 -1.176523	 1.099369	 -0.904519
H	 -1.187323	 1.153111	 0.844927
O	 0.189153	 -1.005544	 -1.205607
H	 -0.019930	 -1.118742	 0.829946
H	 0.930889	 0.240374	 0.249640
C	 1.315817	 -1.814367	 -1.330406
H	 1.308363	 -2.622288	 -0.601134
H	 1.304280	 -2.239553	 -2.324381
H	 2.231997	 -1.241766	 -1.201820

	symmetry c1
}
set optking {
	frozen_dihedral = ("
		8 4 3 5
	")
}

ee = optimize('scf')
oeprop('DIPOLE', 'QUADRUPOLE', 'MULLIKEN_CHARGES')
f=open( 'psi4out.xyz', 'w' )
f.write( "13  " )
f.write( str(ee) + "\n" )
f.write( MOL.save_string_xyz() )
f.close()
--------------------------------------------------------------------------

    Molecular point group: c1
  Charge       = 0
  Multiplicity = 1
  Basis Set: 6-31G*
  Basis Set:
  @DF-RHF Final Energy:  -267.95246222961327
    Total Energy =                       -267.9524622296131042
    Molecular point group: c1
  Basis Set: 6-31G*
  Basis Set:
  Basis Set: 6-31G*
  Basis Set:
  @DF-RHF Final Energy:  -267.95343458058693
    Total Energy =                       -267.9534345805872135
  Basis Set: 6-31G*
  Basis Set:
  Basis Set: 6-31G*
  Basis Set:
  @DF-RHF Final Energy:  -267.95358169592362
    Total Energy =                       -267.9535816959236172
  Basis Set: 6-31G*
  Basis Set:
  Basis Set: 6-31G*
  Basis Set:
  @DF-RHF Final Energy:  -267.95360785080464
    Total Energy =                       -267.9536078508044170
  Basis Set: 6-31G*
  Basis Set:
  Charge       = 0
  Multiplicity = 1
  Basis Set: 6-31G*
  Basis Set:

    Orbital Energies (a.u.)
    -----------------------

    Doubly Occupied:

       1A    -20.566957     2A    -20.549497     3A    -11.273377
       4A    -11.272949     5A    -11.268255     6A     -1.393091
       7A     -1.354811     8A     -1.020074     9A     -0.919587
      10A     -0.837122    11A     -0.703271    12A     -0.681632
      13A     -0.661956    14A     -0.633767    15A     -0.588912
      16A     -0.577758    17A     -0.540854    18A     -0.491403
      19A     -0.486394    20A     -0.433518    21A     -0.427235

  @DF-RHF Final Energy:  -267.95360961542974

   => Energetics <=

    Nuclear Repulsion Energy =            194.1671382980499345
    One-Electron Energy =                -750.8766552066151689
    Two-Electron Energy =                 288.7559072931355786
    DFT Exchange-Correlation Energy =       0.0000000000000000
    Empirical Dispersion Energy =           0.0000000000000000
    PCM Polarization Energy =               0.0000000000000000
    EFP Energy =                            0.0000000000000000
    Total Energy =                       -267.9536096154296274
    Molecular point group: c1
  Basis Set: 6-31G*
  Basis Set:

  -Total Gradient:
     Atom            X                  Y                   Z
    ------   -----------------  -----------------  -----------------
       1        0.000054940473     0.000020246343    -0.000011575990
       2       -0.000034256328     0.000042104706     0.000083126088
       3        0.001648000310     0.002665741889     0.001683897639
       4        0.001454741038     0.002203114337     0.002509606320
       5       -0.001655011068    -0.002617372108    -0.001892313359
       6       -0.000018021092    -0.000030498017    -0.000007869025
       7        0.000013907789     0.000020333858     0.000007241689
       8       -0.001456279540    -0.002306113997    -0.002364508208
       9       -0.000012475950    -0.000012178688     0.000001880703
      10        0.000023138670     0.000005413384    -0.000018472795
      11       -0.000009683782     0.000004389959     0.000009867390
      12       -0.000008860228     0.000012915530     0.000003941891
      13       -0.000000140289    -0.000008097196    -0.000004822344

  **** Optimization is complete! (in 5 steps) ****
    Final optimized geometry and variables:
    Molecular point group: c1

    Geometry (in Angstrom), charge = 0, multiplicity = 1:

    H           -1.857009684860    -0.284120446297    -0.249965117238
    O           -1.911173816193     0.278446364054     0.511674424176
    C           -0.777454519498     1.101055313091     0.519211106600
    C            0.494596907594     0.280411134812     0.542575156212
    H           -0.770354030554     1.734182938694    -0.364169846304
    H           -0.844953787789     1.724010100204     1.401379367784
    O            0.604051853727    -0.342689122078    -0.707675990389
    H            0.420239784275    -0.479152683428     1.317889168227
    H            1.364598932287     0.906175999504     0.736151732251
    C            1.673682292858    -1.228445546448    -0.821454970720
    H            1.595829841000    -2.039816394025    -0.100872813706
    H            1.651524857123    -1.641738034070    -1.820364303251
    H            2.624786982714    -0.721955949569    -0.670944619410

  Mulliken Charges: (a.u.)
   Center  Symbol    Alpha    Beta     Spin     Total
       1     H     0.27558  0.27558  0.00000  0.44885
       2     O     4.37245  4.37245  0.00000 -0.74490
       3     C     2.99911  2.99911  0.00000  0.00177
       4     C     3.00564  3.00564  0.00000 -0.01128
       5     H     0.42163  0.42163  0.00000  0.15675
       6     H     0.41571  0.41571  0.00000  0.16858
       7     O     4.31310  4.31310  0.00000 -0.62619
       8     H     0.42209  0.42209  0.00000  0.15581
       9     H     0.42902  0.42902  0.00000  0.14197
      10     C     3.07995  3.07995  0.00000 -0.15990
      11     H     0.42708  0.42708  0.00000  0.14584
      12     H     0.41083  0.41083  0.00000  0.17833
      13     H     0.42782  0.42782  0.00000  0.14436

   Total alpha = 21.00000, Total beta = 21.00000, Total charge = -0.00000
