  ==> Input File <==

--------------------------------------------------------------------------
set {
	reference rhf
	basis 6-31G*
}

set_num_threads( 1 )
memory 2 gb

molecule MOL {
0 1

O	 2.649734	 -0.168220	 0.665131
C	 1.705091	 0.115954	 0.001797
C	 0.381791	 -0.609817	 0.001258
O	 1.692527	 1.138990	 -0.843412
C	 -0.823008	 0.326187	 0.001381
H	 0.371250	 -1.265087	 -0.865474
H	 0.370908	 -1.265746	 0.867490
C	 -2.149452	 -0.435131	 -0.000098
H	 -0.770201	 0.977095	 -0.865636
H	 -0.771220	 0.975655	 0.869608
C	 -3.368779	 0.488503	 -0.000883
H	 -2.193746	 -1.087250	 -0.871175
H	 -2.195311	 -1.087803	 0.870418
C	 -4.693822	 -0.272754	 -0.001129
H	 -3.325798	 1.139422	 -0.871284
H	 -3.326423	 1.139959	 0.869145
H	 -4.781274	 -0.907928	 -0.878124
H	 -5.538651	 0.408946	 -0.001420
H	 -4.781694	 -0.907783	 0.875984
C	 2.877273	 1.908588	 -0.938538
H	 3.121724	 2.349593	 0.017123
H	 2.670878	 2.679578	 -1.664384
H	 3.703460	 1.295268	 -1.268325

	symmetry c1
}
set optking {
	frozen_dihedral = ("
		15 11 8 12,
		9 5 8 12,
		9 5 3 6,
		1 2 4 20
	")
}

ee = energy('scf')
oeprop('DIPOLE', 'QUADRUPOLE', 'MULLIKEN_CHARGES')
f=open( 'psi4out.xyz', 'w' )
f.write( "23  " )
f.write( str(ee) + "\n" )
f.write( MOL.save_string_xyz() )
f.close()
--------------------------------------------------------------------------

    Molecular point group: c1

    Geometry (in Angstrom), charge = 0, multiplicity = 1:

       Center              X                  Y                   Z               Mass
    ------------   -----------------  -----------------  -----------------  -----------------
           O          2.810990666833    -0.462336975543     0.795992543154    15.994914619560
           C          1.866347666833    -0.178162975543     0.132658543154    12.000000000000
           C          0.543047666833    -0.903933975543     0.132119543154    12.000000000000
           O          1.853783666833     0.844873024457    -0.712550456846    15.994914619560
           C         -0.661751333167     0.032070024457     0.132242543154    12.000000000000
           H          0.532506666833    -1.559203975543    -0.734612456846     1.007825032070
           H          0.532164666833    -1.559862975543     0.998351543154     1.007825032070
           C         -1.988195333167    -0.729247975543     0.130763543154    12.000000000000
           H         -0.608944333167     0.682978024457    -0.734774456846     1.007825032070
           H         -0.609963333167     0.681538024457     1.000469543154     1.007825032070
           C         -3.207522333167     0.194386024457     0.129978543154    12.000000000000
           H         -2.032489333167    -1.381366975543    -0.740313456846     1.007825032070
           H         -2.034054333167    -1.381919975543     1.001279543154     1.007825032070
           C         -4.532565333167    -0.566870975543     0.129732543154    12.000000000000
           H         -3.164541333167     0.845305024457    -0.740422456846     1.007825032070
           H         -3.165166333167     0.845842024457     1.000006543154     1.007825032070
           H         -4.620017333167    -1.202044975543    -0.747262456846     1.007825032070
           H         -5.377394333167     0.114829024457     0.129441543154     1.007825032070
           H         -4.620437333167    -1.201899975543     1.006845543154     1.007825032070
           C          3.038529666833     1.614471024457    -0.807676456846    12.000000000000
           H          3.282980666833     2.055476024457     0.147984543154     1.007825032070
           H          2.832134666833     2.385461024457    -1.533522456846     1.007825032070
           H          3.864716666833     1.001151024457    -1.137463456846     1.007825032070

  Charge       = 0
  Multiplicity = 1
  Basis Set: 6-31G*
  Basis Set:

    Orbital Energies (a.u.)
    -----------------------

    Doubly Occupied:

       1A    -20.604621     2A    -20.543922     3A    -11.371714
       4A    -11.281193     5A    -11.234561     6A    -11.224638
       7A    -11.220566     8A    -11.219239     9A    -11.211670
      10A     -1.469539    11A     -1.361925    12A     -1.097099
      13A     -1.046053    14A     -0.983024    15A     -0.934956
      16A     -0.847777    17A     -0.797947    18A     -0.774109
      19A     -0.694021    20A     -0.682075    21A     -0.672261
      22A     -0.652665    23A     -0.608951    24A     -0.591792
      25A     -0.578154    26A     -0.568455    27A     -0.549188
      28A     -0.526683    29A     -0.524317    30A     -0.508694
      31A     -0.487166    32A     -0.478547    33A     -0.470423
      34A     -0.467730    35A     -0.454905    36A     -0.426212

  @DF-RHF Final Energy:  -422.97414496083877

   => Energetics <=

    Nuclear Repulsion Energy =            456.2920348726091788
    One-Electron Energy =               -1480.1988233590739128
    Two-Electron Energy =                 600.9326435256257355
    DFT Exchange-Correlation Energy =       0.0000000000000000
    Empirical Dispersion Energy =           0.0000000000000000
    PCM Polarization Energy =               0.0000000000000000
    EFP Energy =                            0.0000000000000000
    Total Energy =                       -422.9741449608389985

  Mulliken Charges: (a.u.)
   Center  Symbol    Alpha    Beta     Spin     Total
       1     O     4.28703  4.28703  0.00000 -0.57405
       2     C     2.60922  2.60922  0.00000  0.78156
       3     C     3.20430  3.20430  0.00000 -0.40860
       4     O     4.30245  4.30245  0.00000 -0.60491
       5     C     3.16023  3.16023  0.00000 -0.32047
       6     H     0.40226  0.40226  0.00000  0.19548
       7     H     0.39881  0.39881  0.00000  0.20238
       8     C     3.15294  3.15294  0.00000 -0.30587
       9     H     0.40608  0.40608  0.00000  0.18785
      10     H     0.41700  0.41700  0.00000  0.16599
      11     C     3.15193  3.15193  0.00000 -0.30386
      12     H     0.42262  0.42262  0.00000  0.15477
      13     H     0.42204  0.42204  0.00000  0.15593
      14     C     3.23973  3.23973  0.00000 -0.47946
      15     H     0.42186  0.42186  0.00000  0.15628
      16     H     0.42188  0.42188  0.00000  0.15624
      17     H     0.42140  0.42140  0.00000  0.15720
      18     H     0.41839  0.41839  0.00000  0.16323
      19     H     0.42110  0.42110  0.00000  0.15780
      20     C     3.09234  3.09234  0.00000 -0.18468
      21     H     0.40869  0.40869  0.00000  0.18262
      22     H     0.40889  0.40889  0.00000  0.18223
      23     H     0.40883  0.40883  0.00000  0.18233

   Total alpha = 36.00000, Total beta = 36.00000, Total charge =  0.00000
