  ==> Input File <==

--------------------------------------------------------------------------
set {
	reference rhf
	basis 6-31G*
}

set_num_threads( 4 )
memory 2 gb

molecule MOL {
0 1

H	 2.237816	 -0.867402	 -2.167241
C	 1.514368	 -1.090252	 -1.391426
C	 1.322923	 0.120767	 -0.479465
H	 0.584807	 -1.371991	 -1.876104
H	 1.878099	 -1.949332	 -0.836202
C	 0.306652	 -0.176050	 0.621399
H	 0.976233	 0.971481	 -1.056976
H	 2.264374	 0.399097	 -0.020701
N	 -1.068537	 -0.011044	 0.085269
H	 0.372515	 -1.192590	 0.973735
H	 0.391664	 0.520566	 1.441230
O	 -1.656956	 -0.997225	 -0.235017
O	 -1.478635	 1.104830	 -0.018026

	symmetry c1
}
set optking {
	frozen_dihedral = ("
		7 3 6 9
	")
}

ee = optimize('scf')
oeprop('DIPOLE', 'QUADRUPOLE', 'MULLIKEN_CHARGES')
f=open( 'psi4out.xyz', 'w' )
f.write( "13  " )
f.write( str(ee) + "\n" )
f.write( MOL.save_string_xyz() )
f.close()
--------------------------------------------------------------------------

    Molecular point group: c1
  Charge       = 0
  Multiplicity = 1
  Basis Set: 6-31G*
  Basis Set:
  @DF-RHF Final Energy:  -321.73375029775997
    Total Energy =                       -321.7337502977600820
    Molecular point group: c1
  Basis Set: 6-31G*
  Basis Set:
  Basis Set: 6-31G*
  Basis Set:
  @DF-RHF Final Energy:  -321.73360775819066
    Total Energy =                       -321.7336077581907148
  Basis Set: 6-31G*
  Basis Set:
  Basis Set: 6-31G*
  Basis Set:
  @DF-RHF Final Energy:  -321.72491103282539
    Total Energy =                       -321.7249110328251618
  Basis Set: 6-31G*
  Basis Set:
  Basis Set: 6-31G*
  Basis Set:
  @DF-RHF Final Energy:  -321.73374241474869
    Total Energy =                       -321.7337424147488605
  Basis Set: 6-31G*
  Basis Set:
  @DF-RHF Final Energy:  -321.73381685869549
    Total Energy =                       -321.7338168586954907
  @DF-RHF Final Energy:  -321.73408296138899
    Total Energy =                       -321.7340829613888786
  @DF-RHF Final Energy:  -321.73410394075938
    Total Energy =                       -321.7341039407594963
  Basis Set: 6-31G*
  Basis Set:
  @DF-RHF Final Energy:  -321.73411518182724
    Total Energy =                       -321.7341151818271783
  Basis Set: 6-31G*
  Basis Set:
  Basis Set: 6-31G*
  Basis Set:
  @DF-RHF Final Energy:  -321.73412628040001
    Total Energy =                       -321.7341262804002895
  Basis Set: 6-31G*
  Basis Set:
  Basis Set: 6-31G*
  Basis Set:
  @DF-RHF Final Energy:  -321.73412982696209
    Total Energy =                       -321.7341298269619188
  Basis Set: 6-31G*
  Basis Set:
  Charge       = 0
  Multiplicity = 1
  Basis Set: 6-31G*
  Basis Set:

    Orbital Energies (a.u.)
    -----------------------

    Doubly Occupied:

       1A    -20.603298     2A    -20.599599     3A    -15.847541
       4A    -11.299649     5A    -11.256395     6A    -11.232161
       7A     -1.631147     8A     -1.416567     9A     -1.133787
      10A     -1.023113    11A     -0.890379    12A     -0.826137
      13A     -0.760081    14A     -0.735747    15A     -0.723934
      16A     -0.644221    17A     -0.627662    18A     -0.595877
      19A     -0.530411    20A     -0.519461    21A     -0.515311
      22A     -0.483807    23A     -0.474094    24A     -0.448242

  @DF-RHF Final Energy:  -321.73413008889452

   => Energetics <=

    Nuclear Repulsion Energy =            251.3573896568252906
    One-Electron Energy =                -936.5458046168213286
    Two-Electron Energy =                 363.4542848711015495
    DFT Exchange-Correlation Energy =       0.0000000000000000
    Empirical Dispersion Energy =           0.0000000000000000
    PCM Polarization Energy =               0.0000000000000000
    EFP Energy =                            0.0000000000000000
    Total Energy =                       -321.7341300888945170
    Molecular point group: c1
  Basis Set: 6-31G*
  Basis Set:

  -Total Gradient:
     Atom            X                  Y                   Z
    ------   -----------------  -----------------  -----------------
       1       -0.000001792110    -0.000000780259     0.000001116592
       2       -0.000001284921    -0.000005924300     0.000000806091
       3        0.002350021315     0.003800242989     0.003170700726
       4       -0.000000873324    -0.000002186017    -0.000000226523
       5       -0.000000254496    -0.000002847191    -0.000000662480
       6       -0.000519035956    -0.004178641389    -0.001559363258
       7       -0.001899937567    -0.002339729746    -0.002387517535
       8       -0.000008303439    -0.000001028762     0.000006998983
       9        0.000050899956     0.002710998693     0.000778654072
      10        0.000005691644     0.000001452457    -0.000001596261
      11       -0.000000167336     0.000003535857    -0.000006236042
      12        0.000012228466    -0.000007786719    -0.000001708434
      13        0.000012807769     0.000022694389    -0.000000965933

  **** Optimization is complete! (in 11 steps) ****
    Final optimized geometry and variables:
    Molecular point group: c1

    Geometry (in Angstrom), charge = 0, multiplicity = 1:

    H            2.473564985688    -0.653149734985    -1.956126829842
    C            1.757347743957    -0.908749206756    -1.182963622698
    C            1.539669774512     0.277865673511    -0.242585421924
    H            0.833304108209    -1.202575448610    -1.669222608845
    H            2.140054026163    -1.771082027503    -0.645913510934
    C            0.512346428157    -0.012086539913     0.855653923023
    H            1.200377498339     1.134768214467    -0.811894401713
    H            2.471923764808     0.550140531698     0.239488851207
    N           -0.868326287031     0.168479065859     0.331093312847
    H            0.568084989151    -1.021603777567     1.228153867346
    H            0.593279763224     0.696878264476     1.665665639545
    O           -1.520509397747    -0.810612697540     0.136280991394
    O           -1.224998547852     1.288313055153     0.124272066886

  Mulliken Charges: (a.u.)
   Center  Symbol    Alpha    Beta     Spin     Total
       1     H     0.41091  0.41091  0.00000  0.17818
       2     C     3.24629  3.24629  0.00000 -0.49258
       3     C     3.17627  3.17627  0.00000 -0.35255
       4     H     0.40663  0.40663  0.00000  0.18674
       5     H     0.41677  0.41677  0.00000  0.16646
       6     C     3.08989  3.08989  0.00000 -0.17978
       7     H     0.39326  0.39326  0.00000  0.21348
       8     H     0.40596  0.40596  0.00000  0.18808
       9     N     3.22375  3.22375  0.00000  0.55251
      10     H     0.38626  0.38626  0.00000  0.22749
      11     H     0.38643  0.38643  0.00000  0.22714
      12     O     4.22777  4.22777  0.00000 -0.45554
      13     O     4.22981  4.22981  0.00000 -0.45962

   Total alpha = 24.00000, Total beta = 24.00000, Total charge =  0.00000
