                              Psi4 1.0.54 Driver

  ==> Input File <==

--------------------------------------------------------------------------
set {
	reference rhf
	basis cc-pvtz
}

set_num_threads( 4 )
memory 2 gb

molecule MOL {
0 1

H	 -2.805714	 0.899801	 1.180356
O	 -1.991115	 0.423108	 1.234296
C	 -1.605397	 0.107680	 0.001145
C	 -0.310616	 -0.658853	 0.000791
O	 -2.236351	 0.410093	 -0.951962
C	 0.926581	 0.227233	 0.000178
H	 -0.327628	 -1.313681	 -0.864448
H	 -0.327041	 -1.313334	 0.866298
C	 2.220156	 -0.582071	 -0.000088
H	 0.899945	 0.878221	 -0.866390
H	 0.900542	 0.878581	 0.866486
C	 3.466689	 0.296012	 -0.000457
H	 2.239073	 -1.234095	 -0.869382
H	 2.239505	 -1.233985	 0.869270
H	 3.493549	 0.935857	 -0.875887
H	 4.368821	 -0.304526	 -0.001199
H	 3.494559	 0.935166	 0.875458

	symmetry c1
}
set optking {
	frozen_dihedral = ("
		2 3 4 7
	")
}

ee,wfn = optimize('scf', return_wfn=True)
oeprop( wfn, 'DIPOLE', 'QUADRUPOLE', 'MULLIKEN_CHARGES')
f=open( 'psi4out.xyz', 'w' )
f.write( "17  " )
f.write( str(ee) + "\n" )
f.write( MOL.save_string_xyz() )
f.close()
--------------------------------------------------------------------------

    Molecular point group: c1
  Charge       = 0
  Multiplicity = 1
  Basis Set: CC-PVTZ
  Basis Set:
  @DF-RHF Final Energy:  -345.04687836703704
    Total Energy =                       -345.0468783670369248
    Molecular point group: c1
  Basis Set: CC-PVTZ
  Basis Set:
  Basis Set: CC-PVTZ
  Basis Set:
  @DF-RHF Final Energy:  -345.04741195539538
    Total Energy =                       -345.0474119553954893
  Basis Set: CC-PVTZ
  Basis Set:
  Basis Set: CC-PVTZ
  Basis Set:
  @DF-RHF Final Energy:  -345.04646930760345
    Total Energy =                       -345.0464693076032745
  Basis Set: CC-PVTZ
  Basis Set:
  Basis Set: CC-PVTZ
  Basis Set:
  @DF-RHF Final Energy:  -345.04755670189746
    Total Energy =                       -345.0475567018975767
  Basis Set: CC-PVTZ
  Basis Set:
  Basis Set: CC-PVTZ
  Basis Set:
  @DF-RHF Final Energy:  -345.04756803043881
    Total Energy =                       -345.0475680304386970
  Basis Set: CC-PVTZ
  Basis Set:
  Charge       = 0
  Multiplicity = 1
  Basis Set: CC-PVTZ
  Basis Set:

    Orbital Energies (a.u.)
    -----------------------

    Doubly Occupied:

       1A    -20.605133     2A    -20.538158     3A    -11.372305
       4A    -11.237360     5A    -11.231332     6A    -11.224707
       7A    -11.214124     8A     -1.477137     9A     -1.367687
      10A     -1.096443    11A     -1.021079    12A     -0.912553
      13A     -0.825290    14A     -0.805692    15A     -0.705910
      16A     -0.685449    17A     -0.652914    18A     -0.643129
      19A     -0.590012    20A     -0.587159    21A     -0.582361
      22A     -0.539183    23A     -0.517334    24A     -0.495734
      25A     -0.485827    26A     -0.479834    27A     -0.472729
      28A     -0.438836

  @DF-RHF Final Energy:  -345.04756859076087

   => Energetics <=

    Nuclear Repulsion Energy =            305.3867108315118912
    One-Electron Energy =               -1075.2577324272342594
    Two-Electron Energy =                 424.8234530049617206
    DFT Exchange-Correlation Energy =       0.0000000000000000
    Empirical Dispersion Energy =           0.0000000000000000
    PCM Polarization Energy =               0.0000000000000000
    EFP Energy =                            0.0000000000000000
    Total Energy =                       -345.0475685907606476
    Molecular point group: c1
  Basis Set: CC-PVTZ
  Basis Set:

  -Total Gradient:
     Atom            X                  Y                   Z
    ------   -----------------  -----------------  -----------------
       1       -0.000029341076     0.000014792830    -0.000004094191
       2       -0.000098755144    -0.000347827660    -0.000064873736
       3        0.000142798683     0.000373089696     0.000173552303
       4        0.000151368312     0.000319471327    -0.000285093497
       5        0.000031915325    -0.000022381104    -0.000042034321
       6       -0.000012958909    -0.000016449677    -0.000010311151
       7       -0.000190364310    -0.000286331802     0.000231472009
       8        0.000007671626    -0.000025244151     0.000010610474
       9        0.000007095461    -0.000003044930    -0.000018804611
      10       -0.000000504515    -0.000006498577    -0.000005193511
      11       -0.000002880911    -0.000003050688    -0.000004391292
      12       -0.000001270128    -0.000005313247     0.000020821280
      13       -0.000003168347     0.000008807213     0.000001388398
      14        0.000000444180     0.000002594201    -0.000007541648
      15       -0.000005131644    -0.000009696213     0.000001453307
      16        0.000001267434     0.000002853494     0.000004814686
      17        0.000001813970     0.000004229288    -0.000001774498

  **** Optimization is complete! (in 6 steps) ****
    Final optimized geometry and variables:
    Molecular point group: c1

    Geometry (in Angstrom), charge = 0, multiplicity = 1:

    H           -2.857801654251     0.879403937765     1.023572623555
    O           -2.076797517502     0.356778014424     1.128975687180
    C           -1.623068748113     0.031819708431    -0.077659384073
    C           -0.345863105819    -0.760427554191    -0.024262416250
    O           -2.174491496739     0.367541640258    -1.069073880635
    C            0.876061924375     0.165865730227    -0.034438075804
    H           -0.331408675851    -1.407919194869    -0.889858212737
    H           -0.342134764857    -1.370957742967     0.869176073640
    C            2.190652780889    -0.607527968058    -0.002287089397
    H            0.839927796605     0.787433545181    -0.922982315271
    H            0.827133182837     0.833638418145     0.819993737945
    C            3.412959518274     0.303854921673    -0.014713103834
    H            2.231777352305    -1.279219938875    -0.854884620466
    H            2.216679599307    -1.235025599366     0.884063043983
    H            3.431962769343     0.920351149652    -0.906900136642
    H            4.330035017331    -0.272887169406     0.008648125929
    H            3.416234486480     0.965960951033     0.844518613301

  Mulliken Charges: (a.u.)
   Center  Symbol    Alpha    Beta     Spin     Total
       1     H     0.38031  0.38031  0.00000  0.23938
       2     O     4.16356  4.16356  0.00000 -0.32712
       3     C     2.80487  2.80487  0.00000  0.39026
       4     C     3.08653  3.08653  0.00000 -0.17306
       5     O     4.19875  4.19875  0.00000 -0.39749
       6     C     3.09947  3.09947  0.00000 -0.19894
       7     H     0.43809  0.43809  0.00000  0.12381
       8     H     0.44214  0.44214  0.00000  0.11572
       9     C     3.08748  3.08748  0.00000 -0.17497
      10     H     0.44307  0.44307  0.00000  0.11386
      11     H     0.44676  0.44676  0.00000  0.10648
      12     C     3.14933  3.14933  0.00000 -0.29866
      13     H     0.45213  0.45213  0.00000  0.09573
      14     H     0.45302  0.45302  0.00000  0.09395
      15     H     0.45319  0.45319  0.00000  0.09362
      16     H     0.44713  0.44713  0.00000  0.10573
      17     H     0.45415  0.45415  0.00000  0.09169

   Total alpha = 28.00000, Total beta = 28.00000, Total charge =  0.00000

*** Psi4 exiting successfully. Buy a developer a beer!
