  ==> Input File <==

--------------------------------------------------------------------------
set {
	reference rhf
	basis 6-31G*
}

set_num_threads( 4 )
memory 2 gb

molecule MOL {
0 1

H	 3.089270	 -1.380733	 0.000000
O	 2.178328	 -1.639175	 0.000000
C	 1.368216	 -0.558384	 0.000000
C	 0.040020	 -0.623917	 -0.401128
C	 1.905653	 0.646048	 0.419448
H	 -0.376268	 -1.562222	 -0.727198
C	 -0.749153	 0.513859	 -0.382590
H	 2.931426	 0.698049	 0.729545
C	 1.108751	 1.780405	 0.434989
H	 -1.775608	 0.450784	 -0.695302
C	 -0.220318	 1.721748	 0.035108
C	 1.679800	 3.077607	 0.884478
H	 -0.831499	 2.606752	 0.050305
O	 2.802707	 3.231262	 1.245055
H	 0.981674	 3.919919	 0.865034

	symmetry c1
}
set optking {
	frozen_dihedral = ("
		4 3 2 1
	")
}

ee = optimize('scf')
oeprop('DIPOLE', 'QUADRUPOLE', 'MULLIKEN_CHARGES')
f=open( 'psi4out.xyz', 'w' )
f.write( "15  " )
f.write( str(ee) + "\n" )
f.write( MOL.save_string_xyz() )
f.close()
--------------------------------------------------------------------------

    Molecular point group: c1
  Charge       = 0
  Multiplicity = 1
  Basis Set: 6-31G*
  Basis Set:
  @DF-RHF Final Energy:  -418.28488886699017
    Total Energy =                       -418.2848888669902863
    Molecular point group: c1
  Basis Set: 6-31G*
  Basis Set:
  Basis Set: 6-31G*
  Basis Set:
  @DF-RHF Final Energy:  -418.28685142932034
    Total Energy =                       -418.2868514293207909
  Basis Set: 6-31G*
  Basis Set:
  Basis Set: 6-31G*
  Basis Set:
  @DF-RHF Final Energy:  -418.28674842133199
    Total Energy =                       -418.2867484213320495
  Basis Set: 6-31G*
  Basis Set:
  Basis Set: 6-31G*
  Basis Set:
  @DF-RHF Final Energy:  -418.28649687222844
    Total Energy =                       -418.2864968722279855
  Basis Set: 6-31G*
  Basis Set:
  Basis Set: 6-31G*
  Basis Set:
  @DF-RHF Final Energy:  -418.28705215926828
    Total Energy =                       -418.2870521592685691
  Basis Set: 6-31G*
  Basis Set:
  Charge       = 0
  Multiplicity = 1
  Basis Set: 6-31G*
  Basis Set:

    Orbital Energies (a.u.)
    -----------------------

    Doubly Occupied:

       1A    -20.599651     2A    -20.566893     3A    -11.335221
       4A    -11.311490     5A    -11.253364     6A    -11.251212
       7A    -11.248153     8A    -11.244951     9A    -11.244228
      10A     -1.418952    11A     -1.407412    12A     -1.169955
      13A     -1.049594    14A     -1.026127    15A     -0.900957
      16A     -0.852747    17A     -0.796853    18A     -0.753439
      19A     -0.700443    20A     -0.667327    21A     -0.661408
      22A     -0.628599    23A     -0.614388    24A     -0.604980
      25A     -0.568958    26A     -0.552626    27A     -0.535392
      28A     -0.517229    29A     -0.486113    30A     -0.426160
      31A     -0.353248    32A     -0.328198

  @DF-RHF Final Energy:  -418.28705582120006

   => Energetics <=

    Nuclear Repulsion Energy =            403.2630286701165687
    One-Electron Energy =               -1368.9476337789080844
    Two-Electron Energy =                 547.3975492875906639
    DFT Exchange-Correlation Energy =       0.0000000000000000
    Empirical Dispersion Energy =           0.0000000000000000
    PCM Polarization Energy =               0.0000000000000000
    EFP Energy =                            0.0000000000000000
    Total Energy =                       -418.2870558212008518
    Molecular point group: c1
  Basis Set: 6-31G*
  Basis Set:

  -Total Gradient:
     Atom            X                  Y                   Z
    ------   -----------------  -----------------  -----------------
       1        0.000004138079     0.000040453737    -0.002051105262
       2        0.000194199497     0.000116287568     0.001895595527
       3       -0.000820887748    -0.000500547470     0.001492534788
       4        0.000654092869     0.000164505594    -0.001354698935
       5       -0.000060440030     0.000191977480     0.000047557579
       6        0.000020398514     0.000006480000     0.000004913570
       7       -0.000012334948     0.000381492842     0.000075061444
       8        0.000009012048     0.000005760868    -0.000004665502
       9        0.000322385650    -0.000130846043    -0.000005924884
      10        0.000002567714    -0.000026878265    -0.000006767028
      11       -0.000296813948    -0.000233282566    -0.000117067562
      12       -0.000081346037    -0.000004222251     0.000063636797
      13        0.000029885470     0.000019782740     0.000018222547
      14        0.000037987332    -0.000023521412    -0.000026879014
      15       -0.000002844469    -0.000007442820    -0.000030414064

  **** Optimization is complete! (in 6 steps) ****
    Final optimized geometry and variables:
    Molecular point group: c1

    Geometry (in Angstrom), charge = 0, multiplicity = 1:

    H            1.857209964394    -2.384288382599    -0.290659848832
    O            0.929936289933    -2.577884753366    -0.284785316337
    C            0.201990609886    -1.438067384202    -0.251705434352
    C           -1.126301629906    -1.516398750049    -0.662240863969
    C            0.726190257248    -0.232559236895     0.166255507424
    H           -1.509402956238    -2.464598132283    -0.990562150269
    C           -1.923548111343    -0.390568467193    -0.639056021046
    H            1.748757575274    -0.151288894823     0.488496967207
    C           -0.081316209523     0.901149149061     0.177624197812
    H           -2.948567953576    -0.459962429923    -0.954883677652
    C           -1.404815316768     0.827623824437    -0.219822762903
    C            0.482970599058     2.200179357833     0.623733645275
    H           -2.024975574413     1.706495224326    -0.206251591149
    O            1.609542527605     2.359345009353     0.973414438392
    H           -0.219579633783     3.038461560555     0.612334551999

  Mulliken Charges: (a.u.)
   Center  Symbol    Alpha    Beta     Spin     Total
       1     H     0.26924  0.26924  0.00000  0.46153
       2     O     4.37902  4.37902  0.00000 -0.75805
       3     C     2.79570  2.79570  0.00000  0.40860
       4     C     3.11246  3.11246  0.00000 -0.22492
       5     C     3.13332  3.13332  0.00000 -0.26665
       6     H     0.38571  0.38571  0.00000  0.22859
       7     C     3.09692  3.09692  0.00000 -0.19384
       8     H     0.38058  0.38058  0.00000  0.23883
       9     C     3.04654  3.04654  0.00000 -0.09307
      10     H     0.39259  0.39259  0.00000  0.21482
      11     C     3.11415  3.11415  0.00000 -0.22831
      12     C     2.83228  2.83228  0.00000  0.33544
      13     H     0.39287  0.39287  0.00000  0.21427
      14     O     4.24810  4.24810  0.00000 -0.49620
      15     H     0.42052  0.42052  0.00000  0.15895

   Total alpha = 32.00000, Total beta = 32.00000, Total charge = -0.00000
