                              Psi4 1.0.54 Driver

  ==> Input File <==

--------------------------------------------------------------------------
set {
	reference rhf
	basis cc-pvtz
}

set_num_threads( 4 )
memory 2 gb

molecule MOL {
0 1

H	 -1.843565	 1.912371	 1.003397
C	 -2.052107	 0.880795	 1.253559
C	 -0.771464	 0.062223	 1.305606
H	 -2.729621	 0.494384	 0.503974
H	 -2.553336	 0.855803	 2.213792
C	 0.000000	 0.039916	 0.000014
H	 -0.982187	 -0.967614	 1.581161
H	 -0.103818	 0.438013	 2.076269
C	 1.286532	 -0.763243	 0.000268
O	 -0.380827	 0.617184	 -0.965445
C	 2.547023	 0.087626	 -0.000114
H	 1.264245	 -1.421103	 -0.864380
H	 1.264290	 -1.420353	 0.865489
H	 2.584452	 0.725630	 -0.872909
H	 3.427035	 -0.544422	 0.000125
H	 2.584484	 0.726356	 0.872143

	symmetry c1
}
set optking {
	frozen_dihedral = ("
		3 6 9 12
	")
}

ee,wfn = optimize('scf', return_wfn=True)
oeprop( wfn, 'DIPOLE', 'QUADRUPOLE', 'MULLIKEN_CHARGES')
f=open( 'psi4out.xyz', 'w' )
f.write( "16  " )
f.write( str(ee) + "\n" )
f.write( MOL.save_string_xyz() )
f.close()
--------------------------------------------------------------------------

    Molecular point group: c1
  Charge       = 0
  Multiplicity = 1
  Basis Set: CC-PVTZ
  Basis Set:
  @DF-RHF Final Energy:  -270.12911264134016
    Total Energy =                       -270.1291126413403276
    Molecular point group: c1
  Basis Set: CC-PVTZ
  Basis Set:
  Basis Set: CC-PVTZ
  Basis Set:
  @DF-RHF Final Energy:  -270.12973445716068
    Total Energy =                       -270.1297344571606232
  Basis Set: CC-PVTZ
  Basis Set:
  Basis Set: CC-PVTZ
  Basis Set:
  @DF-RHF Final Energy:  -270.12966542516784
    Total Energy =                       -270.1296654251679001
  Basis Set: CC-PVTZ
  Basis Set:
  Basis Set: CC-PVTZ
  Basis Set:
  @DF-RHF Final Energy:  -270.12944990064079
    Total Energy =                       -270.1294499006409637
  Basis Set: CC-PVTZ
  Basis Set:
  @DF-RHF Final Energy:  -270.12929655924120
    Total Energy =                       -270.1292965592413111
  @DF-RHF Final Energy:  -270.12101268527283
    Total Energy =                       -270.1210126852728308
  @DF-RHF Final Energy:  -270.12953744801052
    Total Energy =                       -270.1295374480104670
  Basis Set: CC-PVTZ
  Basis Set:
  @DF-RHF Final Energy:  -270.12989992516827
    Total Energy =                       -270.1298999251682744
  Basis Set: CC-PVTZ
  Basis Set:
  Basis Set: CC-PVTZ
  Basis Set:
  @DF-RHF Final Energy:  -270.12995485892696
    Total Energy =                       -270.1299548589267943
  Basis Set: CC-PVTZ
  Basis Set:
  Basis Set: CC-PVTZ
  Basis Set:
  @DF-RHF Final Energy:  -270.12998887040294
    Total Energy =                       -270.1299888704027126
  Basis Set: CC-PVTZ
  Basis Set:
  Charge       = 0
  Multiplicity = 1
  Basis Set: CC-PVTZ
  Basis Set:

    Orbital Energies (a.u.)
    -----------------------

    Doubly Occupied:

       1A    -20.537232     2A    -11.317474     3A    -11.233141
       4A    -11.230376     5A    -11.222316     6A    -11.211837
       7A     -1.397878     8A     -1.070991     9A     -1.037961
      10A     -0.914025    11A     -0.853405    12A     -0.727562
      13A     -0.666966    14A     -0.644307    15A     -0.625024
      16A     -0.602352    17A     -0.567720    18A     -0.538704
      19A     -0.531060    20A     -0.512832    21A     -0.503383
      22A     -0.498427    23A     -0.480053    24A     -0.398350

  @DF-RHF Final Energy:  -270.12998910660190

   => Energetics <=

    Nuclear Repulsion Energy =            240.7480662924607770
    One-Electron Energy =                -843.1093616278702711
    Two-Electron Energy =                 332.2313062288077958
    DFT Exchange-Correlation Energy =       0.0000000000000000
    Empirical Dispersion Energy =           0.0000000000000000
    PCM Polarization Energy =               0.0000000000000000
    EFP Energy =                            0.0000000000000000
    Total Energy =                       -270.1299891066017267
    Molecular point group: c1
  Basis Set: CC-PVTZ
  Basis Set:

  -Total Gradient:
     Atom            X                  Y                   Z
    ------   -----------------  -----------------  -----------------
       1       -0.000003177121    -0.000004915695    -0.000002590456
       2        0.000006170950     0.000020906070     0.000018718372
       3       -0.000020888151    -0.000025500977    -0.000038018920
       4        0.000008423902    -0.000006231006     0.000005163346
       5       -0.000002877854    -0.000001887164    -0.000002603608
       6       -0.000003120806    -0.000027984622     0.000046449164
       7        0.000000969976     0.000009520384     0.000017419071
       8        0.000002521252     0.000009436704     0.000001502128
       9       -0.000005185291     0.000001535050    -0.000016733728
      10        0.000015070851    -0.000001524964    -0.000027480447
      11       -0.000007403968     0.000003103779     0.000009932795
      12        0.000004252847     0.000019709287    -0.000011958474
      13       -0.000003526628     0.000014240809    -0.000001768818
      14        0.000000812471    -0.000010484368     0.000008080548
      15        0.000001248883    -0.000000360168    -0.000000391976
      16        0.000006708686     0.000000436882    -0.000005718998

  **** Optimization is complete! (in 8 steps) ****
    Final optimized geometry and variables:
    Molecular point group: c1

    Geometry (in Angstrom), charge = 0, multiplicity = 1:

    H           -1.930673494762     1.586462487103     1.021401220381
    C           -2.204868933243     0.540437005216     0.984116894789
    C           -0.970512347426    -0.344434943573     0.924902845571
    H           -2.825519548245     0.397652491212     0.109851110571
    H           -2.793080307171     0.309161399483     1.864115681519
    C           -0.086026142215    -0.098777121259    -0.278018310676
    H           -1.245063069534    -1.396662547630     0.910134230487
    H           -0.355837832511    -0.221006144502     1.813527194986
    C            1.208026934542    -0.889701563480    -0.357989095707
    O           -0.371097734988     0.683722194220    -1.125390724979
    C            2.422420088688     0.017283239700    -0.147523976522
    H            1.252659146195    -1.334307573600    -1.344856424544
    H            1.208788377374    -1.691938909194     0.370235614678
    H            2.436497310699     0.807179876903    -0.885932707835
    H            3.339564584269    -0.551645457855    -0.234873442826
    H            2.408163888105     0.474031803668     0.836167946222

  Mulliken Charges: (a.u.)
   Center  Symbol    Alpha    Beta     Spin     Total
       1     H     0.44855  0.44855  0.00000  0.10290
       2     C     3.14097  3.14097  0.00000 -0.28193
       3     C     3.10418  3.10418  0.00000 -0.20836
       4     H     0.44691  0.44691  0.00000  0.10617
       5     H     0.45077  0.45077  0.00000  0.09845
       6     C     2.86405  2.86405  0.00000  0.27190
       7     H     0.44487  0.44487  0.00000  0.11026
       8     H     0.44545  0.44545  0.00000  0.10910
       9     C     3.09544  3.09544  0.00000 -0.19088
      10     O     4.17819  4.17819  0.00000 -0.35638
      11     C     3.14628  3.14628  0.00000 -0.29256
      12     H     0.44121  0.44121  0.00000  0.11758
      13     H     0.44861  0.44861  0.00000  0.10278
      14     H     0.44133  0.44133  0.00000  0.11734
      15     H     0.44774  0.44774  0.00000  0.10452
      16     H     0.45544  0.45544  0.00000  0.08912

   Total alpha = 24.00000, Total beta = 24.00000, Total charge = -0.00000

*** Psi4 exiting successfully. Buy a developer a beer!
