                              Psi4 1.0.54 Driver

  ==> Input File <==

--------------------------------------------------------------------------
set {
	reference rhf
	basis cc-pvtz
}

set_num_threads( 4 )
memory 2 gb

molecule MOL {
0 1

H	 2.614283	 2.028610	 0.296620
O	 3.358864	 1.662087	 -0.142800
C	 3.565468	 0.338079	 0.273842
C	 2.533667	 -0.637565	 -0.272227
H	 4.548038	 0.064914	 -0.086598
H	 3.593945	 0.282242	 1.360360
C	 1.114816	 -0.402372	 0.240993
H	 2.544552	 -0.580764	 -1.356576
H	 2.850574	 -1.642962	 -0.005497
C	 0.113298	 -1.420414	 -0.302504
H	 0.796373	 0.598427	 -0.031033
H	 1.113377	 -0.446476	 1.328807
C	 -0.944087	 -0.845979	 -1.247076
H	 0.653115	 -2.216352	 -0.809758
H	 -0.393998	 -1.887412	 0.537159
C	 -0.408529	 -0.336731	 -2.584082
H	 -1.682359	 -1.618793	 -1.442629
H	 -1.476144	 -0.042131	 -0.743193
C	 -1.511261	 0.133764	 -3.529084
H	 0.161479	 -1.128108	 -3.066037
H	 0.285600	 0.482186	 -2.421100
C	 -0.979753	 0.646354	 -4.863491
H	 -2.203591	 -0.684322	 -3.707949
H	 -2.087012	 0.918603	 -3.045762
H	 -0.425851	 -0.126011	 -5.386830
H	 -1.787417	 0.969333	 -5.510384
H	 -0.312790	 1.490348	 -4.721411

	symmetry c1
}
set optking {
	frozen_dihedral = ("
		14 10 7 4
	")
}

ee,wfn = optimize('scf', return_wfn=True)
oeprop( wfn, 'DIPOLE', 'QUADRUPOLE', 'MULLIKEN_CHARGES')
f=open( 'psi4out.xyz', 'w' )
f.write( "27  " )
f.write( str(ee) + "\n" )
f.write( MOL.save_string_xyz() )
f.close()
--------------------------------------------------------------------------

    Molecular point group: c1
  Charge       = 0
  Multiplicity = 1
  Basis Set: CC-PVTZ
  Basis Set:
  @DF-RHF Final Energy:  -388.42245061440724
    Total Energy =                       -388.4224506144068982
    Molecular point group: c1
  Basis Set: CC-PVTZ
  Basis Set:
  Basis Set: CC-PVTZ
  Basis Set:
  @DF-RHF Final Energy:  -388.42273817139233
    Total Energy =                       -388.4227381713920977
  Basis Set: CC-PVTZ
  Basis Set:
  Basis Set: CC-PVTZ
  Basis Set:
  @DF-RHF Final Energy:  -388.42285330285068
    Total Energy =                       -388.4228533028510810
  Basis Set: CC-PVTZ
  Basis Set:
  Basis Set: CC-PVTZ
  Basis Set:
  @DF-RHF Final Energy:  -388.42284890496813
    Total Energy =                       -388.4228489049679638
  Basis Set: CC-PVTZ
  Basis Set:
  Basis Set: CC-PVTZ
  Basis Set:
  @DF-RHF Final Energy:  -388.42286372170321
    Total Energy =                       -388.4228637217039477
  Basis Set: CC-PVTZ
  Basis Set:
  Charge       = 0
  Multiplicity = 1
  Basis Set: CC-PVTZ
  Basis Set:

    Orbital Energies (a.u.)
    -----------------------

    Doubly Occupied:

       1A    -20.545700     2A    -11.264904     3A    -11.217030
       4A    -11.214175     5A    -11.213299     6A    -11.212267
       7A    -11.212005     8A    -11.209715     9A    -11.204954
      10A     -1.363421    11A     -1.094488    12A     -1.059875
      13A     -1.011212    14A     -0.948027    15A     -0.888339
      16A     -0.822974    17A     -0.796454    18A     -0.778900
      19A     -0.697398    20A     -0.647840    21A     -0.633881
      22A     -0.617427    23A     -0.610344    24A     -0.583455
      25A     -0.572344    26A     -0.552789    27A     -0.544558
      28A     -0.523281    29A     -0.506061    30A     -0.501960
      31A     -0.481632    32A     -0.472026    33A     -0.467868
      34A     -0.459051    35A     -0.453615    36A     -0.438290
      37A     -0.425027

  @DF-RHF Final Energy:  -388.42286388656879

   => Energetics <=

    Nuclear Repulsion Energy =            469.7153455219466309
    One-Electron Energy =               -1457.7832657597900834
    Two-Electron Energy =                 599.6450563512745475
    DFT Exchange-Correlation Energy =       0.0000000000000000
    Empirical Dispersion Energy =           0.0000000000000000
    PCM Polarization Energy =               0.0000000000000000
    EFP Energy =                            0.0000000000000000
    Total Energy =                       -388.4228638865689618
    Molecular point group: c1
  Basis Set: CC-PVTZ
  Basis Set:

  -Total Gradient:
     Atom            X                  Y                   Z
    ------   -----------------  -----------------  -----------------
       1       -0.000000204165    -0.000008112544    -0.000000184408
       2        0.000022363870    -0.000007408248    -0.000010494899
       3       -0.000022601240     0.000017767588     0.000024684663
       4        0.000115038619    -0.000380413110     0.000495157261
       5       -0.000001060079     0.000013057116    -0.000005007748
       6        0.000008337000    -0.000006318150     0.000006144619
       7       -0.000191226352     0.000619893874    -0.000887502973
       8       -0.000008927522    -0.000003056128    -0.000012098311
       9        0.000002087300    -0.000002584486     0.000003572764
      10        0.000121106440    -0.000668001903     0.001126799844
      11        0.000002389171    -0.000002203347    -0.000014066773
      12       -0.000006239185    -0.000010866435     0.000013532816
      13        0.000005308765    -0.000009306773    -0.000004299879
      14       -0.000049028302     0.000438735072    -0.000752129614
      15        0.000002774998     0.000008578534     0.000014302987
      16       -0.000011705765    -0.000016337025    -0.000012190519
      17        0.000002443892    -0.000007285275     0.000003370720
      18       -0.000000338266    -0.000004924338     0.000000577663
      19        0.000001768053     0.000029364271     0.000011169375
      20        0.000007027915    -0.000008785751    -0.000005215597
      21        0.000009489487     0.000011249418     0.000009235910
      22       -0.000003927543    -0.000013274173     0.000000160181
      23       -0.000000363438    -0.000003097133     0.000000679831
      24       -0.000008801102     0.000011783348     0.000004997314
      25        0.000010073635    -0.000007224063    -0.000006983613
      26       -0.000008035523    -0.000000809163    -0.000008028416
      27        0.000002249337     0.000009578827     0.000003816814

  **** Optimization is complete! (in 6 steps) ****
    Final optimized geometry and variables:
    Molecular point group: c1

    Geometry (in Angstrom), charge = 0, multiplicity = 1:

    H            1.756625360774     2.115994357023     1.605991702243
    O            2.505809870736     1.752272107505     1.172473135036
    C            2.745295191335     0.446762470824     1.629226578403
    C            1.741445041438    -0.569867900636     1.107540828184
    H            3.736227983697     0.188925105737     1.280519210768
    H            2.770558398105     0.424010481699     2.716992994743
    C            0.315608040519    -0.360212783631     1.616073525588
    H            1.755633719409    -0.544337509011     0.022607282608
    H            2.081307959679    -1.559385693957     1.403293215075
    C           -0.697671199812    -1.396654295095     1.084884201424
    H           -0.022388831867     0.636878263354     1.352306394837
    H            0.330804537707    -0.394923975155     2.701737507363
    C           -1.753228485726    -0.831675700999     0.131235558042
    H           -0.166128465828    -2.197101182292     0.578261717451
    H           -1.209828545385    -1.858511585024     1.921408818548
    C           -1.203316736988    -0.329432694740    -1.202011294273
    H           -2.491120605312    -1.604777237012    -0.065432346223
    H           -2.286759284690    -0.024617336659     0.628299376879
    C           -2.285860046416     0.214947259802    -2.130303010562
    H           -0.681361132898    -1.143071547594    -1.700787917364
    H           -0.462602920893     0.446494648068    -1.031615809714
    C           -1.738961020488     0.704818433287    -3.466999384436
    H           -3.029313993085    -0.557662160561    -2.306879878874
    H           -2.806667390572     1.029764018649    -1.634494657062
    H           -1.242024393044    -0.096570155797    -4.003713684948
    H           -2.532194478792     1.084456513134    -4.100887183498
    H           -1.017543314234     1.502741860481    -3.326003875387

  Mulliken Charges: (a.u.)
   Center  Symbol    Alpha    Beta     Spin     Total
       1     H     0.39254  0.39254  0.00000  0.21492
       2     O     4.20577  4.20577  0.00000 -0.41154
       3     C     2.98080  2.98080  0.00000  0.03839
       4     C     3.08862  3.08862  0.00000 -0.17724
       5     H     0.44820  0.44820  0.00000  0.10360
       6     H     0.46912  0.46912  0.00000  0.06176
       7     C     3.11889  3.11889  0.00000 -0.23779
       8     H     0.44867  0.44867  0.00000  0.10266
       9     H     0.45373  0.45373  0.00000  0.09255
      10     C     3.10417  3.10417  0.00000 -0.20835
      11     H     0.45540  0.45540  0.00000  0.08920
      12     H     0.44322  0.44322  0.00000  0.11356
      13     C     3.09491  3.09491  0.00000 -0.18982
      14     H     0.45336  0.45336  0.00000  0.09329
      15     H     0.44200  0.44200  0.00000  0.11600
      16     C     3.09324  3.09324  0.00000 -0.18648
      17     H     0.44846  0.44846  0.00000  0.10307
      18     H     0.45469  0.45469  0.00000  0.09062
      19     C     3.08313  3.08313  0.00000 -0.16625
      20     H     0.45384  0.45384  0.00000  0.09232
      21     H     0.44969  0.44969  0.00000  0.10062
      22     C     3.15004  3.15004  0.00000 -0.30008
      23     H     0.45437  0.45437  0.00000  0.09125
      24     H     0.45514  0.45514  0.00000  0.08972
      25     H     0.45529  0.45529  0.00000  0.08942
      26     H     0.44870  0.44870  0.00000  0.10261
      27     H     0.45400  0.45400  0.00000  0.09199

   Total alpha = 37.00000, Total beta = 37.00000, Total charge = -0.00000

*** Psi4 exiting successfully. Buy a developer a beer!
