                              Psi4 1.0.54 Driver

  ==> Input File <==

--------------------------------------------------------------------------
set {
	reference rhf
	basis cc-pvtz
}

set_num_threads( 4 )
memory 2 gb

molecule MOL {
0 1

H	 -2.644180	 -0.653737	 1.272255
C	 -2.092774	 -0.380414	 0.391915
O	 -0.808934	 -0.154049	 0.752536
F	 -2.163230	 -1.351640	 -0.507133
F	 -2.627232	 0.691260	 -0.169301
C	 0.085006	 0.250800	 -0.215074
C	 1.370439	 -0.548013	 -0.012993
Cl	 0.421658	 1.987697	 -0.091007
H	 -0.272219	 0.063284	 -1.212508
F	 2.108113	 -0.510024	 -1.093464
F	 1.061847	 -1.801386	 0.221833
F	 2.075636	 -0.105092	 0.991382

	symmetry c1
}
set optking {
	frozen_dihedral = ("
		10 7 6 9
	")
}

ee,wfn = optimize('scf', return_wfn=True)
oeprop( wfn, 'DIPOLE', 'QUADRUPOLE', 'MULLIKEN_CHARGES')
f=open( 'psi4out.xyz', 'w' )
f.write( "12  " )
f.write( str(ee) + "\n" )
f.write( MOL.save_string_xyz() )
f.close()
--------------------------------------------------------------------------

    Molecular point group: c1
  Charge       = 0
  Multiplicity = 1
  Basis Set: CC-PVTZ
  Basis Set:
  @DF-RHF Final Energy: -1146.61822592362182
    Total Energy =                      -1146.6182259236211394
    Molecular point group: c1
  Basis Set: CC-PVTZ
  Basis Set:
  Basis Set: CC-PVTZ
  Basis Set:
  @DF-RHF Final Energy: -1146.61852239118025
    Total Energy =                      -1146.6185223911804769
  Basis Set: CC-PVTZ
  Basis Set:
  Basis Set: CC-PVTZ
  Basis Set:
  @DF-RHF Final Energy: -1146.61875710664435
    Total Energy =                      -1146.6187571066448072
  Basis Set: CC-PVTZ
  Basis Set:
  Basis Set: CC-PVTZ
  Basis Set:
  @DF-RHF Final Energy: -1146.61876844616836
    Total Energy =                      -1146.6187684461692697
  Basis Set: CC-PVTZ
  Basis Set:
  Basis Set: CC-PVTZ
  Basis Set:
  @DF-RHF Final Energy: -1146.61877139855551
    Total Energy =                      -1146.6187713985557366
  Basis Set: CC-PVTZ
  Basis Set:
  Basis Set: CC-PVTZ
  Basis Set:
  @DF-RHF Final Energy: -1146.61877252692580
    Total Energy =                      -1146.6187725269260227
  Basis Set: CC-PVTZ
  Basis Set:
  Charge       = 0
  Multiplicity = 1
  Basis Set: CC-PVTZ
  Basis Set:

    Orbital Energies (a.u.)
    -----------------------

    Doubly Occupied:

       1A   -104.855146     2A    -26.354919     3A    -26.354898
       4A    -26.352106     5A    -26.343980     6A    -26.343960
       7A    -20.642114     8A    -11.520784     9A    -11.484921
      10A    -11.401643    11A    -10.580685    12A     -8.047466
      13A     -8.045505    14A     -8.045413    15A     -1.768075
      16A     -1.725717    17A     -1.664205    18A     -1.659845
      19A     -1.645647    20A     -1.488986    21A     -1.176913
      22A     -1.051625    23A     -0.992158    24A     -0.925050
      25A     -0.864991    26A     -0.859512    27A     -0.851598
      28A     -0.830808    29A     -0.819680    30A     -0.794529
      31A     -0.734633    32A     -0.733948    33A     -0.712873
      34A     -0.708447    35A     -0.685051    36A     -0.681425
      37A     -0.665637    38A     -0.663960    39A     -0.650737
      40A     -0.637558    41A     -0.599522    42A     -0.581640
      43A     -0.524007    44A     -0.477873    45A     -0.468646

  @DF-RHF Final Energy: -1146.61877318850520

   => Energetics <=

    Nuclear Repulsion Energy =            737.5812286951280612
    One-Electron Energy =               -3058.3623347164889310
    Two-Electron Energy =                1174.1623328328555544
    DFT Exchange-Correlation Energy =       0.0000000000000000
    Empirical Dispersion Energy =           0.0000000000000000
    PCM Polarization Energy =               0.0000000000000000
    EFP Energy =                            0.0000000000000000
    Total Energy =                      -1146.6187731885052017
    Molecular point group: c1
  Basis Set: CC-PVTZ
  Basis Set:

  -Total Gradient:
     Atom            X                  Y                   Z
    ------   -----------------  -----------------  -----------------
       1        0.000012292738     0.000006734162     0.000008885683
       2       -0.000163850439    -0.000017095178    -0.000010374685
       3        0.000198413856    -0.000009620234    -0.000115083902
       4        0.000034755648     0.000074070195     0.000018375379
       5        0.000071988288    -0.000052475359     0.000003234080
       6       -0.004152964274    -0.006226234035     0.001672215050
       7        0.003113103322     0.005526982006     0.001874414191
       8        0.000006220052     0.000108905681    -0.000008692060
       9        0.002851525554     0.004225944692    -0.001705606274
      10       -0.001941888213    -0.003584702885    -0.001688732153
      11        0.000008768552    -0.000046167363     0.000020268105
      12       -0.000038365058    -0.000006341629    -0.000068903416

  **** Optimization is complete! (in 7 steps) ****
    Final optimized geometry and variables:
    Molecular point group: c1

    Geometry (in Angstrom), charge = 0, multiplicity = 1:

    H           -2.659016053906    -0.615665527221     1.288076711740
    C           -2.099426251884    -0.370959815872     0.404513856405
    O           -0.821714613105    -0.118926441632     0.771347987544
    F           -2.149565448880    -1.375360714258    -0.458110200739
    F           -2.635160012902     0.674347460471    -0.203109950589
    C            0.076499061752     0.253007884463    -0.199601967340
    C            1.369538264660    -0.545460650116    -0.008894501078
    CL           0.432541833300     1.993774220651    -0.107613799245
    H           -0.268792885475     0.085954848118    -1.204252317962
    F            2.098461175626    -0.461076740768    -1.095817463569
    F            1.073363194708    -1.811523956124     0.166859625421
    F            2.076579515935    -0.148910156390     1.010592275942

  Mulliken Charges: (a.u.)
   Center  Symbol    Alpha    Beta     Spin     Total
       1     H     0.45182  0.45182  0.00000  0.09635
       2     C     2.73918  2.73918  0.00000  0.52163
       3     O     4.15489  4.15489  0.00000 -0.30979
       4     F     4.61750  4.61750  0.00000 -0.23499
       5     F     4.61502  4.61502  0.00000 -0.23005
       6     C     2.93964  2.93964  0.00000  0.12072
       7     C     2.66775  2.66775  0.00000  0.66450
       8    CL     8.57596  8.57596  0.00000 -0.15192
       9     H     0.43122  0.43122  0.00000  0.13755
      10     F     4.60505  4.60505  0.00000 -0.21009
      11     F     4.60386  4.60386  0.00000 -0.20772
      12     F     4.59810  4.59810  0.00000 -0.19619

   Total alpha = 45.00000, Total beta = 45.00000, Total charge =  0.00000

*** Psi4 exiting successfully. Buy a developer a beer!
