  ==> Input File <==

--------------------------------------------------------------------------
set {
	reference rhf
	basis 6-31G*
}

set_num_threads( 4 )
memory 2 gb

molecule MOL {
0 1

O	 0.391030	 1.298905	 0.000133
C	 0.503002	 0.111612	 0.000005
C	 -0.702327	 -0.811998	 -0.000075
C	 1.863306	 -0.554493	 0.000030
C	 -2.034804	 -0.076943	 0.079615
H	 -0.652320	 -1.426160	 -0.897335
H	 -0.592229	 -1.504745	 0.832238
H	 -2.158171	 0.595055	 -0.760873
H	 -2.857390	 -0.784471	 0.076046
H	 -2.097548	 0.515771	 0.984034
H	 1.974395	 -1.189404	 -0.874166
H	 2.638695	 0.198920	 -0.000196
H	 1.974487	 -1.188655	 0.874727

	symmetry c1
}
set optking {
	frozen_dihedral = ("
		6 3 2 1
	")
}

ee = optimize('scf')
oeprop('DIPOLE', 'QUADRUPOLE', 'MULLIKEN_CHARGES')
f=open( 'psi4out.xyz', 'w' )
f.write( "13  " )
f.write( str(ee) + "\n" )
f.write( MOL.save_string_xyz() )
f.close()
--------------------------------------------------------------------------

    Molecular point group: c1
  Charge       = 0
  Multiplicity = 1
  Basis Set: 6-31G*
  Basis Set:
  @DF-RHF Final Energy:  -230.99778216835603
    Total Energy =                       -230.9977821683560535
    Molecular point group: c1
  Basis Set: 6-31G*
  Basis Set:
  Basis Set: 6-31G*
  Basis Set:
  @DF-RHF Final Energy:  -230.99765675467168
    Total Energy =                       -230.9976567546715955
  Basis Set: 6-31G*
  Basis Set:
  Basis Set: 6-31G*
  Basis Set:
  @DF-RHF Final Energy:  -230.99779004901217
    Total Energy =                       -230.9977900490122522
  Basis Set: 6-31G*
  Basis Set:
  Basis Set: 6-31G*
  Basis Set:
  @DF-RHF Final Energy:  -230.99779239797513
    Total Energy =                       -230.9977923979752177
  Basis Set: 6-31G*
  Basis Set:
  Basis Set: 6-31G*
  Basis Set:
  @DF-RHF Final Energy:  -230.99779414433183
    Total Energy =                       -230.9977941443319764
  Basis Set: 6-31G*
  Basis Set:
  Basis Set: 6-31G*
  Basis Set:
  @DF-RHF Final Energy:  -230.99779563575913
    Total Energy =                       -230.9977956357590188
  Basis Set: 6-31G*
  Basis Set:
  Charge       = 0
  Multiplicity = 1
  Basis Set: 6-31G*
  Basis Set:

    Orbital Energies (a.u.)
    -----------------------

    Doubly Occupied:

       1A    -20.551458     2A    -11.326987     3A    -11.235066
       4A    -11.229188     5A    -11.214120     6A     -1.396837
       7A     -1.061485     8A     -1.000349     9A     -0.878090
      10A     -0.729995    11A     -0.658934    12A     -0.640494
      13A     -0.621814    14A     -0.583296    15A     -0.570286
      16A     -0.520422    17A     -0.512161    18A     -0.508387
      19A     -0.485610    20A     -0.403262

  @DF-RHF Final Energy:  -230.99779588927544

   => Energetics <=

    Nuclear Repulsion Energy =            176.9504466360077117
    One-Electron Energy =                -663.6400049030033870
    Two-Electron Energy =                 255.6917623777205222
    DFT Exchange-Correlation Energy =       0.0000000000000000
    Empirical Dispersion Energy =           0.0000000000000000
    PCM Polarization Energy =               0.0000000000000000
    EFP Energy =                            0.0000000000000000
    Total Energy =                       -230.9977958892751531
    Molecular point group: c1
  Basis Set: 6-31G*
  Basis Set:

  -Total Gradient:
     Atom            X                  Y                   Z
    ------   -----------------  -----------------  -----------------
       1       -0.000002134121    -0.000001776208    -0.000079350844
       2       -0.000003502026     0.000014700302     0.000101994055
       3        0.000051106867    -0.000068141729     0.000007889694
       4        0.000001180907     0.000003324380     0.000001195245
       5       -0.000002940123     0.000001979976     0.000005742822
       6       -0.000040049630     0.000050833006    -0.000039543085
       7       -0.000000152696     0.000002685301    -0.000001997775
       8        0.000001534105    -0.000001403805     0.000000731036
       9        0.000000794058     0.000000038014     0.000000770001
      10       -0.000002625688     0.000001615374     0.000000779709
      11       -0.000000719030    -0.000001687325     0.000000950975
      12       -0.000000409367    -0.000000325132     0.000000775384
      13       -0.000002083254    -0.000001842152     0.000000062783

  **** Optimization is complete! (in 7 steps) ****
    Final optimized geometry and variables:
    Molecular point group: c1

    Geometry (in Angstrom), charge = 0, multiplicity = 1:

    O            0.391027060442     1.299229495026     0.004519748897
    C            0.502766165253     0.112020610483    -0.013515362508
    C           -0.702655477306    -0.811243373606    -0.027669830357
    C            1.862927080751    -0.554290288967    -0.022888039403
    C           -2.035279012052    -0.076830194340     0.055891786318
    H           -0.649040879445    -1.409957001443    -0.935348435152
    H           -0.596527403733    -1.517988499638     0.793064070372
    H           -2.153289364661     0.607941078856    -0.774752153340
    H           -2.858117802525    -0.783778818253     0.037250663586
    H           -2.103097250471     0.502043451348     0.969095535570
    H            1.952450017294    -1.232719106234    -0.866015455842
    H            2.637422633231     0.197964514163    -0.077862437634
    H            1.996529553377    -1.143051406713     0.880251592865

  Mulliken Charges: (a.u.)
   Center  Symbol    Alpha    Beta     Spin     Total
       1     O     4.26023  4.26023  0.00000 -0.52046
       2     C     2.73680  2.73680  0.00000  0.52641
       3     C     3.20775  3.20775  0.00000 -0.41551
       4     C     3.28714  3.28714  0.00000 -0.57429
       5     C     3.23506  3.23506  0.00000 -0.47012
       6     H     0.40886  0.40886  0.00000  0.18227
       7     H     0.41009  0.41009  0.00000  0.17982
       8     H     0.40958  0.40958  0.00000  0.18084
       9     H     0.41993  0.41993  0.00000  0.16014
      10     H     0.41115  0.41115  0.00000  0.17770
      11     H     0.40935  0.40935  0.00000  0.18130
      12     H     0.39625  0.39625  0.00000  0.20749
      13     H     0.40779  0.40779  0.00000  0.18441

   Total alpha = 20.00000, Total beta = 20.00000, Total charge =  0.00000
