                              Psi4 1.0.54 Driver

  ==> Input File <==

--------------------------------------------------------------------------
set {
	reference rhf
	basis cc-pvtz
}

set_num_threads( 4 )
memory 2 gb

molecule MOL {
0 1

H	 -3.268214	 -0.875720	 0.463107
C	 -2.806015	 0.000007	 0.024886
N	 -1.391133	 0.000016	 0.301321
H	 -3.029448	 0.000055	 -1.045738
H	 -3.268126	 0.875758	 0.463150
C	 -0.979242	 1.158848	 1.063574
C	 -0.595735	 -0.135432	 -0.899732
H	 -1.168915	 2.085646	 0.514103
H	 -1.555513	 1.198465	 1.980322
C	 0.497202	 1.079968	 1.404025
H	 -0.892023	 -1.040687	 -1.416275
H	 -0.759262	 0.703138	 -1.583038
C	 0.880708	 -0.214312	 -0.559280
H	 0.793489	 1.985223	 1.920568
H	 0.660728	 0.241398	 2.087331
N	 1.292600	 0.944520	 0.202973
H	 1.456980	 -0.253929	 -1.476028
H	 1.070382	 -1.141110	 -0.009809
C	 2.707482	 0.944529	 0.479408
H	 2.983260	 1.855747	 0.995345
H	 3.265142	 0.904346	 -0.447934
H	 3.019211	 0.098264	 1.098131

	symmetry c1
}
set optking {
	frozen_dihedral = ("
		6 3 2 4
	")
}

ee,wfn = optimize('scf', return_wfn=True)
oeprop( wfn, 'DIPOLE', 'QUADRUPOLE', 'MULLIKEN_CHARGES')
f=open( 'psi4out.xyz', 'w' )
f.write( "22  " )
f.write( str(ee) + "\n" )
f.write( MOL.save_string_xyz() )
f.close()
--------------------------------------------------------------------------

    Molecular point group: c1
  Charge       = 0
  Multiplicity = 1
  Basis Set: CC-PVTZ
  Basis Set:
  @DF-RHF Final Energy:  -344.34392899728255
    Total Energy =                       -344.3439289972827737
    Molecular point group: c1
  Basis Set: CC-PVTZ
  Basis Set:
  Basis Set: CC-PVTZ
  Basis Set:
  @DF-RHF Final Energy:  -344.34450616212825
    Total Energy =                       -344.3445061621283685
  Basis Set: CC-PVTZ
  Basis Set:
  Basis Set: CC-PVTZ
  Basis Set:
  @DF-RHF Final Energy:  -344.34463289335679
    Total Energy =                       -344.3446328933567884
  Basis Set: CC-PVTZ
  Basis Set:
  Basis Set: CC-PVTZ
  Basis Set:
  @DF-RHF Final Energy:  -344.34463760698804
    Total Energy =                       -344.3446376069877033
  Basis Set: CC-PVTZ
  Basis Set:
  Charge       = 0
  Multiplicity = 1
  Basis Set: CC-PVTZ
  Basis Set:

    Orbital Energies (a.u.)
    -----------------------

    Doubly Occupied:

       1A    -15.537074     2A    -15.533740     3A    -11.237290
       4A    -11.237261     5A    -11.236271     6A    -11.236251
       7A    -11.234021     8A    -11.233858     9A     -1.254984
      10A     -1.203116    11A     -1.025540    12A     -0.991754
      13A     -0.912709    14A     -0.867675    15A     -0.836599
      16A     -0.754239    17A     -0.665836    18A     -0.636063
      19A     -0.631739    20A     -0.624875    21A     -0.620541
      22A     -0.580228    23A     -0.551615    24A     -0.550535
      25A     -0.542617    26A     -0.519674    27A     -0.498067
      28A     -0.487700    29A     -0.466215    30A     -0.456397
      31A     -0.350889    32A     -0.341399

  @DF-RHF Final Energy:  -344.34463825937951

   => Energetics <=

    Nuclear Repulsion Energy =            421.3727783298867280
    One-Electron Energy =               -1301.7212899860726338
    Two-Electron Energy =                 536.0038733968061706
    DFT Exchange-Correlation Energy =       0.0000000000000000
    Empirical Dispersion Energy =           0.0000000000000000
    PCM Polarization Energy =               0.0000000000000000
    EFP Energy =                            0.0000000000000000
    Total Energy =                       -344.3446382593797352
    Molecular point group: c1
  Basis Set: CC-PVTZ
  Basis Set:

  -Total Gradient:
     Atom            X                  Y                   Z
    ------   -----------------  -----------------  -----------------
       1        0.000019282053     0.000020905996     0.000003018452
       2       -0.000162758859     0.001255979674     0.000310880784
       3        0.000214752105     0.000319939375    -0.001031348540
       4        0.000052901951    -0.001143620175    -0.000028558816
       5        0.000008745324     0.000002878281     0.000004981798
       6       -0.000143903803    -0.000482938244     0.000739846414
       7       -0.000023633416     0.000005143655    -0.000000452802
       8        0.000004635061    -0.000005738225     0.000002597981
       9        0.000006051891     0.000004971745    -0.000002233188
      10        0.000007607106     0.000024395032     0.000007499341
      11        0.000006758065     0.000003726855    -0.000000335854
      12       -0.000003925032    -0.000001019992     0.000002905675
      13        0.000014377789    -0.000007616216    -0.000002826062
      14        0.000017211734     0.000003414205     0.000005124069
      15       -0.000012562121     0.000004152192    -0.000003431755
      16       -0.000018072534    -0.000006409385    -0.000000645794
      17        0.000010799678     0.000001994799     0.000001166131
      18       -0.000004643426    -0.000004685242    -0.000003765365
      19        0.000001945890     0.000007838385    -0.000006193253
      20        0.000002978188    -0.000001865221     0.000000404789
      21        0.000003588612    -0.000001002121     0.000001860456
      22       -0.000002136256    -0.000000445372    -0.000000494460

  **** Optimization is complete! (in 5 steps) ****
    Final optimized geometry and variables:
    Molecular point group: c1

    Geometry (in Angstrom), charge = 0, multiplicity = 1:

    H           -3.220883264008    -1.379191514972     0.134763664451
    C           -2.774433409233    -0.474549989674    -0.264741419172
    N           -1.348132921156    -0.430484277048     0.005971751304
    H           -2.980756420897    -0.452600565211    -1.330503648230
    H           -3.286808123704     0.370879903349     0.179773123381
    C           -0.933786964988     0.707469382084     0.795622301670
    C           -0.527147337796    -0.588729287723    -1.172925410114
    H           -1.095449505743     1.649896186406     0.263585262587
    H           -1.523528408158     0.739151527298     1.703755993697
    C            0.533966291182     0.596757046032     1.164423638638
    H           -0.824044535480    -1.493631320069    -1.689798390968
    H           -0.656840142031     0.245833723434    -1.868546498293
    C            0.938929581247    -0.693288543143    -0.796254118188
    H            0.836960207537     1.491395433509     1.695689022236
    H            0.666900305755    -0.251348541674     1.842856934557
    N            1.351807540280     0.456122426075    -0.020704260274
    H            1.536906826684    -0.740796434932    -1.698798219174
    H            1.099058999684    -1.624491575599    -0.244506969200
    C            2.760369156296     0.433891918193     0.284843123792
    H            3.038906168049     1.338542726985     0.810876055598
    H            3.336670934536     0.389540385486    -0.630908979885
    H            3.046886802301    -0.419730627836     0.905865803545

  Mulliken Charges: (a.u.)
   Center  Symbol    Alpha    Beta     Spin     Total
       1     H     0.45019  0.45019  0.00000  0.09961
       2     C     3.09213  3.09213  0.00000 -0.18426
       3     N     3.61545  3.61545  0.00000 -0.23090
       4     H     0.46194  0.46194  0.00000  0.07613
       5     H     0.45992  0.45992  0.00000  0.08016
       6     C     3.03556  3.03556  0.00000 -0.07112
       7     C     3.03558  3.03558  0.00000 -0.07116
       8     H     0.46853  0.46853  0.00000  0.06293
       9     H     0.45349  0.45349  0.00000  0.09303
      10     C     3.03706  3.03706  0.00000 -0.07411
      11     H     0.45341  0.45341  0.00000  0.09319
      12     H     0.46842  0.46842  0.00000  0.06316
      13     C     3.03728  3.03728  0.00000 -0.07455
      14     H     0.45411  0.45411  0.00000  0.09177
      15     H     0.46875  0.46875  0.00000  0.06250
      16     N     3.61294  3.61294  0.00000 -0.22587
      17     H     0.45412  0.45412  0.00000  0.09177
      18     H     0.46871  0.46871  0.00000  0.06257
      19     C     3.09824  3.09824  0.00000 -0.19647
      20     H     0.45199  0.45199  0.00000  0.09603
      21     H     0.45198  0.45198  0.00000  0.09603
      22     H     0.47021  0.47021  0.00000  0.05959

   Total alpha = 32.00000, Total beta = 32.00000, Total charge = -0.00000

*** Psi4 exiting successfully. Buy a developer a beer!
