  ==> Input File <==

--------------------------------------------------------------------------
set {
	reference rhf
	basis cc-pvtz
}

set_num_threads( 4 )
memory 2 gb

molecule MOL {
0 1

O	 -0.016094	 -0.192708	 2.019704
C	 -0.124478	 0.426553	 1.000152
C	 -1.136797	 1.549058	 0.900019
N	 0.622280	 0.144970	 -0.099307
H	 -1.854829	 1.363572	 0.111114
H	 -1.651589	 1.603892	 1.844728
H	 -0.654974	 2.498254	 0.700400
C	 1.664396	 -0.854993	 0.000772
C	 0.688385	 0.990333	 -1.267531
H	 2.462727	 -0.615153	 -0.690869
H	 1.261798	 -1.821849	 -0.240651
H	 2.081615	 -0.891605	 1.003877
H	 0.837154	 0.373927	 -2.144769
H	 -0.223306	 1.544696	 -1.410348
H	 1.514698	 1.695450	 -1.212207

	symmetry c1
}
set optking {
	frozen_dihedral = ("
		2 4 8 10
	")
}

ee = optimize('scf')
oeprop('DIPOLE', 'QUADRUPOLE', 'MULLIKEN_CHARGES')
f=open( 'psi4out.xyz', 'w' )
f.write( "15  " )
f.write( str(ee) + "\n" )
f.write( MOL.save_string_xyz() )
f.close()
--------------------------------------------------------------------------

    Molecular point group: c1
  Charge       = 0
  Multiplicity = 1
  Basis Set: CC-PVTZ
  Basis Set:
  @DF-RHF Final Energy:  -286.13376665907549
    Total Energy =                       -286.1337666590753201
    Molecular point group: c1
  Basis Set: CC-PVTZ
  Basis Set:
  Basis Set: CC-PVTZ
  Basis Set:
  @DF-RHF Final Energy:  -286.13440907215778
    Total Energy =                       -286.1344090721574958
  Basis Set: CC-PVTZ
  Basis Set:
  Basis Set: CC-PVTZ
  Basis Set:
  @DF-RHF Final Energy:  -286.13442598011056
    Total Energy =                       -286.1344259801107910
  Basis Set: CC-PVTZ
  Basis Set:
  Basis Set: CC-PVTZ
  Basis Set:
  @DF-RHF Final Energy:  -286.13485705770677
    Total Energy =                       -286.1348570577065971
  Basis Set: CC-PVTZ
  Basis Set:
  @DF-RHF Final Energy:  -286.13506544261725
    Total Energy =                       -286.1350654426172468
  @DF-RHF Final Energy:  -286.13516949387258
    Total Energy =                       -286.1351694938722972
  @DF-RHF Final Energy:  -286.13526833338972
    Total Energy =                       -286.1352683333894902
  @DF-RHF Final Energy:  -286.13537927727396
    Total Energy =                       -286.1353792772736711
  @DF-RHF Final Energy:  -286.13551172120128
    Total Energy =                       -286.1355117212012260
  Basis Set: CC-PVTZ
  Basis Set:
  @DF-RHF Final Energy:  -286.13558116852823
    Total Energy =                       -286.1355811685280628
  Basis Set: CC-PVTZ
  Basis Set:
  Basis Set: CC-PVTZ
  Basis Set:
  @DF-RHF Final Energy:  -286.13559765121738
    Total Energy =                       -286.1355976512172106
  Basis Set: CC-PVTZ
  Basis Set:
  Basis Set: CC-PVTZ
  Basis Set:
  @DF-RHF Final Energy:  -286.13560812635399
    Total Energy =                       -286.1356081263543274
  Basis Set: CC-PVTZ
  Basis Set:
  Charge       = 0
  Multiplicity = 1
  Basis Set: CC-PVTZ
  Basis Set:

    Orbital Energies (a.u.)
    -----------------------

    Doubly Occupied:

       1A    -20.504389     2A    -15.578192     3A    -11.334816
       4A    -11.263928     5A    -11.246535     6A    -11.226568
       7A     -1.387944     8A     -1.245953     9A     -1.015032
      10A     -0.973141    11A     -0.920343    12A     -0.738868
      13A     -0.683097    14A     -0.661584    15A     -0.653851
      16A     -0.590147    17A     -0.578322    18A     -0.568220
      19A     -0.562014    20A     -0.547985    21A     -0.530461
      22A     -0.506314    23A     -0.414378    24A     -0.370988

  @DF-RHF Final Energy:  -286.13560909557640

   => Energetics <=

    Nuclear Repulsion Energy =            252.9725230358420163
    One-Electron Energy =                -890.0101254349319788
    Two-Electron Energy =                 350.9019933035139616
    DFT Exchange-Correlation Energy =       0.0000000000000000
    Empirical Dispersion Energy =           0.0000000000000000
    PCM Polarization Energy =               0.0000000000000000
    EFP Energy =                            0.0000000000000000
    Total Energy =                       -286.1356090955760578
    Molecular point group: c1
  Basis Set: CC-PVTZ
  Basis Set:

  -Total Gradient:
     Atom            X                  Y                   Z
    ------   -----------------  -----------------  -----------------
       1        0.000019824299    -0.000004461270     0.000003134281
       2       -0.000129902807    -0.000075975792    -0.000123017882
       3       -0.000025669253    -0.000021720697    -0.000019154957
       4        0.000158710286     0.000156554199     0.000160960893
       5        0.000003936342     0.000011370736     0.000006519333
       6        0.000009128121    -0.000006443236    -0.000000411637
       7        0.000009865879     0.000012967354     0.000002545961
       8        0.000021525203     0.000000778945     0.000115883448
       9       -0.000049982822    -0.000033089230     0.000033091255
      10       -0.000080558644    -0.000077118323    -0.000174402938
      11        0.000019939029     0.000032015492     0.000007185600
      12        0.000017278145    -0.000006661320     0.000033082211
      13       -0.000001630229     0.000000065569    -0.000036659288
      14        0.000013919175     0.000003982201    -0.000012271753
      15        0.000013617274     0.000007735371     0.000003515471

  **** Optimization is complete! (in 13 steps) ****
    Final optimized geometry and variables:
    Molecular point group: c1

    Geometry (in Angstrom), charge = 0, multiplicity = 1:

    O           -0.391337946097    -0.635557891003     1.540012829279
    C           -0.421662378646     0.073996700560     0.575684184640
    C           -1.479806456116     1.151497753067     0.459737574387
    N            0.488503103584    -0.037528138880    -0.427275598614
    H           -2.129608540834     0.974026577452    -0.388449326190
    H           -2.064340097311     1.127750029388     1.364357968901
    H           -1.035709684177     2.132109671175     0.344559514952
    C            1.437920050205    -1.129890819317    -0.374520906921
    C            0.347822713520     0.600262575725    -1.714838050412
    H            2.356943912891    -0.826053901837    -0.859016621706
    H            1.059467901143    -2.013106710856    -0.882685323857
    H            1.641540614713    -1.386136171809     0.649769366860
    H           -0.141542604069    -0.048417176855    -2.438073619883
    H           -0.214022002096     1.515753761445    -1.645212422243
    H            1.328584964954     0.846708221961    -2.100604205396

  Mulliken Charges: (a.u.)
   Center  Symbol    Alpha    Beta     Spin     Total
       1     O     4.21982  4.21982  0.00000 -0.43963
       2     C     2.84513  2.84513  0.00000  0.30973
       3     C     3.16083  3.16083  0.00000 -0.32166
       4     N     3.56320  3.56320  0.00000 -0.12640
       5     H     0.44904  0.44904  0.00000  0.10193
       6     H     0.42865  0.42865  0.00000  0.14270
       7     H     0.44885  0.44885  0.00000  0.10230
       8     C     3.09659  3.09659  0.00000 -0.19319
       9     C     3.09559  3.09559  0.00000 -0.19119
      10     H     0.45726  0.45726  0.00000  0.08548
      11     H     0.45710  0.45710  0.00000  0.08580
      12     H     0.42830  0.42830  0.00000  0.14339
      13     H     0.45533  0.45533  0.00000  0.08933
      14     H     0.44521  0.44521  0.00000  0.10959
      15     H     0.44909  0.44909  0.00000  0.10181

   Total alpha = 24.00000, Total beta = 24.00000, Total charge =  0.00000
