  ==> Input File <==

--------------------------------------------------------------------------
set {
	reference rhf
	basis 6-31G*
}

set_num_threads( 4 )
memory 2 gb

molecule MOL {
0 1

H	 -3.892951	 0.981613	 -0.358725
C	 -3.196921	 0.361773	 0.172313
C	 -2.076860	 -0.007332	 -0.404944
H	 -3.439953	 0.057760	 1.173024
O	 -1.180634	 -0.819263	 0.215062
H	 -1.811520	 0.292194	 -1.403480
C	 0.051604	 -1.018856	 -0.387932
C	 1.043764	 0.054862	 -0.001873
H	 -0.017620	 -1.041351	 -1.469781
H	 0.437898	 -1.966374	 -0.042284
F	 0.624551	 1.226608	 -0.456933
F	 1.171185	 0.156217	 1.310880
F	 2.239405	 -0.171952	 -0.505250

	symmetry c1
}
set optking {
	frozen_dihedral = ("
		11 8 7 9
	")
}

ee = optimize('scf')
oeprop('DIPOLE', 'QUADRUPOLE', 'MULLIKEN_CHARGES')
f=open( 'psi4out.xyz', 'w' )
f.write( "13  " )
f.write( str(ee) + "\n" )
f.write( MOL.save_string_xyz() )
f.close()
--------------------------------------------------------------------------

    Molecular point group: c1
  Charge       = 0
  Multiplicity = 1
  Basis Set: 6-31G*
  Basis Set:
  @DF-RHF Final Energy:  -527.53534325771102
    Total Energy =                       -527.5353432577107924
    Molecular point group: c1
  Basis Set: 6-31G*
  Basis Set:
  Basis Set: 6-31G*
  Basis Set:
  @DF-RHF Final Energy:  -527.53578039957961
    Total Energy =                       -527.5357803995793802
  Basis Set: 6-31G*
  Basis Set:
  Basis Set: 6-31G*
  Basis Set:
  @DF-RHF Final Energy:  -527.53589067572534
    Total Energy =                       -527.5358906757256818
  Basis Set: 6-31G*
  Basis Set:
  Basis Set: 6-31G*
  Basis Set:
  @DF-RHF Final Energy:  -527.53590332627448
    Total Energy =                       -527.5359033262747062
  Basis Set: 6-31G*
  Basis Set:
  Basis Set: 6-31G*
  Basis Set:
  @DF-RHF Final Energy:  -527.53590501931740
    Total Energy =                       -527.5359050193178518
  Basis Set: 6-31G*
  Basis Set:
  Charge       = 0
  Multiplicity = 1
  Basis Set: 6-31G*
  Basis Set:

    Orbital Energies (a.u.)
    -----------------------

    Doubly Occupied:

       1A    -26.344445     2A    -26.343684     3A    -26.340763
       4A    -20.608353     5A    -11.503158     6A    -11.318959
       7A    -11.299406     8A    -11.215829     9A     -1.741730
      10A     -1.639668    11A     -1.638455    12A     -1.438214
      13A     -1.084170    14A     -1.016497    15A     -0.925329
      16A     -0.836571    17A     -0.830885    18A     -0.821290
      19A     -0.791949    20A     -0.721565    21A     -0.711358
      22A     -0.696285    23A     -0.675933    24A     -0.660360
      25A     -0.654738    26A     -0.643128    27A     -0.634526
      28A     -0.584660    29A     -0.563141    30A     -0.523796
      31A     -0.514060    32A     -0.351548

  @DF-RHF Final Energy:  -527.53590549869045

   => Energetics <=

    Nuclear Repulsion Energy =            413.5965906202257543
    One-Electron Energy =               -1550.9160847731161539
    Two-Electron Energy =                 609.7835886541998889
    DFT Exchange-Correlation Energy =       0.0000000000000000
    Empirical Dispersion Energy =           0.0000000000000000
    PCM Polarization Energy =               0.0000000000000000
    EFP Energy =                            0.0000000000000000
    Total Energy =                       -527.5359054986905676
    Molecular point group: c1
  Basis Set: 6-31G*
  Basis Set:

  -Total Gradient:
     Atom            X                  Y                   Z
    ------   -----------------  -----------------  -----------------
       1       -0.000010939313    -0.000020318490    -0.000006352229
       2       -0.000001551957     0.000006413412    -0.000005617618
       3        0.000030244389     0.000088727896     0.000011891199
       4       -0.000001547749    -0.000001019393     0.000001768242
       5        0.000032153242    -0.000062876627    -0.000003830534
       6       -0.000018021705    -0.000012348268    -0.000007488129
       7        0.000381475874    -0.000297725596    -0.000157549914
       8       -0.000392257188     0.000177192347     0.000499032664
       9       -0.000295548942     0.000253261852     0.000035529321
      10        0.000003365206    -0.000023381945     0.000011302737
      11        0.000190784445    -0.000118587433    -0.000282081207
      12       -0.000027206127     0.000017030641     0.000014064207
      13        0.000109049830    -0.000006368395    -0.000110668739

  **** Optimization is complete! (in 6 steps) ****
    Final optimized geometry and variables:
    Molecular point group: c1

    Geometry (in Angstrom), charge = 0, multiplicity = 1:

    H           -3.888480527946     0.970004017400    -0.369422535580
    C           -3.191526858112     0.353442173957     0.164229285804
    C           -2.073438092479    -0.020997802974    -0.413367052707
    H           -3.432308698543     0.056494252473     1.167687522945
    O           -1.177096482249    -0.830893945666     0.209313389435
    H           -1.810330107911     0.271355955535    -1.414611664297
    C            0.059948520437    -1.021863630507    -0.386931807562
    C            1.041690708500     0.060319177455     0.002343299405
    H           -0.005194672301    -1.044227490710    -1.469023383929
    H            0.451204841507    -1.966156675966    -0.038341350813
    F            0.658019555674     1.249710523381    -0.431586688394
    F            1.200512172414     0.139666327645     1.306937374569
    F            2.222892163231    -0.201634440225    -0.538633176071

  Mulliken Charges: (a.u.)
   Center  Symbol    Alpha    Beta     Spin     Total
       1     H     0.40706  0.40706  0.00000  0.18588
       2     C     3.23545  3.23545  0.00000 -0.47090
       3     C     2.89557  2.89557  0.00000  0.20885
       4     H     0.40178  0.40178  0.00000  0.19644
       5     O     4.30163  4.30163  0.00000 -0.60325
       6     H     0.40678  0.40678  0.00000  0.18644
       7     C     3.06378  3.06378  0.00000 -0.12757
       8     C     2.45580  2.45580  0.00000  1.08840
       9     H     0.40554  0.40554  0.00000  0.18892
      10     H     0.38974  0.38974  0.00000  0.22052
      11     F     4.67970  4.67970  0.00000 -0.35940
      12     F     4.67421  4.67421  0.00000 -0.34842
      13     F     4.68295  4.68295  0.00000 -0.36589

   Total alpha = 32.00000, Total beta = 32.00000, Total charge =  0.00000
