  ==> Input File <==

--------------------------------------------------------------------------
set {
	reference rhf
	basis cc-pvtz
}

set_num_threads( 4 )
memory 2 gb

molecule MOL {
0 1

O	 1.538848	 -0.241772	 -0.581067
C	 0.576499	 0.134701	 -0.003900
C	 -0.765656	 -0.550508	 -0.002152
O	 0.553360	 1.238431	 0.724946
C	 -1.945526	 0.411052	 0.000603
H	 -0.794329	 -1.203792	 -0.868145
H	 -0.791555	 -1.205429	 0.862701
C	 -3.282915	 -0.321280	 0.002596
H	 -1.880300	 1.059126	 -0.864925
H	 -1.877207	 1.057892	 0.866807
H	 -3.388495	 -0.952755	 -0.873419
H	 -4.107811	 0.380864	 0.004116
H	 -3.385717	 -0.953283	 0.878571
C	 1.749665	 1.986797	 0.807488
H	 2.540059	 1.394789	 1.244361
H	 1.527500	 2.833509	 1.436306
H	 2.058932	 2.320342	 -0.171871

	symmetry c1
}
set optking {
	frozen_dihedral = ("
		1 2 3 6
	")
}

ee = optimize('scf')
oeprop('DIPOLE', 'QUADRUPOLE', 'MULLIKEN_CHARGES')
f=open( 'psi4out.xyz', 'w' )
f.write( "17  " )
f.write( str(ee) + "\n" )
f.write( MOL.save_string_xyz() )
f.close()
--------------------------------------------------------------------------

    Molecular point group: c1
  Charge       = 0
  Multiplicity = 1
  Basis Set: CC-PVTZ
  Basis Set:
  @DF-RHF Final Energy:  -345.03281011532442
    Total Energy =                       -345.0328101153243097
    Molecular point group: c1
  Basis Set: CC-PVTZ
  Basis Set:
  Basis Set: CC-PVTZ
  Basis Set:
  @DF-RHF Final Energy:  -345.03150850397748
    Total Energy =                       -345.0315085039778751
  Basis Set: CC-PVTZ
  Basis Set:
  Basis Set: CC-PVTZ
  Basis Set:
  @DF-RHF Final Energy:  -345.03321339476929
    Total Energy =                       -345.0332133947692910
  Basis Set: CC-PVTZ
  Basis Set:
  Basis Set: CC-PVTZ
  Basis Set:
  @DF-RHF Final Energy:  -345.03353734293933
    Total Energy =                       -345.0335373429393258
  Basis Set: CC-PVTZ
  Basis Set:
  Basis Set: CC-PVTZ
  Basis Set:
  @DF-RHF Final Energy:  -345.03354332834346
    Total Energy =                       -345.0335433283436828
  Basis Set: CC-PVTZ
  Basis Set:
  Basis Set: CC-PVTZ
  Basis Set:
  @DF-RHF Final Energy:  -345.03354450692518
    Total Energy =                       -345.0335445069254092
  Basis Set: CC-PVTZ
  Basis Set:
  Charge       = 0
  Multiplicity = 1
  Basis Set: CC-PVTZ
  Basis Set:

    Orbital Energies (a.u.)
    -----------------------

    Doubly Occupied:

       1A    -20.598330     2A    -20.531909     3A    -11.364568
       4A    -11.279339     5A    -11.234102     6A    -11.226528
       7A    -11.215734     8A     -1.473071     9A     -1.364812
      10A     -1.084797    11A     -0.999111    12A     -0.943357
      13A     -0.832218    14A     -0.776789    15A     -0.699059
      16A     -0.685270    17A     -0.675793    18A     -0.639323
      19A     -0.597517    20A     -0.575578    21A     -0.555736
      22A     -0.539414    23A     -0.525957    24A     -0.514577
      25A     -0.490320    26A     -0.482518    27A     -0.459191
      28A     -0.434415

  @DF-RHF Final Energy:  -345.03354454065635

   => Energetics <=

    Nuclear Repulsion Energy =            314.7916836939326117
    One-Electron Energy =               -1094.0517849345637842
    Two-Electron Energy =                 434.2265566999745943
    DFT Exchange-Correlation Energy =       0.0000000000000000
    Empirical Dispersion Energy =           0.0000000000000000
    PCM Polarization Energy =               0.0000000000000000
    EFP Energy =                            0.0000000000000000
    Total Energy =                       -345.0335445406566350
    Molecular point group: c1
  Basis Set: CC-PVTZ
  Basis Set:

  -Total Gradient:
     Atom            X                  Y                   Z
    ------   -----------------  -----------------  -----------------
       1        0.000240170508    -0.000464582716     0.000770854150
       2       -0.000422511204     0.000784042244    -0.001215782972
       3        0.000517633993    -0.000977361537     0.000934725076
       4        0.000008935521     0.000023105495     0.000010523501
       5        0.000000460721     0.000002141327    -0.000011212861
       6       -0.000338529779     0.000646536557    -0.000498054912
       7        0.000001995343    -0.000003613793     0.000004652898
       8        0.000000771986    -0.000003000975     0.000008876729
       9        0.000001431105     0.000004366744    -0.000003370621
      10       -0.000001561979    -0.000002866834    -0.000002120546
      11        0.000000935482     0.000003748306    -0.000001556542
      12        0.000004114581     0.000000284755     0.000001521366
      13       -0.000002151326    -0.000004354044     0.000000952504
      14       -0.000014905154    -0.000010075277     0.000001108785
      15        0.000001574073    -0.000000409951     0.000000350048
      16        0.000001936903     0.000002036085     0.000000366386
      17       -0.000000300771     0.000000003615    -0.000001832988

  **** Optimization is complete! (in 7 steps) ****
    Final optimized geometry and variables:
    Molecular point group: c1

    Geometry (in Angstrom), charge = 0, multiplicity = 1:

    O            1.714020755483    -0.641619810994    -0.726913301430
    C            0.767980499380    -0.228390213263    -0.146497343636
    C           -0.574378494984    -0.916805615859    -0.123527670959
    O            0.795722646780     0.870624983677     0.587002949040
    C           -1.790911634118     0.007203566870    -0.134420929966
    H           -0.590524390298    -1.584911409198    -0.973326940823
    H           -0.587403927501    -1.534281381515     0.770494528809
    C           -3.098458829630    -0.776548359535    -0.165856804279
    H           -1.739162745990     0.659653699302    -1.000439776601
    H           -1.768096615270     0.648896659747     0.736412303949
    H           -3.160532740717    -1.405083037830    -1.047627278373
    H           -3.950425592871    -0.107387353373    -0.175766947767
    H           -3.191640240081    -1.417958474202     0.704231868923
    C            2.023624517359     1.566662351048     0.665107315350
    H            2.789700757505     0.939732457050     1.096488581455
    H            1.841480996257     2.421077711075     1.296543922393
    H            2.341915564617     1.887909825986    -0.315353170952

  Mulliken Charges: (a.u.)
   Center  Symbol    Alpha    Beta     Spin     Total
       1     O     4.20040  4.20040  0.00000 -0.40079
       2     C     2.81283  2.81283  0.00000  0.37434
       3     C     3.08122  3.08122  0.00000 -0.16245
       4     O     4.14599  4.14599  0.00000 -0.29198
       5     C     3.08625  3.08625  0.00000 -0.17250
       6     H     0.43656  0.43656  0.00000  0.12688
       7     H     0.44663  0.44663  0.00000  0.10674
       8     C     3.15189  3.15189  0.00000 -0.30377
       9     H     0.45067  0.45067  0.00000  0.09867
      10     H     0.44412  0.44412  0.00000  0.11176
      11     H     0.45360  0.45360  0.00000  0.09281
      12     H     0.44610  0.44610  0.00000  0.10780
      13     H     0.45470  0.45470  0.00000  0.09060
      14     C     3.03579  3.03579  0.00000 -0.07159
      15     H     0.45338  0.45338  0.00000  0.09325
      16     H     0.44618  0.44618  0.00000  0.10764
      17     H     0.45371  0.45371  0.00000  0.09259

   Total alpha = 28.00000, Total beta = 28.00000, Total charge = -0.00000
