  ==> Input File <==

--------------------------------------------------------------------------
set {
	reference rhf
	basis 6-31G*
}

set_num_threads( 1 )
memory 2 gb

molecule MOL {
0 1

H	 -3.161837	 0.500524	 -0.000234
C	 -2.367097	 -0.232926	 -0.000000
O	 -1.158440	 0.455814	 -0.000122
H	 -2.468853	 -0.861886	 -0.882833
H	 -2.468942	 -0.861421	 0.883154
C	 -0.029776	 -0.365156	 0.000148
C	 -0.463273	 -1.794562	 -0.274698
H	 0.479809	 -0.302438	 0.962587
H	 0.677526	 -0.031170	 -0.760171
C	 0.713629	 -2.768962	 -0.292722
H	 -1.181677	 -2.088389	 0.484395
H	 -0.985299	 -1.819095	 -1.226321
H	 1.235685	 -2.777719	 0.660066
H	 0.375789	 -3.780540	 -0.491268
H	 1.433938	 -2.506095	 -1.062437

	symmetry c1
}
set optking {
	frozen_dihedral = ("
		6 3 2 4,
		11 7 6 8
	")
}

ee = energy('scf')
oeprop('DIPOLE', 'QUADRUPOLE', 'MULLIKEN_CHARGES')
f=open( 'psi4out.xyz', 'w' )
f.write( "15  " )
f.write( str(ee) + "\n" )
f.write( MOL.save_string_xyz() )
f.close()
--------------------------------------------------------------------------

    Molecular point group: c1

    Geometry (in Angstrom), charge = 0, multiplicity = 1:

       Center              X                  Y                   Z               Mass
    ------------   -----------------  -----------------  -----------------  -----------------
           H         -2.481446688079     1.435956945269     0.111189497867     1.007825032070
           C         -1.686706688079     0.702506945269     0.111423497867    12.000000000000
           O         -0.478049688079     1.391246945269     0.111301497867    15.994914619560
           H         -1.788462688079     0.073546945269    -0.771409502133     1.007825032070
           H         -1.788551688079     0.074011945269     0.994577497867     1.007825032070
           C          0.650614311921     0.570276945269     0.111571497867    12.000000000000
           C          0.217117311921    -0.859129054731    -0.163274502133    12.000000000000
           H          1.160199311921     0.632994945269     1.074010497867     1.007825032070
           H          1.357916311921     0.904262945269    -0.648747502133     1.007825032070
           C          1.394019311921    -1.833529054731    -0.181298502133    12.000000000000
           H         -0.501286688079    -1.152956054731     0.595818497867     1.007825032070
           H         -0.304908688079    -0.883662054731    -1.114897502133     1.007825032070
           H          1.916075311921    -1.842286054731     0.771489497867     1.007825032070
           H          1.056179311921    -2.845107054731    -0.379844502133     1.007825032070
           H          2.114328311921    -1.570662054731    -0.951013502133     1.007825032070

  Charge       = 0
  Multiplicity = 1
  Basis Set: 6-31G*
  Basis Set:

    Orbital Energies (a.u.)
    -----------------------

    Doubly Occupied:

       1A    -20.549596     2A    -11.266454     3A    -11.260482
       4A    -11.218776     5A    -11.215702     6A     -1.379064
       7A     -1.057454     8A     -0.962725     9A     -0.899127
      10A     -0.791126    11A     -0.683359    12A     -0.667498
      13A     -0.627442    14A     -0.597878    15A     -0.559645
      16A     -0.549927    17A     -0.524102    18A     -0.499339
      19A     -0.496031    20A     -0.440858    21A     -0.399974

  @DF-RHF Final Energy:  -232.11108497228042

   => Energetics <=

    Nuclear Repulsion Energy =            196.4197056199920439
    One-Electron Energy =                -703.7684652954935700
    Two-Electron Energy =                 275.2376747032215007
    DFT Exchange-Correlation Energy =       0.0000000000000000
    Empirical Dispersion Energy =           0.0000000000000000
    PCM Polarization Energy =               0.0000000000000000
    EFP Energy =                            0.0000000000000000
    Total Energy =                       -232.1110849722800253

  Mulliken Charges: (a.u.)
   Center  Symbol    Alpha    Beta     Spin     Total
       1     H     0.40938  0.40938  0.00000  0.18124
       2     C     3.08645  3.08645  0.00000 -0.17291
       3     O     4.31185  4.31185  0.00000 -0.62370
       4     H     0.42716  0.42716  0.00000  0.14568
       5     H     0.42787  0.42787  0.00000  0.14425
       6     C     2.96771  2.96771  0.00000  0.06457
       7     C     3.19295  3.19295  0.00000 -0.38591
       8     H     0.42849  0.42849  0.00000  0.14302
       9     H     0.42336  0.42336  0.00000  0.15327
      10     C     3.24053  3.24053  0.00000 -0.48107
      11     H     0.41431  0.41431  0.00000  0.17137
      12     H     0.41300  0.41300  0.00000  0.17399
      13     H     0.42007  0.42007  0.00000  0.15987
      14     H     0.41689  0.41689  0.00000  0.16621
      15     H     0.41995  0.41995  0.00000  0.16011

   Total alpha = 21.00000, Total beta = 21.00000, Total charge =  0.00000
