                              Psi4 1.0.54 Driver

  ==> Input File <==

--------------------------------------------------------------------------
set {
	reference rhf
	basis cc-pvtz
}

set_num_threads( 4 )
memory 2 gb

molecule MOL {
0 1

O	 -2.081319	 -0.951530	 -0.502732
N	 -1.613558	 0.006676	 0.014756
C	 -0.329345	 -0.171618	 0.743966
O	 -2.068523	 1.100482	 -0.024385
C	 0.835904	 0.041968	 -0.213982
H	 -0.346048	 -1.174374	 1.137184
H	 -0.333613	 0.555559	 1.538590
C	 2.177039	 -0.130175	 0.494460
H	 0.754456	 -0.665923	 -1.030569
H	 0.765464	 1.037260	 -0.637266
C	 3.119598	 1.042754	 0.248898
H	 2.647909	 -1.049003	 0.157601
H	 2.009766	 -0.242129	 1.561649
H	 3.332085	 1.158631	 -0.808040
H	 2.688165	 1.971834	 0.604415
H	 4.061784	 0.896358	 0.762722

	symmetry c1
}
set optking {
	frozen_dihedral = ("
		11 8 5 9
	")
}

ee,wfn = optimize('scf', return_wfn=True)
oeprop( wfn, 'DIPOLE', 'QUADRUPOLE', 'MULLIKEN_CHARGES')
f=open( 'psi4out.xyz', 'w' )
f.write( "16  " )
f.write( str(ee) + "\n" )
f.write( MOL.save_string_xyz() )
f.close()
--------------------------------------------------------------------------

    Molecular point group: c1
  Charge       = 0
  Multiplicity = 1
  Basis Set: CC-PVTZ
  Basis Set:
  @DF-RHF Final Energy:  -360.90410866037280
    Total Energy =                       -360.9041086603726853
    Molecular point group: c1
  Basis Set: CC-PVTZ
  Basis Set:
  Basis Set: CC-PVTZ
  Basis Set:
  @DF-RHF Final Energy:  -360.90436555320611
    Total Energy =                       -360.9043655532063894
  Basis Set: CC-PVTZ
  Basis Set:
  Basis Set: CC-PVTZ
  Basis Set:
  @DF-RHF Final Energy:  -360.90380767746672
    Total Energy =                       -360.9038076774668298
  Basis Set: CC-PVTZ
  Basis Set:
  Basis Set: CC-PVTZ
  Basis Set:
  @DF-RHF Final Energy:  -360.90432509152237
    Total Energy =                       -360.9043250915224235
  Basis Set: CC-PVTZ
  Basis Set:
  Basis Set: CC-PVTZ
  Basis Set:
  @DF-RHF Final Energy:  -360.90443041705777
    Total Energy =                       -360.9044304170577107
  Basis Set: CC-PVTZ
  Basis Set:
  Basis Set: CC-PVTZ
  Basis Set:
  @DF-RHF Final Energy:  -360.90443664143658
    Total Energy =                       -360.9044366414365754
  Basis Set: CC-PVTZ
  Basis Set:
  Charge       = 0
  Multiplicity = 1
  Basis Set: CC-PVTZ
  Basis Set:

    Orbital Energies (a.u.)
    -----------------------

    Doubly Occupied:

       1A    -20.589642     2A    -20.589537     3A    -15.835841
       4A    -11.296619     5A    -11.250649     6A    -11.242060
       7A    -11.226371     8A     -1.634997     9A     -1.419359
      10A     -1.135490    11A     -1.058236    12A     -0.948727
      13A     -0.844923    14A     -0.829173    15A     -0.759146
      16A     -0.737488    17A     -0.727675    18A     -0.671442
      19A     -0.624150    20A     -0.605881    21A     -0.562199
      22A     -0.549950    23A     -0.515342    24A     -0.503876
      25A     -0.493345    26A     -0.485598    27A     -0.468805
      28A     -0.451900

  @DF-RHF Final Energy:  -360.90443695564375

   => Energetics <=

    Nuclear Repulsion Energy =            313.3492777959370414
    One-Electron Energy =               -1112.3905834571924061
    Two-Electron Energy =                 438.1368687056117324
    DFT Exchange-Correlation Energy =       0.0000000000000000
    Empirical Dispersion Energy =           0.0000000000000000
    PCM Polarization Energy =               0.0000000000000000
    EFP Energy =                            0.0000000000000000
    Total Energy =                       -360.9044369556436322
    Molecular point group: c1
  Basis Set: CC-PVTZ
  Basis Set:

  -Total Gradient:
     Atom            X                  Y                   Z
    ------   -----------------  -----------------  -----------------
       1       -0.000024384649    -0.000047160859    -0.000000454197
       2        0.000083241233    -0.000006304883    -0.000037368411
       3       -0.000034659701     0.000006237791     0.000019145215
       4       -0.000020975345     0.000041182952     0.000023195849
       5        0.000929818654     0.002152934103    -0.001312391406
       6        0.000000905600    -0.000007442757     0.000011442062
       7       -0.000001552018     0.000008650834     0.000001120942
       8        0.000610048316    -0.001435758789    -0.001458337407
       9       -0.000955974834    -0.001500358409     0.001415721806
      10        0.000004220896     0.000006750185     0.000014132141
      11       -0.000577440880     0.000762835008     0.001311701751
      12       -0.000006753115     0.000009361855     0.000003750607
      13       -0.000006545335     0.000006383435     0.000007099831
      14       -0.000003506971     0.000014048064    -0.000021052370
      15       -0.000005794238     0.000005350733     0.000021856414
      16        0.000009352388    -0.000016709261     0.000000437173

  **** Optimization is complete! (in 7 steps) ****
    Final optimized geometry and variables:
    Molecular point group: c1

    Geometry (in Angstrom), charge = 0, multiplicity = 1:

    O           -2.038966166496    -1.110623868624    -0.601153549630
    N           -1.585877146134    -0.143417434459    -0.087021901814
    C           -0.298027485199    -0.298586181252     0.641507253781
    O           -2.058251283002     0.942995619129    -0.128842988837
    C            0.864903358580    -0.071746014820    -0.318403161377
    H           -0.298279060022    -1.299786334968     1.039256775081
    H           -0.311924493116     0.432285076933     1.432747444945
    C            2.219810443651    -0.254106689303     0.394778038835
    H            0.766441500680    -0.776896412600    -1.133368549973
    H            0.781856172568     0.924880229669    -0.732178706476
    C            3.184382505421     0.902641070986     0.153254205287
    H            2.674711953878    -1.184056800948     0.076129930658
    H            2.061344490143    -0.351526463254     1.464581506965
    H            3.391590468674     1.026288457315    -0.904094240628
    H            2.770742462700     1.835494370883     0.520248429803
    H            4.127569728896     0.733886146733     0.658893886191

  Mulliken Charges: (a.u.)
   Center  Symbol    Alpha    Beta     Spin     Total
       1     O     4.17417  4.17417  0.00000 -0.34835
       2     N     3.27631  3.27631  0.00000  0.44738
       3     C     3.04245  3.04245  0.00000 -0.08491
       4     O     4.17410  4.17410  0.00000 -0.34820
       5     C     3.10513  3.10513  0.00000 -0.21026
       6     H     0.43299  0.43299  0.00000  0.13403
       7     H     0.43397  0.43397  0.00000  0.13205
       8     C     3.09480  3.09480  0.00000 -0.18960
       9     H     0.43406  0.43406  0.00000  0.13187
      10     H     0.43756  0.43756  0.00000  0.12489
      11     C     3.14640  3.14640  0.00000 -0.29279
      12     H     0.44441  0.44441  0.00000  0.11119
      13     H     0.45380  0.45380  0.00000  0.09239
      14     H     0.45079  0.45079  0.00000  0.09843
      15     H     0.45262  0.45262  0.00000  0.09475
      16     H     0.44644  0.44644  0.00000  0.10713

   Total alpha = 28.00000, Total beta = 28.00000, Total charge = -0.00000

*** Psi4 exiting successfully. Buy a developer a beer!
