  ==> Input File <==

--------------------------------------------------------------------------
set {
	reference rhf
	basis 6-31G*
}

set_num_threads( 1 )
memory 2 gb

molecule MOL {
0 1

H	 -2.646374	 -0.642757	 1.268656
C	 -2.083525	 -0.384536	 0.393091
O	 -0.807605	 -0.127164	 0.768327
F	 -2.118945	 -1.383102	 -0.486752
F	 -2.621877	 0.670592	 -0.209486
C	 0.197125	 -0.376016	 -0.148885
C	 1.293549	 -1.134799	 0.587498
Cl	 0.828136	 1.136829	 -0.819960
H	 -0.140103	 -0.982350	 -0.971327
F	 2.284311	 -1.419672	 -0.230657
F	 0.795604	 -2.269152	 1.037758
F	 1.767245	 -0.456732	 1.604263

	symmetry c1
}
set optking {
	frozen_dihedral = ("
		10 7 6 9,
		9 6 3 2
	")
}

ee = energy('scf')
oeprop('DIPOLE', 'QUADRUPOLE', 'MULLIKEN_CHARGES')
f=open( 'psi4out.xyz', 'w' )
f.write( "12  " )
f.write( str(ee) + "\n" )
f.write( MOL.save_string_xyz() )
f.close()
--------------------------------------------------------------------------

    Molecular point group: c1

    Geometry (in Angstrom), charge = 0, multiplicity = 1:

       Center              X                  Y                   Z               Mass
    ------------   -----------------  -----------------  -----------------  -----------------
           H         -2.690615388672    -0.213571325506     1.124715048109     1.007825032070
           C         -2.127766388672     0.044649674494     0.249150048109    12.000000000000
           O         -0.851846388672     0.302021674494     0.624386048109    15.994914619560
           F         -2.163186388672    -0.953916325506    -0.630692951891    18.998403224000
           F         -2.666118388672     1.099777674494    -0.353426951891    18.998403224000
           C          0.152883611328     0.053169674494    -0.292825951891    12.000000000000
           C          1.249307611328    -0.705613325506     0.443557048109    12.000000000000
          CL          0.783894611328     1.566014674494    -0.963900951891    34.968852682000
           H         -0.184344388672    -0.553164325506    -1.115267951891     1.007825032070
           F          2.240069611328    -0.990486325506    -0.374597951891    18.998403224000
           F          0.751362611328    -1.839966325506     0.893817048109    18.998403224000
           F          1.723003611328    -0.027546325506     1.460322048109    18.998403224000

  Charge       = 0
  Multiplicity = 1
  Basis Set: 6-31G*
  Basis Set:

    Orbital Energies (a.u.)
    -----------------------

    Doubly Occupied:

       1A   -104.842352     2A    -26.360487     3A    -26.360279
       4A    -26.357595     5A    -26.355189     6A    -26.340474
       7A    -20.649975     8A    -11.527470     9A    -11.490714
      10A    -11.398181    11A    -10.577073    12A     -8.046429
      13A     -8.042905    14A     -8.042804    15A     -1.761713
      16A     -1.720284    17A     -1.657967    18A     -1.657249
      19A     -1.639817    20A     -1.486478    21A     -1.179033
      22A     -1.051532    23A     -0.987384    24A     -0.919321
      25A     -0.862049    26A     -0.853446    27A     -0.846924
      28A     -0.823676    29A     -0.815181    30A     -0.792541
      31A     -0.728074    32A     -0.726983    33A     -0.707701
      34A     -0.698975    35A     -0.679617    36A     -0.675571
      37A     -0.659340    38A     -0.658688    39A     -0.641179
      40A     -0.635314    41A     -0.599270    42A     -0.583332
      43A     -0.522024    44A     -0.474842    45A     -0.467071

  @DF-RHF Final Energy: -1146.31059029031962

   => Energetics <=

    Nuclear Repulsion Energy =            736.7562896873421323
    One-Electron Energy =               -3056.3246420864015818
    Two-Electron Energy =                1173.2577621087416446
    DFT Exchange-Correlation Energy =       0.0000000000000000
    Empirical Dispersion Energy =           0.0000000000000000
    PCM Polarization Energy =               0.0000000000000000
    EFP Energy =                            0.0000000000000000
    Total Energy =                      -1146.3105902903175775

  Mulliken Charges: (a.u.)
   Center  Symbol    Alpha    Beta     Spin     Total
       1     H     0.40389  0.40389  0.00000  0.19222
       2     C     2.56137  2.56137  0.00000  0.87727
       3     O     4.30142  4.30142  0.00000 -0.60283
       4     F     4.68704  4.68704  0.00000 -0.37408
       5     F     4.68058  4.68058  0.00000 -0.36116
       6     C     3.05196  3.05196  0.00000 -0.10393
       7     C     2.43299  2.43299  0.00000  1.13403
       8    CL     8.50012  8.50012  0.00000 -0.00025
       9     H     0.36052  0.36052  0.00000  0.27895
      10     F     4.67401  4.67401  0.00000 -0.34803
      11     F     4.67745  4.67745  0.00000 -0.35490
      12     F     4.66864  4.66864  0.00000 -0.33728

   Total alpha = 45.00000, Total beta = 45.00000, Total charge =  0.00000
