  ==> Input File <==

--------------------------------------------------------------------------
set {
	reference rhf
	basis 6-31G*
}

set_num_threads( 4 )
memory 2 gb

molecule MOL {
0 1

O	 -0.545567	 0.050263	 -0.577867
C	 0.486307	 0.169203	 0.000779
C	 1.608116	 -0.841643	 0.000302
O	 0.791675	 1.227012	 0.739291
C	 2.990107	 -0.200498	 -0.000684
H	 1.468623	 -1.481519	 -0.865924
H	 1.469683	 -1.481289	 0.866878
H	 3.129736	 0.423364	 -0.875135
H	 3.757882	 -0.966877	 -0.001197
H	 3.130964	 0.423383	 0.873533
C	 -0.177446	 2.265986	 0.832778
C	 0.400200	 3.346720	 1.721963
H	 -1.092347	 1.858939	 1.241255
H	 -0.392883	 2.637585	 -0.159740
H	 0.615527	 2.957316	 2.710475
H	 -0.309182	 4.161965	 1.820961
H	 1.318807	 3.740342	 1.301867

	symmetry c1
}
set optking {
	frozen_dihedral = ("
		4 2 3 6
	")
}

ee = optimize('scf')
oeprop('DIPOLE', 'QUADRUPOLE', 'MULLIKEN_CHARGES')
f=open( 'psi4out.xyz', 'w' )
f.write( "17  " )
f.write( str(ee) + "\n" )
f.write( MOL.save_string_xyz() )
f.close()
--------------------------------------------------------------------------

    Molecular point group: c1
  Charge       = 0
  Multiplicity = 1
  Basis Set: 6-31G*
  Basis Set:
  @DF-RHF Final Energy:  -344.90942564628472
    Total Energy =                       -344.9094256462846033
    Molecular point group: c1
  Basis Set: 6-31G*
  Basis Set:
  Basis Set: 6-31G*
  Basis Set:
  @DF-RHF Final Energy:  -344.90964177940407
    Total Energy =                       -344.9096417794041827
  Basis Set: 6-31G*
  Basis Set:
  Basis Set: 6-31G*
  Basis Set:
  @DF-RHF Final Energy:  -344.90992555757117
    Total Energy =                       -344.9099255575716825
  Basis Set: 6-31G*
  Basis Set:
  Basis Set: 6-31G*
  Basis Set:
  @DF-RHF Final Energy:  -344.90999886867547
    Total Energy =                       -344.9099988686754159
  Basis Set: 6-31G*
  Basis Set:
  Basis Set: 6-31G*
  Basis Set:
  @DF-RHF Final Energy:  -344.90999843052373
    Total Energy =                       -344.9099984305236148
  Basis Set: 6-31G*
  Basis Set:
  Basis Set: 6-31G*
  Basis Set:
  @DF-RHF Final Energy:  -344.91000195742890
    Total Energy =                       -344.9100019574289604
  Basis Set: 6-31G*
  Basis Set:
  Charge       = 0
  Multiplicity = 1
  Basis Set: 6-31G*
  Basis Set:

    Orbital Energies (a.u.)
    -----------------------

    Doubly Occupied:

       1A    -20.602594     2A    -20.541333     3A    -11.370979
       4A    -11.285342     5A    -11.237436     6A    -11.222932
       7A    -11.221983     8A     -1.467891     9A     -1.360374
      10A     -1.072529    11A     -1.030163    12A     -0.905716
      13A     -0.859590    14A     -0.778057    15A     -0.690992
      16A     -0.677643    17A     -0.672169    18A     -0.626568
      19A     -0.582221    20A     -0.572381    21A     -0.552770
      22A     -0.546230    23A     -0.523839    24A     -0.512485
      25A     -0.505079    26A     -0.492276    27A     -0.451721
      28A     -0.430877

  @DF-RHF Final Energy:  -344.91000199556908

   => Energetics <=

    Nuclear Repulsion Energy =            317.4657597053202949
    One-Electron Energy =               -1099.1631848526178601
    Two-Electron Energy =                 436.7874231517284329
    DFT Exchange-Correlation Energy =       0.0000000000000000
    Empirical Dispersion Energy =           0.0000000000000000
    PCM Polarization Energy =               0.0000000000000000
    EFP Energy =                            0.0000000000000000
    Total Energy =                       -344.9100019955690755
    Molecular point group: c1
  Basis Set: 6-31G*
  Basis Set:

  -Total Gradient:
     Atom            X                  Y                   Z
    ------   -----------------  -----------------  -----------------
       1       -0.000004319838    -0.000027783361    -0.000022207479
       2       -0.000270294425    -0.000287338103     0.000623635511
       3       -0.000486218031    -0.000514870464     0.000353432129
       4        0.000310187170     0.000322198029    -0.000551036656
       5       -0.000000442966     0.000013831743     0.000004890674
       6        0.000443977549     0.000501550496    -0.000435903292
       7        0.000001651471     0.000006307057    -0.000006400873
       8        0.000006021975     0.000001458298     0.000000187899
       9        0.000002094116     0.000002596802    -0.000000360675
      10        0.000003764505     0.000005402712     0.000003119237
      11       -0.000042802666    -0.000052586655     0.000091095785
      12        0.000016844165     0.000009902535    -0.000024545989
      13        0.000009329674     0.000020595560    -0.000012639637
      14        0.000007842689    -0.000001903151    -0.000020953441
      15       -0.000003980255    -0.000006121908    -0.000004788099
      16        0.000000343042    -0.000001930626    -0.000004410206
      17        0.000006001826     0.000008691036     0.000006885114

  **** Optimization is complete! (in 7 steps) ****
    Final optimized geometry and variables:
    Molecular point group: c1

    Geometry (in Angstrom), charge = 0, multiplicity = 1:

    O           -1.327394050231    -0.826722983823    -0.962739549135
    C           -0.291248202467    -0.690239307175    -0.394445158242
    C            0.819900356555    -1.715349773515    -0.406497336168
    O           -0.002110695900     0.371313173049     0.343128629141
    C            2.235361948917    -1.138014830948    -0.397961408280
    H            0.656604251247    -2.335298708460    -1.278359514467
    H            0.671061419000    -2.346226045240     0.466475302558
    H            2.401552767824    -0.492319030918    -1.253956430664
    H            2.961559779483    -1.942436891628    -0.442873072683
    H            2.421326158833    -0.560901683488     0.498282382102
    C           -0.994944057839     1.386600396664     0.451600411321
    C           -0.426858693416     2.485389858090     1.324589795066
    H           -1.890916915418     0.958105131016     0.879353351856
    H           -1.238585105511     1.747199187672    -0.538206569004
    H           -0.183048337150     2.106520237435     2.310645244408
    H           -1.154176810515     3.283337306775     1.433718226736
    H            0.473347288515     2.899664747028     0.884946900471

  Mulliken Charges: (a.u.)
   Center  Symbol    Alpha    Beta     Spin     Total
       1     O     4.28825  4.28825  0.00000 -0.57651
       2     C     2.60731  2.60731  0.00000  0.78538
       3     C     3.20378  3.20378  0.00000 -0.40756
       4     O     4.30978  4.30978  0.00000 -0.61955
       5     C     3.24323  3.24323  0.00000 -0.48645
       6     H     0.39742  0.39742  0.00000  0.20517
       7     H     0.40130  0.40130  0.00000  0.19739
       8     H     0.41558  0.41558  0.00000  0.16883
       9     H     0.41542  0.41542  0.00000  0.16916
      10     H     0.40739  0.40739  0.00000  0.18522
      11     C     3.00234  3.00234  0.00000 -0.00467
      12     C     3.24887  3.24887  0.00000 -0.49775
      13     H     0.41003  0.41003  0.00000  0.17995
      14     H     0.40943  0.40943  0.00000  0.18113
      15     H     0.41201  0.41201  0.00000  0.17598
      16     H     0.41603  0.41603  0.00000  0.16795
      17     H     0.41184  0.41184  0.00000  0.17633

   Total alpha = 28.00000, Total beta = 28.00000, Total charge = -0.00000
