  ==> Input File <==

--------------------------------------------------------------------------
set {
	reference rhf
	basis cc-pvtz
}

set_num_threads( 4 )
memory 2 gb

molecule MOL {
0 1

H	 2.307179	 -0.154739	 -0.313106
O	 1.583947	 -0.677544	 -0.001533
C	 0.489979	 0.078084	 0.002623
C	 -0.763662	 -0.754014	 0.000816
O	 0.539051	 1.259395	 -0.000088
C	 -2.038001	 0.074705	 -0.000833
H	 -0.712945	 -1.405886	 -0.864342
H	 -0.715137	 -1.405770	 0.866182
H	 -2.087267	 0.710831	 -0.874232
H	 -2.903419	 -0.576199	 -0.001922
H	 -2.089467	 0.710909	 0.872389

	symmetry c1
}
set optking {
	frozen_dihedral = ("
		1 2 3 5
	")
}

ee = optimize('scf')
oeprop('DIPOLE', 'QUADRUPOLE', 'MULLIKEN_CHARGES')
f=open( 'psi4out.xyz', 'w' )
f.write( "11  " )
f.write( str(ee) + "\n" )
f.write( MOL.save_string_xyz() )
f.close()
--------------------------------------------------------------------------

    Molecular point group: c1
  Charge       = 0
  Multiplicity = 1
  Basis Set: CC-PVTZ
  Basis Set:
  @DF-RHF Final Energy:  -266.95091950643450
    Total Energy =                       -266.9509195064345022
    Molecular point group: c1
  Basis Set: CC-PVTZ
  Basis Set:
  Basis Set: CC-PVTZ
  Basis Set:
  @DF-RHF Final Energy:  -266.94718029040780
    Total Energy =                       -266.9471802904078004
  Basis Set: CC-PVTZ
  Basis Set:
  Basis Set: CC-PVTZ
  Basis Set:
  @DF-RHF Final Energy:  -266.95113567547088
    Total Energy =                       -266.9511356754709936
  Basis Set: CC-PVTZ
  Basis Set:
  Basis Set: CC-PVTZ
  Basis Set:
  @DF-RHF Final Energy:  -266.95119581328026
    Total Energy =                       -266.9511958132801510
  Basis Set: CC-PVTZ
  Basis Set:
  @DF-RHF Final Energy:  -266.95120150489174
    Total Energy =                       -266.9512015048914577
  @DF-RHF Final Energy:  -266.95120436518198
    Total Energy =                       -266.9512043651820932
  @DF-RHF Final Energy:  -266.95016354909262
    Total Energy =                       -266.9501635490927356
  Basis Set: CC-PVTZ
  Basis Set:
  @DF-RHF Final Energy:  -266.95106413107942
    Total Energy =                       -266.9510641310795336
  Basis Set: CC-PVTZ
  Basis Set:
  Basis Set: CC-PVTZ
  Basis Set:
  @DF-RHF Final Energy:  -266.95120315620460
    Total Energy =                       -266.9512031562045422
  Basis Set: CC-PVTZ
  Basis Set:
  Basis Set: CC-PVTZ
  Basis Set:
  @DF-RHF Final Energy:  -266.95120567886033
    Total Energy =                       -266.9512056788604468
  Basis Set: CC-PVTZ
  Basis Set:
  Charge       = 0
  Multiplicity = 1
  Basis Set: CC-PVTZ
  Basis Set:

    Orbital Energies (a.u.)
    -----------------------

    Doubly Occupied:

       1A    -20.603376     2A    -20.542565     3A    -11.374465
       4A    -11.242743     5A    -11.218702     6A     -1.476853
       7A     -1.370674     8A     -1.066227     9A     -0.918256
      10A     -0.804071    11A     -0.706578    12A     -0.692468
      13A     -0.664196    14A     -0.604059    15A     -0.589423
      16A     -0.532649    17A     -0.527158    18A     -0.505980
      19A     -0.486017    20A     -0.448845

  @DF-RHF Final Energy:  -266.95120577416958

   => Energetics <=

    Nuclear Repulsion Energy =            180.0867634810357174
    One-Electron Energy =                -721.3253351812945766
    Two-Electron Energy =                 274.2873659260892509
    DFT Exchange-Correlation Energy =       0.0000000000000000
    Empirical Dispersion Energy =           0.0000000000000000
    PCM Polarization Energy =               0.0000000000000000
    EFP Energy =                            0.0000000000000000
    Total Energy =                       -266.9512057741695799
    Molecular point group: c1
  Basis Set: CC-PVTZ
  Basis Set:

  -Total Gradient:
     Atom            X                  Y                   Z
    ------   -----------------  -----------------  -----------------
       1       -0.000934262280    -0.002232569302    -0.006455320907
       2        0.000965830040     0.002907090422     0.010893570523
       3        0.000313007631    -0.000926498289    -0.010691386950
       4        0.000002620038     0.000014545040     0.000082962901
       5       -0.000340771008     0.000254460162     0.006204002583
       6       -0.000011068415    -0.000011042075    -0.000014130966
       7        0.000006742688    -0.000002505338    -0.000010698545
       8        0.000000022507    -0.000006107995    -0.000016439594
       9        0.000001309140    -0.000001292338     0.000003594658
      10       -0.000004868223     0.000003281429     0.000001662321
      11        0.000001437879     0.000000638286     0.000002183975

  **** Optimization is complete! (in 11 steps) ****
    Final optimized geometry and variables:
    Molecular point group: c1

    Geometry (in Angstrom), charge = 0, multiplicity = 1:

    H            2.331984143608    -0.167618029854    -0.207499900234
    O            1.585509261443    -0.673260260737     0.075484334372
    C            0.490191664090     0.079657178486    -0.024998994164
    C           -0.762767692309    -0.753269927642    -0.004008319522
    O            0.537148067430     1.259075180465    -0.074046482437
    C           -2.038249791549     0.072555512832     0.035646918835
    H           -0.732112214988    -1.391425985556    -0.880948019094
    H           -0.691342706511    -1.419273923950     0.848484531333
    H           -2.107718726873     0.722649259313    -0.825889484194
    H           -2.902776970901    -0.579615591869     0.043815489697
    H           -2.071538554191     0.694661922421     0.920160987828

  Mulliken Charges: (a.u.)
   Center  Symbol    Alpha    Beta     Spin     Total
       1     H     0.38107  0.38107  0.00000  0.23786
       2     O     4.16314  4.16314  0.00000 -0.32628
       3     C     2.80350  2.80350  0.00000  0.39299
       4     C     3.10060  3.10060  0.00000 -0.20121
       5     O     4.18742  4.18742  0.00000 -0.37485
       6     C     3.13899  3.13899  0.00000 -0.27797
       7     H     0.44132  0.44132  0.00000  0.11737
       8     H     0.43863  0.43863  0.00000  0.12274
       9     H     0.44747  0.44747  0.00000  0.10507
      10     H     0.44970  0.44970  0.00000  0.10060
      11     H     0.44816  0.44816  0.00000  0.10368

   Total alpha = 20.00000, Total beta = 20.00000, Total charge = -0.00000
