  ==> Input File <==

--------------------------------------------------------------------------
set {
	reference rhf
	basis 6-31G*
}

set_num_threads( 4 )
memory 2 gb

molecule MOL {
0 1

O	 -1.851455	 -2.293994	 0.445248
C	 -1.281625	 -1.924252	 -0.536088
C	 -0.889235	 -0.467034	 -0.705952
C	 -0.894350	 -2.884457	 -1.638539
C	 0.379448	 -0.143569	 0.099626
H	 -1.712222	 0.139506	 -0.343868
H	 -0.732601	 -0.233143	 -1.755136
C	 1.631333	 -0.777471	 -0.511575
H	 0.482768	 0.934507	 0.149241
H	 0.263088	 -0.495696	 1.123449
C	 2.915987	 -0.544314	 0.291766
H	 1.766672	 -0.399098	 -1.523130
H	 1.471257	 -1.849544	 -0.605828
C	 3.373361	 0.914346	 0.347591
H	 3.708709	 -1.142521	 -0.150311
H	 2.780642	 -0.921148	 1.303579
H	 3.506512	 1.320010	 -0.651625
H	 4.322697	 0.999599	 0.867103
H	 2.660624	 1.545032	 0.868198
H	 -1.452737	 -2.649086	 -2.540796
H	 -1.110103	 -3.900173	 -1.337611
H	 0.160125	 -2.787177	 -1.880247

	symmetry c1
}
set optking {
	frozen_dihedral = ("
		6 3 5 8
	")
}

ee = optimize('scf')
oeprop('DIPOLE', 'QUADRUPOLE', 'MULLIKEN_CHARGES')
f=open( 'psi4out.xyz', 'w' )
f.write( "22  " )
f.write( str(ee) + "\n" )
f.write( MOL.save_string_xyz() )
f.close()
--------------------------------------------------------------------------

    Molecular point group: c1
  Charge       = 0
  Multiplicity = 1
  Basis Set: 6-31G*
  Basis Set:
  @DF-RHF Final Energy:  -348.09450074266289
    Total Energy =                       -348.0945007426624898
    Molecular point group: c1
  Basis Set: 6-31G*
  Basis Set:
  Basis Set: 6-31G*
  Basis Set:
  @DF-RHF Final Energy:  -348.09628860219016
    Total Energy =                       -348.0962886021905547
  Basis Set: 6-31G*
  Basis Set:
  Basis Set: 6-31G*
  Basis Set:
  @DF-RHF Final Energy:  -348.09542658162491
    Total Energy =                       -348.0954265816246789
  Basis Set: 6-31G*
  Basis Set:
  Basis Set: 6-31G*
  Basis Set:
  @DF-RHF Final Energy:  -348.09707448283075
    Total Energy =                       -348.0970744828305783
  Basis Set: 6-31G*
  Basis Set:
  @DF-RHF Final Energy:  -348.09748973248384
    Total Energy =                       -348.0974897324838366
  @DF-RHF Final Energy:  -348.09800526183420
    Total Energy =                       -348.0980052618341460
  @DF-RHF Final Energy:  -348.09878976373994
    Total Energy =                       -348.0987897637400579
  @DF-RHF Final Energy:  -348.09946523122375
    Total Energy =                       -348.0994652312236894
  @DF-RHF Final Energy:  -348.09967689087193
    Total Energy =                       -348.0996768908722743
  @DF-RHF Final Energy:  -348.09973911179088
    Total Energy =                       -348.0997391117906545
  Basis Set: 6-31G*
  Basis Set:
  @DF-RHF Final Energy:  -348.09974209803181
    Total Energy =                       -348.0997420980318680
  Basis Set: 6-31G*
  Basis Set:
  Basis Set: 6-31G*
  Basis Set:
  @DF-RHF Final Energy:  -348.09975106288385
    Total Energy =                       -348.0997510628835698
  Basis Set: 6-31G*
  Basis Set:
  Basis Set: 6-31G*
  Basis Set:
  @DF-RHF Final Energy:  -348.09975266418149
    Total Energy =                       -348.0997526641815512
  Basis Set: 6-31G*
  Basis Set:
  Charge       = 0
  Multiplicity = 1
  Basis Set: 6-31G*
  Basis Set:

    Orbital Energies (a.u.)
    -----------------------

    Doubly Occupied:

       1A    -20.550830     2A    -11.327290     3A    -11.232483
       4A    -11.228962     5A    -11.217418     6A    -11.212572
       7A    -11.211021     8A    -11.206804     9A     -1.396419
      10A     -1.087965    11A     -1.041762    12A     -1.000330
      13A     -0.932912    14A     -0.854509    15A     -0.781114
      16A     -0.727728    17A     -0.665729    18A     -0.631656
      19A     -0.629069    20A     -0.610981    21A     -0.601819
      22A     -0.580772    23A     -0.561233    24A     -0.547750
      25A     -0.522851    26A     -0.515052    27A     -0.496897
      28A     -0.487140    29A     -0.461495    30A     -0.458246
      31A     -0.448167    32A     -0.400346

  @DF-RHF Final Energy:  -348.09975359895304

   => Energetics <=

    Nuclear Repulsion Energy =            378.6216257924839965
    One-Electron Energy =               -1222.1841145047947066
    Two-Electron Energy =                 495.4627351133577235
    DFT Exchange-Correlation Energy =       0.0000000000000000
    Empirical Dispersion Energy =           0.0000000000000000
    PCM Polarization Energy =               0.0000000000000000
    EFP Energy =                            0.0000000000000000
    Total Energy =                       -348.0997535989529865
    Molecular point group: c1
  Basis Set: 6-31G*
  Basis Set:

  -Total Gradient:
     Atom            X                  Y                   Z
    ------   -----------------  -----------------  -----------------
       1       -0.000005294402    -0.000013727436    -0.000001342329
       2        0.000011101866     0.000000931167     0.000040363850
       3        0.000131105930     0.000337999094    -0.000382328246
       4       -0.000015369289     0.000021872583     0.000002680774
       5        0.000066062085     0.000309325800    -0.000265661722
       6       -0.000136218692    -0.000355433257     0.000382797877
       7        0.000008585403    -0.000005483993    -0.000003666563
       8       -0.000067651120    -0.000327222867     0.000248210333
       9       -0.000016533454    -0.000009841116    -0.000010868074
      10        0.000001304867    -0.000001290469    -0.000009320357
      11       -0.000000521497     0.000010022396    -0.000003246416
      12       -0.000003929105     0.000007296844    -0.000009115700
      13       -0.000010107094     0.000021769584     0.000001887373
      14        0.000010551093    -0.000010262917     0.000014339904
      15        0.000004451621     0.000008074455     0.000007738595
      16        0.000001595371    -0.000000470923     0.000000685451
      17       -0.000009750869    -0.000005969750    -0.000001733513
      18        0.000003390823     0.000005505024    -0.000006815179
      19        0.000003905670     0.000005756855     0.000008356112
      20        0.000015862655    -0.000003962011    -0.000006197693
      21        0.000008283439     0.000000949403    -0.000000201619
      22       -0.000000825302     0.000004161535    -0.000006562859

  **** Optimization is complete! (in 14 steps) ****
    Final optimized geometry and variables:
    Molecular point group: c1

    Geometry (in Angstrom), charge = 0, multiplicity = 1:

    O           -1.200467060251    -1.719744778663     0.561852006867
    C           -1.555709653501    -1.116698565480    -0.404396810806
    C           -1.199716534992     0.343532308216    -0.628420765095
    C           -2.412544443908    -1.768431737869    -1.469314561163
    C           -0.091570660816     0.879200630598     0.277935038936
    H           -2.120480297005     0.902910128925    -0.463428321671
    H           -0.951762767603     0.490354163471    -1.677591821387
    C            1.292894309384     0.317003996110    -0.058568864715
    H           -0.082625199791     1.961511211920     0.191596405829
    H           -0.337088491851     0.645140917176     1.308390317756
    C            2.408376835553     0.784514908299     0.883177876545
    H            1.552399760349     0.589496924988    -1.081534144158
    H            1.248901288376    -0.766457738901    -0.025253025143
    C            2.711772167257     2.282685096947     0.819966214853
    H            3.314395616535     0.235275055093     0.639466415280
    H            2.152640379280     0.508690878732     1.903712205174
    H            2.954689891739     2.589748906745    -0.194027353371
    H            3.559820849916     2.530783642125     1.450843022766
    H            1.872469193105     2.883027890268     1.155442186600
    H           -3.261372865534    -1.142035489717    -1.725551939429
    H           -2.757941692391    -2.732701462301    -1.123228173058
    H           -1.826313187717    -1.903404054172    -2.374376525501

  Mulliken Charges: (a.u.)
   Center  Symbol    Alpha    Beta     Spin     Total
       1     O     4.26333  4.26333  0.00000 -0.52667
       2     C     2.73484  2.73484  0.00000  0.53031
       3     C     3.21122  3.21122  0.00000 -0.42244
       4     C     3.28728  3.28728  0.00000 -0.57455
       5     C     3.15260  3.15260  0.00000 -0.30519
       6     H     0.40489  0.40489  0.00000  0.19022
       7     H     0.41201  0.41201  0.00000  0.17598
       8     C     3.15760  3.15760  0.00000 -0.31519
       9     H     0.41895  0.41895  0.00000  0.16209
      10     H     0.40769  0.40769  0.00000  0.18462
      11     C     3.15336  3.15336  0.00000 -0.30672
      12     H     0.42893  0.42893  0.00000  0.14213
      13     H     0.40892  0.40892  0.00000  0.18216
      14     C     3.24153  3.24153  0.00000 -0.48307
      15     H     0.42082  0.42082  0.00000  0.15837
      16     H     0.41955  0.41955  0.00000  0.16090
      17     H     0.42345  0.42345  0.00000  0.15310
      18     H     0.41896  0.41896  0.00000  0.16208
      19     H     0.42091  0.42091  0.00000  0.15819
      20     H     0.41023  0.41023  0.00000  0.17955
      21     H     0.39668  0.39668  0.00000  0.20663
      22     H     0.40625  0.40625  0.00000  0.18749

   Total alpha = 32.00000, Total beta = 32.00000, Total charge =  0.00000
