                              Psi4 1.0.54 Driver

  ==> Input File <==

--------------------------------------------------------------------------
set {
	reference rhf
	basis cc-pvtz
}

set_num_threads( 4 )
memory 2 gb

molecule MOL {
0 1

H	 -0.904913	 -1.270827	 -0.060168
N	 -1.173824	 -0.310545	 -0.096857
C	 -0.022588	 0.563366	 0.065815
H	 -1.612417	 -0.160562	 -0.981590
C	 1.270420	 -0.230572	 -0.014245
H	 -0.045354	 1.293678	 -0.735129
H	 -0.043155	 1.123061	 1.001180
H	 1.336273	 -0.754933	 -0.959364
H	 2.130728	 0.422015	 0.082222
H	 1.323344	 -0.967006	 0.781773

	symmetry c1
}
set optking {
	frozen_dihedral = ("
		1 2 3 6
	")
}

ee,wfn = optimize('scf', return_wfn=True)
oeprop( wfn, 'DIPOLE', 'QUADRUPOLE', 'MULLIKEN_CHARGES')
f=open( 'psi4out.xyz', 'w' )
f.write( "10  " )
f.write( str(ee) + "\n" )
f.write( MOL.save_string_xyz() )
f.close()
--------------------------------------------------------------------------

    Molecular point group: c1
  Charge       = 0
  Multiplicity = 1
  Basis Set: CC-PVTZ
  Basis Set:
  @DF-RHF Final Energy:  -134.29996550993272
    Total Energy =                       -134.2999655099326333
    Molecular point group: c1
  Basis Set: CC-PVTZ
  Basis Set:
  Basis Set: CC-PVTZ
  Basis Set:
  @DF-RHF Final Energy:  -134.30085926652743
    Total Energy =                       -134.3008592665274250
  Basis Set: CC-PVTZ
  Basis Set:
  Basis Set: CC-PVTZ
  Basis Set:
  @DF-RHF Final Energy:  -134.30105221480312
    Total Energy =                       -134.3010522148031782
  Basis Set: CC-PVTZ
  Basis Set:
  Basis Set: CC-PVTZ
  Basis Set:
  @DF-RHF Final Energy:  -134.30105490525168
    Total Energy =                       -134.3010549052516467
  Basis Set: CC-PVTZ
  Basis Set:
  Charge       = 0
  Multiplicity = 1
  Basis Set: CC-PVTZ
  Basis Set:

    Orbital Energies (a.u.)
    -----------------------

    Doubly Occupied:

       1A    -15.524552     2A    -11.241166     3A    -11.210832
       4A     -1.175495     5A     -0.990217     6A     -0.831442
       7A     -0.667212     8A     -0.608173     9A     -0.594777
      10A     -0.536885    11A     -0.506780    12A     -0.488618
      13A     -0.380625

  @DF-RHF Final Energy:  -134.30105532868168

   => Energetics <=

    Nuclear Repulsion Energy =             83.3555944065218313
    One-Electron Energy =                -345.7997532936099674
    Two-Electron Energy =                 128.1431035584064659
    DFT Exchange-Correlation Energy =       0.0000000000000000
    Empirical Dispersion Energy =           0.0000000000000000
    PCM Polarization Energy =               0.0000000000000000
    EFP Energy =                            0.0000000000000000
    Total Energy =                       -134.3010553286816560
    Molecular point group: c1
  Basis Set: CC-PVTZ
  Basis Set:

  -Total Gradient:
     Atom            X                  Y                   Z
    ------   -----------------  -----------------  -----------------
       1        0.000194107300    -0.000018327289    -0.001396527109
       2       -0.000088957577    -0.000189965269     0.001581895376
       3       -0.000800176688     0.000987311952     0.000556418340
       4       -0.000000392439    -0.000000046020    -0.000018015004
       5        0.000000309013    -0.000010906951     0.000003552726
       6        0.000692355169    -0.000773725126    -0.000737881221
       7        0.000009193255    -0.000005196612     0.000004904234
       8       -0.000006724815     0.000005836009     0.000008241301
       9        0.000001359387     0.000006042099    -0.000000376856
      10       -0.000001072604    -0.000001022793    -0.000002211788

  **** Optimization is complete! (in 5 steps) ****
    Final optimized geometry and variables:
    Molecular point group: c1

    Geometry (in Angstrom), charge = 0, multiplicity = 1:

    H           -0.931413912580    -1.287258777024    -0.039125750198
    N           -1.202263977384    -0.328542041660    -0.077302576833
    C           -0.053866786644     0.561223900136     0.076946718609
    H           -1.659618501494    -0.188842826994    -0.950912842516
    C            1.283025031679    -0.166983437621     0.057540329901
    H           -0.062466037222     1.300824364203    -0.716228305538
    H           -0.145888074834     1.105179350802     1.011204272876
    H            1.440616933823    -0.667810576281    -0.891945372058
    H            2.103654022950     0.523513255701     0.216541482515
    H            1.324415737350    -0.914880233057     0.843221347292

  Mulliken Charges: (a.u.)
   Center  Symbol    Alpha    Beta     Spin     Total
       1     H     0.42894  0.42894  0.00000  0.14213
       2     N     3.69339  3.69339  0.00000 -0.38678
       3     C     3.01460  3.01460  0.00000 -0.02919
       4     H     0.42759  0.42759  0.00000  0.14483
       5     C     3.14504  3.14504  0.00000 -0.29009
       6     H     0.46205  0.46205  0.00000  0.07590
       7     H     0.46260  0.46260  0.00000  0.07479
       8     H     0.45725  0.45725  0.00000  0.08550
       9     H     0.45348  0.45348  0.00000  0.09304
      10     H     0.45506  0.45506  0.00000  0.08988

   Total alpha = 13.00000, Total beta = 13.00000, Total charge =  0.00000

*** Psi4 exiting successfully. Buy a developer a beer!
