  ==> Input File <==

--------------------------------------------------------------------------
set {
	reference rhf
	basis 6-31G*
}

set_num_threads( 4 )
memory 2 gb

molecule MOL {
0 1

H	 -2.365627	 -1.312883	 -0.379134
C	 -1.358347	 -1.274295	 0.019669
C	 -0.681945	 0.000119	 -0.470601
H	 -0.826096	 -2.155117	 -0.321105
H	 -1.409554	 -1.292283	 1.100109
C	 -1.357790	 1.274691	 0.020220
N	 0.739525	 -0.000142	 0.006128
H	 -0.594190	 0.000341	 -1.545128
H	 -2.364980	 1.313977	 -0.378631
H	 -0.825080	 2.155361	 -0.320114
H	 -1.409060	 1.292170	 1.100671
O	 1.003447	 -0.680022	 0.948831
O	 1.517551	 0.681619	 -0.589924

	symmetry c1
}
set optking {
	frozen_dihedral = ("
		12 7 3 8
	")
}

ee = optimize('scf')
oeprop('DIPOLE', 'QUADRUPOLE', 'MULLIKEN_CHARGES')
f=open( 'psi4out.xyz', 'w' )
f.write( "13  " )
f.write( str(ee) + "\n" )
f.write( MOL.save_string_xyz() )
f.close()
--------------------------------------------------------------------------

    Molecular point group: c1
  Charge       = 0
  Multiplicity = 1
  Basis Set: 6-31G*
  Basis Set:
  @DF-RHF Final Energy:  -321.73784754077167
    Total Energy =                       -321.7378475407717247
    Molecular point group: c1
  Basis Set: 6-31G*
  Basis Set:
  Basis Set: 6-31G*
  Basis Set:
  @DF-RHF Final Energy:  -321.73605389760155
    Total Energy =                       -321.7360538976014368
  Basis Set: 6-31G*
  Basis Set:
  Basis Set: 6-31G*
  Basis Set:
  @DF-RHF Final Energy:  -321.73407655488529
    Total Energy =                       -321.7340765548855188
  Basis Set: 6-31G*
  Basis Set:
  Basis Set: 6-31G*
  Basis Set:
  @DF-RHF Final Energy:  -321.73845923630097
    Total Energy =                       -321.7384592363008551
  Basis Set: 6-31G*
  Basis Set:
  Basis Set: 6-31G*
  Basis Set:
  @DF-RHF Final Energy:  -321.73853428481254
    Total Energy =                       -321.7385342848126584
  Basis Set: 6-31G*
  Basis Set:
  Basis Set: 6-31G*
  Basis Set:
  @DF-RHF Final Energy:  -321.73856659901662
    Total Energy =                       -321.7385665990166217
  Basis Set: 6-31G*
  Basis Set:
  Basis Set: 6-31G*
  Basis Set:
  @DF-RHF Final Energy:  -321.73857001161747
    Total Energy =                       -321.7385700116174121
  Basis Set: 6-31G*
  Basis Set:
  Charge       = 0
  Multiplicity = 1
  Basis Set: 6-31G*
  Basis Set:

    Orbital Energies (a.u.)
    -----------------------

    Doubly Occupied:

       1A    -20.601665     2A    -20.597153     3A    -15.843530
       4A    -11.306873     5A    -11.247963     6A    -11.241146
       7A     -1.628924     8A     -1.414251     9A     -1.143180
      10A     -0.972375    11A     -0.958235    12A     -0.813442
      13A     -0.755559    14A     -0.726116    15A     -0.721790
      16A     -0.646341    17A     -0.593353    18A     -0.587618
      19A     -0.572002    20A     -0.528692    21A     -0.522102
      22A     -0.481635    23A     -0.470536    24A     -0.446766

  @DF-RHF Final Energy:  -321.73857029609354

   => Energetics <=

    Nuclear Repulsion Energy =            256.8157855982564683
    One-Electron Energy =                -947.4662200267919161
    Two-Electron Energy =                 368.9118641324420764
    DFT Exchange-Correlation Energy =       0.0000000000000000
    Empirical Dispersion Energy =           0.0000000000000000
    PCM Polarization Energy =               0.0000000000000000
    EFP Energy =                            0.0000000000000000
    Total Energy =                       -321.7385702960933145
    Molecular point group: c1
  Basis Set: 6-31G*
  Basis Set:

  -Total Gradient:
     Atom            X                  Y                   Z
    ------   -----------------  -----------------  -----------------
       1        0.000003356581     0.000005624505     0.000001478051
       2        0.000005633205     0.000014957437    -0.000001701795
       3        0.000023536153     0.000650635822    -0.000193757597
       4       -0.000002336530     0.000003375851    -0.000001728514
       5       -0.000002316599    -0.000006320832     0.000009427579
       6       -0.000007544612    -0.000002796926     0.000003795100
       7       -0.000260998829     0.000634947779     0.000625276319
       8        0.000008294028    -0.000734129602    -0.000007559210
       9        0.000004154051    -0.000008743869    -0.000001167956
      10        0.000005954830    -0.000002283047    -0.000006264156
      11        0.000002319118    -0.000005994295     0.000001983123
      12        0.000203025772    -0.000530580440    -0.000467232528
      13        0.000016922834    -0.000018692384     0.000037451582

  **** Optimization is complete! (in 8 steps) ****
    Final optimized geometry and variables:
    Molecular point group: c1

    Geometry (in Angstrom), charge = 0, multiplicity = 1:

    H           -2.378346111901    -1.314880960161    -0.419065644012
    C           -1.384242647924    -1.293291552531     0.014087668374
    C           -0.683519254906    -0.031498316514    -0.459237226972
    H           -0.854978307638    -2.182799072259    -0.303107066582
    H           -1.473943147728    -1.314926417129     1.091495619934
    C           -1.346969219028     1.257000294884     0.022187850699
    N            0.743787421579     0.000434740736     0.008741302119
    H           -0.593010367954    -0.022022242796    -1.535268176627
    H           -2.364812286495     1.290980254804    -0.348099233731
    H           -0.816157371848     2.125750238069    -0.343457051282
    H           -1.376184222917     1.289522066123     1.105708298411
    O            1.053513753750    -0.670701571536     0.943364529345
    O            1.478292801888     0.729268177624    -0.586325333427

  Mulliken Charges: (a.u.)
   Center  Symbol    Alpha    Beta     Spin     Total
       1     H     0.41212  0.41212  0.00000  0.17577
       2     C     3.24345  3.24345  0.00000 -0.48690
       3     C     3.02328  3.02328  0.00000 -0.04657
       4     H     0.40268  0.40268  0.00000  0.19463
       5     H     0.40007  0.40007  0.00000  0.19986
       6     C     3.25020  3.25020  0.00000 -0.50040
       7     N     3.21824  3.21824  0.00000  0.56352
       8     H     0.38674  0.38674  0.00000  0.22653
       9     H     0.40637  0.40637  0.00000  0.18726
      10     H     0.39410  0.39410  0.00000  0.21180
      11     H     0.40390  0.40390  0.00000  0.19221
      12     O     4.22808  4.22808  0.00000 -0.45615
      13     O     4.23078  4.23078  0.00000 -0.46155

   Total alpha = 24.00000, Total beta = 24.00000, Total charge = -0.00000
