                              Psi4 1.0.54 Driver

  ==> Input File <==

--------------------------------------------------------------------------
set {
	reference rhf
	basis cc-pvtz
}

set_num_threads( 4 )
memory 2 gb

molecule MOL {
0 1

H	 -4.016533	 -0.329191	 0.524956
O	 -3.515113	 -0.019339	 -0.206321
C	 -2.302264	 0.528872	 0.237390
C	 -1.175688	 -0.398187	 -0.171891
H	 -2.148018	 1.514076	 -0.197759
H	 -2.310727	 0.646384	 1.319032
C	 0.196029	 0.106276	 0.266738
H	 -1.201873	 -0.515469	 -1.250677
H	 -1.365975	 -1.378728	 0.252664
C	 1.330220	 -0.826136	 -0.155230
H	 0.359542	 1.097229	 -0.145561
H	 0.212134	 0.218135	 1.348778
C	 2.719700	 -0.407669	 0.328325
H	 1.339388	 -0.911200	 -1.239363
H	 1.119001	 -1.821953	 0.224128
C	 3.241564	 0.893452	 -0.276737
H	 3.418299	 -1.204729	 0.093035
H	 2.711776	 -0.323368	 1.411960
H	 3.254204	 0.841071	 -1.360784
H	 2.634460	 1.745075	 0.005842
H	 4.254264	 1.092401	 0.054971

	symmetry c1
}
set optking {
	frozen_dihedral = ("
		1 2 3 5
	")
}

ee,wfn = optimize('scf', return_wfn=True)
oeprop( wfn, 'DIPOLE', 'QUADRUPOLE', 'MULLIKEN_CHARGES')
f=open( 'psi4out.xyz', 'w' )
f.write( "21  " )
f.write( str(ee) + "\n" )
f.write( MOL.save_string_xyz() )
f.close()
--------------------------------------------------------------------------

    Molecular point group: c1
  Charge       = 0
  Multiplicity = 1
  Basis Set: CC-PVTZ
  Basis Set:
  @DF-RHF Final Energy:  -310.33068971322825
    Total Energy =                       -310.3306897132284234
    Molecular point group: c1
  Basis Set: CC-PVTZ
  Basis Set:
  Basis Set: CC-PVTZ
  Basis Set:
  @DF-RHF Final Energy:  -310.33130283331610
    Total Energy =                       -310.3313028333159878
  Basis Set: CC-PVTZ
  Basis Set:
  Basis Set: CC-PVTZ
  Basis Set:
  @DF-RHF Final Energy:  -310.33142040366636
    Total Energy =                       -310.3314204036666411
  Basis Set: CC-PVTZ
  Basis Set:
  Basis Set: CC-PVTZ
  Basis Set:
  @DF-RHF Final Energy:  -310.33142143377370
    Total Energy =                       -310.3314214337739827
  Basis Set: CC-PVTZ
  Basis Set:
  Charge       = 0
  Multiplicity = 1
  Basis Set: CC-PVTZ
  Basis Set:

    Orbital Energies (a.u.)
    -----------------------

    Doubly Occupied:

       1A    -20.544317     2A    -11.265387     3A    -11.213978
       4A    -11.213814     5A    -11.212267     6A    -11.209427
       7A    -11.206443     8A     -1.361918     9A     -1.088016
      10A     -1.034546    11A     -0.955642    12A     -0.878083
      13A     -0.812134    14A     -0.779466    15A     -0.702888
      16A     -0.650157    17A     -0.619849    18A     -0.610010
      19A     -0.589911    20A     -0.571283    21A     -0.543407
      22A     -0.526986    23A     -0.502093    24A     -0.496990
      25A     -0.471131    26A     -0.467062    27A     -0.460926
      28A     -0.456470    29A     -0.423155

  @DF-RHF Final Energy:  -310.33142125386075

   => Energetics <=

    Nuclear Repulsion Energy =            312.5933687547512818
    One-Electron Energy =               -1040.1140685176014813
    Two-Electron Energy =                 417.1892785089892755
    DFT Exchange-Correlation Energy =       0.0000000000000000
    Empirical Dispersion Energy =           0.0000000000000000
    PCM Polarization Energy =               0.0000000000000000
    EFP Energy =                            0.0000000000000000
    Total Energy =                       -310.3314212538609240
    Molecular point group: c1
  Basis Set: CC-PVTZ
  Basis Set:

  -Total Gradient:
     Atom            X                  Y                   Z
    ------   -----------------  -----------------  -----------------
       1       -0.000297507962     0.000726204780     0.000103457883
       2        0.000364819755    -0.000822535092    -0.000016976253
       3        0.000286823387    -0.000210537885    -0.000599068943
       4       -0.000125457194     0.000072979830    -0.000060561626
       5       -0.000297569280     0.000250208315     0.000509281003
       6       -0.000004838911     0.000003537122     0.000044616668
       7       -0.000020345655    -0.000003493796     0.000000865297
       8        0.000011148939    -0.000028394901    -0.000009564049
       9       -0.000010626956     0.000026811458     0.000001486063
      10        0.000037175680     0.000007238771     0.000043935751
      11        0.000031843194     0.000015029780     0.000009077109
      12        0.000001653303    -0.000006935434    -0.000013209364
      13        0.000047994884    -0.000049376466    -0.000048687071
      14       -0.000002856061    -0.000011051138     0.000012601859
      15       -0.000004321340     0.000016534654     0.000013102655
      16       -0.000016533000     0.000000930146     0.000011468367
      17        0.000028800575     0.000007773768    -0.000002859412
      18        0.000000289235    -0.000010402434    -0.000008046615
      19        0.000004359974    -0.000005683790     0.000006641706
      20       -0.000031742186     0.000013939407    -0.000003522118
      21       -0.000003110388     0.000007222904     0.000005961089

  **** Optimization is complete! (in 5 steps) ****
    Final optimized geometry and variables:
    Molecular point group: c1

    Geometry (in Angstrom), charge = 0, multiplicity = 1:

    H           -4.063937345585    -0.305882131317     0.473518280071
    O           -3.542217904017     0.009318564079    -0.238847656971
    C           -2.308489823123     0.494154162625     0.229529659083
    C           -1.166602357439    -0.424891921114    -0.166920218835
    H           -2.159048681550     1.480813072283    -0.195310590228
    H           -2.330710784241     0.616268883241     1.309182529540
    C            0.198346105037     0.104163814825     0.264163355710
    H           -1.191995910529    -0.555627886421    -1.244255267530
    H           -1.339062946259    -1.405686559108     0.267666173363
    C            1.347319935341    -0.816343818268    -0.143782052777
    H            0.346250693617     1.091470549458    -0.162298604790
    H            0.212990866281     0.232728400532     1.344649767693
    C            2.729886859931    -0.369943962340     0.334632222798
    H            1.358493406293    -0.916000158380    -1.226569479522
    H            1.151289866554    -1.810132772450     0.249046892322
    C            3.229301995729     0.933538822174    -0.283930100082
    H            3.441762719140    -1.157439993473     0.107062049131
    H            2.721009847850    -0.274667428185     1.417356290626
    H            3.242982993325     0.870012112266    -1.367314527375
    H            2.607515738741     1.777401472824    -0.010288579080
    H            4.238333908185     1.153334270458     0.045699790545

  Mulliken Charges: (a.u.)
   Center  Symbol    Alpha    Beta     Spin     Total
       1     H     0.39220  0.39220  0.00000  0.21560
       2     O     4.20418  4.20418  0.00000 -0.40836
       3     C     2.97260  2.97260  0.00000  0.05481
       4     C     3.08045  3.08045  0.00000 -0.16090
       5     H     0.45978  0.45978  0.00000  0.08045
       6     H     0.47279  0.47279  0.00000  0.05442
       7     C     3.10417  3.10417  0.00000 -0.20835
       8     H     0.45042  0.45042  0.00000  0.09915
       9     H     0.45843  0.45843  0.00000  0.08313
      10     C     3.09390  3.09390  0.00000 -0.18780
      11     H     0.45207  0.45207  0.00000  0.09586
      12     H     0.45613  0.45613  0.00000  0.08774
      13     C     3.08990  3.08990  0.00000 -0.17980
      14     H     0.45276  0.45276  0.00000  0.09449
      15     H     0.44934  0.44934  0.00000  0.10131
      16     C     3.15241  3.15241  0.00000 -0.30483
      17     H     0.44840  0.44840  0.00000  0.10320
      18     H     0.45519  0.45519  0.00000  0.08963
      19     H     0.45443  0.45443  0.00000  0.09114
      20     H     0.45401  0.45401  0.00000  0.09199
      21     H     0.44644  0.44644  0.00000  0.10712

   Total alpha = 29.00000, Total beta = 29.00000, Total charge = -0.00000

*** Psi4 exiting successfully. Buy a developer a beer!
