  ==> Input File <==

--------------------------------------------------------------------------
set {
	reference rhf
	basis 6-31G*
}

set_num_threads( 4 )
memory 2 gb

molecule MOL {
0 1

H	 -2.646374	 -0.642757	 1.268656
C	 -2.083525	 -0.384536	 0.393091
O	 -0.807605	 -0.127164	 0.768327
F	 -2.118945	 -1.383102	 -0.486752
F	 -2.621877	 0.670592	 -0.209486
C	 0.197125	 -0.376016	 -0.148885
C	 1.293549	 -1.134799	 0.587498
Cl	 0.828136	 1.136829	 -0.819960
H	 -0.140103	 -0.982350	 -0.971327
F	 2.284311	 -1.419672	 -0.230657
F	 0.795604	 -2.269152	 1.037758
F	 1.767245	 -0.456732	 1.604263

	symmetry c1
}
set optking {
	frozen_dihedral = ("
		6 3 2 4
	")
}

ee = optimize('scf')
oeprop('DIPOLE', 'QUADRUPOLE', 'MULLIKEN_CHARGES')
f=open( 'psi4out.xyz', 'w' )
f.write( "12  " )
f.write( str(ee) + "\n" )
f.write( MOL.save_string_xyz() )
f.close()
--------------------------------------------------------------------------

    Molecular point group: c1
  Charge       = 0
  Multiplicity = 1
  Basis Set: 6-31G*
  Basis Set:
  @DF-RHF Final Energy: -1146.31059030475467
    Total Energy =                      -1146.3105903047544416
    Molecular point group: c1
  Basis Set: 6-31G*
  Basis Set:
  Basis Set: 6-31G*
  Basis Set:
  @DF-RHF Final Energy: -1146.31093356730003
    Total Energy =                      -1146.3109335673000260
  Basis Set: 6-31G*
  Basis Set:
  Basis Set: 6-31G*
  Basis Set:
  @DF-RHF Final Energy: -1146.31158028234404
    Total Energy =                      -1146.3115802823444938
  Basis Set: 6-31G*
  Basis Set:
  Basis Set: 6-31G*
  Basis Set:
  @DF-RHF Final Energy: -1146.31164984088218
    Total Energy =                      -1146.3116498408821826
  Basis Set: 6-31G*
  Basis Set:
  @DF-RHF Final Energy: -1146.31175070474774
    Total Energy =                      -1146.3117507047477375
  @DF-RHF Final Energy: -1146.31187871653219
    Total Energy =                      -1146.3118787165315098
  Basis Set: 6-31G*
  Basis Set:
  @DF-RHF Final Energy: -1146.31192571476276
    Total Energy =                      -1146.3119257147632197
  Basis Set: 6-31G*
  Basis Set:
  Basis Set: 6-31G*
  Basis Set:
  @DF-RHF Final Energy: -1146.31194378929854
    Total Energy =                      -1146.3119437892987662
  Basis Set: 6-31G*
  Basis Set:
  Basis Set: 6-31G*
  Basis Set:
  @DF-RHF Final Energy: -1146.31195045057143
    Total Energy =                      -1146.3119504505716577
  Basis Set: 6-31G*
  Basis Set:
  Charge       = 0
  Multiplicity = 1
  Basis Set: 6-31G*
  Basis Set:

    Orbital Energies (a.u.)
    -----------------------

    Doubly Occupied:

       1A   -104.841897     2A    -26.360379     3A    -26.359286
       4A    -26.357859     5A    -26.353729     6A    -26.338864
       7A    -20.648757     8A    -11.528361     9A    -11.490664
      10A    -11.400490    11A    -10.576689    12A     -8.046030
      13A     -8.042514    14A     -8.042415    15A     -1.761634
      16A     -1.718286    17A     -1.658013    18A     -1.656611
      19A     -1.638738    20A     -1.484210    21A     -1.177766
      22A     -1.054870    23A     -0.986435    24A     -0.918641
      25A     -0.859092    26A     -0.851875    27A     -0.846586
      28A     -0.818063    29A     -0.816662    30A     -0.793330
      31A     -0.729166    32A     -0.726360    33A     -0.706844
      34A     -0.696744    35A     -0.679535    36A     -0.675128
      37A     -0.659320    38A     -0.658243    39A     -0.639678
      40A     -0.638878    41A     -0.598785    42A     -0.577450
      43A     -0.520155    44A     -0.474407    45A     -0.468140

  @DF-RHF Final Energy: -1146.31195088044842

   => Energetics <=

    Nuclear Repulsion Energy =            734.8160611669280797
    One-Electron Energy =               -3052.5008622588093203
    Two-Electron Energy =                1171.3728502114329331
    DFT Exchange-Correlation Energy =       0.0000000000000000
    Empirical Dispersion Energy =           0.0000000000000000
    PCM Polarization Energy =               0.0000000000000000
    EFP Energy =                            0.0000000000000000
    Total Energy =                      -1146.3119508804481939
    Molecular point group: c1
  Basis Set: 6-31G*
  Basis Set:

  -Total Gradient:
     Atom            X                  Y                   Z
    ------   -----------------  -----------------  -----------------
       1        0.000012221931    -0.000032988676     0.000002639484
       2       -0.000657141583    -0.003744637104     0.001952381777
       3        0.000286208306     0.004320735747    -0.000906860946
       4        0.000419351368     0.001861650449    -0.001301569034
       5        0.000002446537     0.000026195140    -0.000027420332
       6       -0.000098599910    -0.002422432290     0.000259799693
       7       -0.000037688697     0.000068447781    -0.000049549009
       8       -0.000003067411    -0.000013148395     0.000012882694
       9       -0.000005621559    -0.000005857341    -0.000006210637
      10       -0.000008596864    -0.000047800268     0.000049699361
      11        0.000062219383     0.000014861692    -0.000022930711
      12        0.000028268518    -0.000025026751     0.000037137682

  **** Optimization is complete! (in 10 steps) ****
    Final optimized geometry and variables:
    Molecular point group: c1

    Geometry (in Angstrom), charge = 0, multiplicity = 1:

    H           -2.759784419798    -0.307432085204     1.041233165368
    C           -2.160536431725     0.056661517621     0.229007664189
    O           -0.858102706448     0.051077907372     0.621085911622
    F           -2.339175086145    -0.701690463358    -0.849726822060
    F           -2.543489435081     1.283034785804    -0.095734883899
    C            0.157179982269    -0.111450032607    -0.295789573468
    C            1.329107712531    -0.702330578463     0.477861390925
    CL           0.625768385197     1.422249771629    -1.059581558025
    H           -0.108804605508    -0.793143914404    -1.082572488605
    F            2.346682410984    -0.915843750498    -0.328386378104
    F            0.962536348636    -1.862983012688     0.985772924813
    F            1.722137085064     0.073261164399     1.458007392096

  Mulliken Charges: (a.u.)
   Center  Symbol    Alpha    Beta     Spin     Total
       1     H     0.40486  0.40486  0.00000  0.19029
       2     C     2.55729  2.55729  0.00000  0.88542
       3     O     4.30814  4.30814  0.00000 -0.61628
       4     F     4.68654  4.68654  0.00000 -0.37307
       5     F     4.67817  4.67817  0.00000 -0.35634
       6     C     3.04255  3.04255  0.00000 -0.08510
       7     C     2.43204  2.43204  0.00000  1.13591
       8    CL     8.50473  8.50473  0.00000 -0.00947
       9     H     0.36545  0.36545  0.00000  0.26909
      10     F     4.67446  4.67446  0.00000 -0.34893
      11     F     4.67767  4.67767  0.00000 -0.35533
      12     F     4.66809  4.66809  0.00000 -0.33619

   Total alpha = 45.00000, Total beta = 45.00000, Total charge = -0.00000
