  ==> Input File <==

--------------------------------------------------------------------------
set {
	reference rhf
	basis 6-31G*
}

set_num_threads( 1 )
memory 2 gb

molecule MOL {
0 1

O	 -2.821601	 1.309235	 -0.001213
C	 -2.668563	 0.129746	 -0.000350
C	 -3.801572	 -0.864014	 -0.000442
O	 -1.481751	 -0.454642	 0.000584
H	 -4.417280	 -0.689587	 -0.874708
H	 -3.443784	 -1.883046	 -0.000565
H	 -4.417179	 -0.689832	 0.873954
C	 -0.334255	 0.388708	 0.000906
C	 0.891947	 -0.504646	 0.000751
H	 -0.365390	 1.025305	 -0.873475
H	 -0.365484	 1.024911	 0.875569
C	 2.191998	 0.301789	 0.000897
H	 0.855148	 -1.151283	 -0.871571
H	 0.855132	 -1.151660	 0.872805
C	 3.441114	 -0.581407	 0.000108
H	 2.215074	 0.954890	 -0.869742
H	 2.215465	 0.953923	 0.872248
C	 3.985105	 -0.841695	 -1.403883
H	 3.210736	 -1.529891	 0.480086
H	 4.213230	 -0.112164	 0.605681
H	 3.246589	 -1.341390	 -2.024297
H	 4.869541	 -1.470165	 -1.371729
H	 4.256930	 0.086930	 -1.897621

	symmetry c1
}
set optking {
	frozen_dihedral = ("
		13 9 8 10,
		2 4 8 10,
		16 12 9 13,
		1 2 4 8
	")
}

ee = energy('scf')
oeprop('DIPOLE', 'QUADRUPOLE', 'MULLIKEN_CHARGES')
f=open( 'psi4out.xyz', 'w' )
f.write( "23  " )
f.write( str(ee) + "\n" )
f.write( MOL.save_string_xyz() )
f.close()
--------------------------------------------------------------------------

    Molecular point group: c1

    Geometry (in Angstrom), charge = 0, multiplicity = 1:

       Center              X                  Y                   Z               Mass
    ------------   -----------------  -----------------  -----------------  -----------------
           O         -2.734494019676     1.432286196302     0.160743754273    15.994914619560
           C         -2.581456019676     0.252797196302     0.161606754273    12.000000000000
           C         -3.714465019676    -0.740962803698     0.161514754273    12.000000000000
           O         -1.394644019676    -0.331590803698     0.162540754273    15.994914619560
           H         -4.330173019676    -0.566535803698    -0.712751245727     1.007825032070
           H         -3.356677019676    -1.759994803698     0.161391754273     1.007825032070
           H         -4.330072019676    -0.566780803698     1.035910754273     1.007825032070
           C         -0.247148019676     0.511759196302     0.162862754273    12.000000000000
           C          0.979053980324    -0.381594803698     0.162707754273    12.000000000000
           H         -0.278283019676     1.148356196302    -0.711518245727     1.007825032070
           H         -0.278377019676     1.147962196302     1.037525754273     1.007825032070
           C          2.279104980324     0.424840196302     0.162853754273    12.000000000000
           H          0.942254980324    -1.028231803698    -0.709614245727     1.007825032070
           H          0.942238980324    -1.028608803698     1.034761754273     1.007825032070
           C          3.528220980324    -0.458355803698     0.162064754273    12.000000000000
           H          2.302180980324     1.077941196302    -0.707785245727     1.007825032070
           H          2.302571980324     1.076974196302     1.034204754273     1.007825032070
           C          4.072211980324    -0.718643803698    -1.241926245727    12.000000000000
           H          3.297842980324    -1.406839803698     0.642042754273     1.007825032070
           H          4.300336980324     0.010887196302     0.767637754273     1.007825032070
           H          3.333695980324    -1.218338803698    -1.862340245727     1.007825032070
           H          4.956647980324    -1.347113803698    -1.209772245727     1.007825032070
           H          4.344036980324     0.209981196302    -1.735664245727     1.007825032070

  Charge       = 0
  Multiplicity = 1
  Basis Set: 6-31G*
  Basis Set:

    Orbital Energies (a.u.)
    -----------------------

    Doubly Occupied:

       1A    -20.602956     2A    -20.540502     3A    -11.374065
       4A    -11.281260     5A    -11.232406     6A    -11.224464
       7A    -11.222897     8A    -11.220635     9A    -11.213171
      10A     -1.467937    11A     -1.360708    12A     -1.094878
      13A     -1.041746    14A     -1.002423    15A     -0.930662
      16A     -0.848174    17A     -0.798219    18A     -0.773294
      19A     -0.691205    20A     -0.685387    21A     -0.669480
      22A     -0.633969    23A     -0.617550    24A     -0.597074
      25A     -0.579071    26A     -0.571554    27A     -0.547135
      28A     -0.533105    29A     -0.528451    30A     -0.505998
      31A     -0.499245    32A     -0.476184    33A     -0.465242
      34A     -0.463056    35A     -0.451226    36A     -0.435225

  @DF-RHF Final Energy:  -422.97558084768627

   => Energetics <=

    Nuclear Repulsion Energy =            452.8820543993568890
    One-Electron Energy =               -1473.3540036931806299
    Two-Electron Energy =                 597.4963684461376943
    DFT Exchange-Correlation Energy =       0.0000000000000000
    Empirical Dispersion Energy =           0.0000000000000000
    PCM Polarization Energy =               0.0000000000000000
    EFP Energy =                            0.0000000000000000
    Total Energy =                       -422.9755808476860466

  Mulliken Charges: (a.u.)
   Center  Symbol    Alpha    Beta     Spin     Total
       1     O     4.28391  4.28391  0.00000 -0.56782
       2     C     2.61535  2.61535  0.00000  0.76931
       3     C     3.28774  3.28774  0.00000 -0.57548
       4     O     4.31268  4.31268  0.00000 -0.62536
       5     H     0.39750  0.39750  0.00000  0.20501
       6     H     0.39990  0.39990  0.00000  0.20020
       7     H     0.39750  0.39750  0.00000  0.20500
       8     C     2.99587  2.99587  0.00000  0.00825
       9     C     3.16630  3.16630  0.00000 -0.33261
      10     H     0.41064  0.41064  0.00000  0.17872
      11     H     0.41061  0.41061  0.00000  0.17878
      12     C     3.16312  3.16312  0.00000 -0.32623
      13     H     0.41396  0.41396  0.00000  0.17209
      14     H     0.41375  0.41375  0.00000  0.17250
      15     C     3.15435  3.15435  0.00000 -0.30870
      16     H     0.41926  0.41926  0.00000  0.16148
      17     H     0.41837  0.41837  0.00000  0.16326
      18     C     3.24067  3.24067  0.00000 -0.48135
      19     H     0.42002  0.42002  0.00000  0.15997
      20     H     0.41841  0.41841  0.00000  0.16318
      21     H     0.42128  0.42128  0.00000  0.15744
      22     H     0.41843  0.41843  0.00000  0.16315
      23     H     0.42039  0.42039  0.00000  0.15922

   Total alpha = 36.00000, Total beta = 36.00000, Total charge =  0.00000
