  ==> Input File <==

--------------------------------------------------------------------------
set {
	reference rhf
	basis 6-31G*
}

set_num_threads( 1 )
memory 2 gb

molecule MOL {
0 1

H	 -4.031818	 -0.453427	 -0.000094
C	 -2.967712	 -0.297022	 -0.000064
C	 -2.458620	 0.992929	 0.000032
C	 -2.109895	 -1.385637	 -0.000122
H	 -3.124998	 1.836319	 0.000077
C	 -1.090278	 1.193236	 0.000070
H	 -2.506361	 -2.384847	 -0.000198
C	 -0.739812	 -1.187531	 -0.000085
H	 -0.678594	 2.184290	 0.000146
C	 -0.226438	 0.104061	 0.000012
H	 -0.072310	 -2.027032	 -0.000131
C	 1.239129	 0.373821	 0.000060
O	 1.580699	 1.385968	 -0.783198
O	 2.030665	 -0.249998	 0.635024
C	 2.957881	 1.712249	 -0.843051
H	 3.324045	 1.988559	 0.134891
H	 3.032583	 2.547699	 -1.521502
H	 3.529454	 0.874251	 -1.214512

	symmetry c1
}
set optking {
	frozen_dihedral = ("
		12 13 15 16,
		10 12 13 15
	")
}

ee = energy('scf')
oeprop('DIPOLE', 'QUADRUPOLE', 'MULLIKEN_CHARGES')
f=open( 'psi4out.xyz', 'w' )
f.write( "18  " )
f.write( str(ee) + "\n" )
f.write( MOL.save_string_xyz() )
f.close()
--------------------------------------------------------------------------

    Molecular point group: c1

    Geometry (in Angstrom), charge = 0, multiplicity = 1:

       Center              X                  Y                   Z               Mass
    ------------   -----------------  -----------------  -----------------  -----------------
           H         -3.976562744384    -0.753638873739     0.110962340344     1.007825032070
           C         -2.912456744384    -0.597233873739     0.110992340344    12.000000000000
           C         -2.403364744384     0.692717126261     0.111088340344    12.000000000000
           C         -2.054639744384    -1.685848873739     0.110934340344    12.000000000000
           H         -3.069742744384     1.536107126261     0.111133340344     1.007825032070
           C         -1.035022744384     0.893024126261     0.111126340344    12.000000000000
           H         -2.451105744384    -2.685058873739     0.110858340344     1.007825032070
           C         -0.684556744384    -1.487742873739     0.110971340344    12.000000000000
           H         -0.623338744384     1.884078126261     0.111202340344     1.007825032070
           C         -0.171182744384    -0.196150873739     0.111068340344    12.000000000000
           H         -0.017054744384    -2.327243873739     0.110925340344     1.007825032070
           C          1.294384255616     0.073609126261     0.111116340344    12.000000000000
           O          1.635954255616     1.085756126261    -0.672141659656    15.994914619560
           O          2.085920255616    -0.550209873739     0.746080340344    15.994914619560
           C          3.013136255616     1.412037126261    -0.731994659656    12.000000000000
           H          3.379300255616     1.688347126261     0.245947340344     1.007825032070
           H          3.087838255616     2.247487126261    -1.410445659656     1.007825032070
           H          3.584709255616     0.574039126261    -1.103455659656     1.007825032070

  Charge       = 0
  Multiplicity = 1
  Basis Set: 6-31G*
  Basis Set:

    Orbital Energies (a.u.)
    -----------------------

    Doubly Occupied:

       1A    -20.608983     2A    -20.545916     3A    -11.378372
       4A    -11.283421     5A    -11.248507     6A    -11.244917
       7A    -11.243637     8A    -11.243376     9A    -11.238805
      10A    -11.238477    11A     -1.473647    12A     -1.364110
      13A     -1.166240    14A     -1.049369    15A     -1.025794
      16A     -0.978562    17A     -0.860568    18A     -0.836771
      19A     -0.778740    20A     -0.738821    21A     -0.685528
      22A     -0.677842    23A     -0.673777    24A     -0.631060
      25A     -0.626922    26A     -0.598125    27A     -0.588505
      28A     -0.554281    29A     -0.532730    30A     -0.518178
      31A     -0.506370    32A     -0.500786    33A     -0.457966
      34A     -0.443473    35A     -0.343475    36A     -0.342343

  @DF-RHF Final Energy:  -457.34534236415504

   => Energetics <=

    Nuclear Repulsion Energy =            492.6030666146704107
    One-Electron Energy =               -1599.4401580874045976
    Two-Electron Energy =                 649.4917491085789152
    DFT Exchange-Correlation Energy =       0.0000000000000000
    Empirical Dispersion Energy =           0.0000000000000000
    PCM Polarization Energy =               0.0000000000000000
    EFP Energy =                            0.0000000000000000
    Total Energy =                       -457.3453423641553854

  Mulliken Charges: (a.u.)
   Center  Symbol    Alpha    Beta     Spin     Total
       1     H     0.39584  0.39584  0.00000  0.20833
       2     C     3.09294  3.09294  0.00000 -0.18588
       3     C     3.10408  3.10408  0.00000 -0.20815
       4     C     3.10484  3.10484  0.00000 -0.20968
       5     H     0.39606  0.39606  0.00000  0.20788
       6     C     3.09186  3.09186  0.00000 -0.18372
       7     H     0.39515  0.39515  0.00000  0.20970
       8     C     3.09127  3.09127  0.00000 -0.18253
       9     H     0.38526  0.38526  0.00000  0.22948
      10     C     3.03855  3.03855  0.00000 -0.07710
      11     H     0.38349  0.38349  0.00000  0.23303
      12     C     2.61605  2.61605  0.00000  0.76790
      13     O     4.30369  4.30369  0.00000 -0.60737
      14     O     4.28506  4.28506  0.00000 -0.57011
      15     C     3.09339  3.09339  0.00000 -0.18679
      16     H     0.40787  0.40787  0.00000  0.18426
      17     H     0.40727  0.40727  0.00000  0.18546
      18     H     0.40735  0.40735  0.00000  0.18531

   Total alpha = 36.00000, Total beta = 36.00000, Total charge = -0.00000
