  ==> Input File <==

--------------------------------------------------------------------------
set {
	reference rhf
	basis 6-31G*
}

set_num_threads( 1 )
memory 2 gb

molecule MOL {
0 1

H	 1.008026	 -0.741407	 -1.345052
O	 1.221911	 0.176689	 -1.249102
C	 0.709265	 0.639550	 -0.033818
C	 -0.793441	 0.596080	 0.058728
H	 1.050906	 1.663306	 0.068199
H	 1.134719	 0.085046	 0.801969
C	 -1.530462	 -0.493172	 -0.025500
H	 -1.268471	 1.554324	 0.202247
H	 -1.092586	 -1.461565	 -0.186463
H	 -2.602122	 -0.450675	 0.050101

	symmetry c1
}
set optking {
	frozen_dihedral = ("
		5 3 2 1,
		3 4 7 9
	")
}

ee = energy('scf')
oeprop('DIPOLE', 'QUADRUPOLE', 'MULLIKEN_CHARGES')
f=open( 'psi4out.xyz', 'w' )
f.write( "10  " )
f.write( str(ee) + "\n" )
f.write( MOL.save_string_xyz() )
f.close()
--------------------------------------------------------------------------

    Molecular point group: c1

    Geometry (in Angstrom), charge = 0, multiplicity = 1:

       Center              X                  Y                   Z               Mass
    ------------   -----------------  -----------------  -----------------  -----------------
           H          1.035845032019    -0.954868941343    -0.993606378163     1.007825032070
           O          1.249730032019    -0.036772941343    -0.897656378163    15.994914619560
           C          0.737084032019     0.426088058657     0.317627621837    12.000000000000
           C         -0.765621967981     0.382618058657     0.410173621837    12.000000000000
           H          1.078725032019     1.449844058657     0.419644621837     1.007825032070
           H          1.162538032019    -0.128415941343     1.153414621837     1.007825032070
           C         -1.502642967981    -0.706633941343     0.325945621837    12.000000000000
           H         -1.240651967981     1.340862058657     0.553692621837     1.007825032070
           H         -1.064766967981    -1.675026941343     0.164982621837     1.007825032070
           H         -2.574302967981    -0.664136941343     0.401546621837     1.007825032070

  Charge       = 0
  Multiplicity = 1
  Basis Set: 6-31G*
  Basis Set:

    Orbital Energies (a.u.)
    -----------------------

    Doubly Occupied:

       1A    -20.557077     2A    -11.275683     3A    -11.232292
       4A    -11.227096     5A     -1.366010     6A     -1.062313
       7A     -0.927209     8A     -0.770044     9A     -0.700075
      10A     -0.647073    11A     -0.622010    12A     -0.578444
      13A     -0.531462    14A     -0.498549    15A     -0.436879
      16A     -0.371718

  @DF-RHF Final Energy:  -191.91066880654802

   => Energetics <=

    Nuclear Repulsion Energy =            118.5720487349293961
    One-Electron Energy =                -495.3575102657498519
    Two-Electron Energy =                 184.8747927242723108
    DFT Exchange-Correlation Energy =       0.0000000000000000
    Empirical Dispersion Energy =           0.0000000000000000
    PCM Polarization Energy =               0.0000000000000000
    EFP Energy =                            0.0000000000000000
    Total Energy =                       -191.9106688065481308

  Mulliken Charges: (a.u.)
   Center  Symbol    Alpha    Beta     Spin     Total
       1     H     0.28155  0.28155  0.00000  0.43691
       2     O     4.36229  4.36229  0.00000 -0.72459
       3     C     3.00950  3.00950  0.00000 -0.01900
       4     C     3.08352  3.08352  0.00000 -0.16704
       5     H     0.41222  0.41222  0.00000  0.17556
       6     H     0.42356  0.42356  0.00000  0.15288
       7     C     3.19551  3.19551  0.00000 -0.39102
       8     H     0.40605  0.40605  0.00000  0.18790
       9     H     0.41905  0.41905  0.00000  0.16191
      10     H     0.40675  0.40675  0.00000  0.18649

   Total alpha = 16.00000, Total beta = 16.00000, Total charge = -0.00000
