                              Psi4 1.0.54 Driver

  ==> Input File <==

--------------------------------------------------------------------------
set {
	reference rhf
	basis cc-pvtz
}

set_num_threads( 4 )
memory 2 gb

molecule MOL {
0 1

H	 -2.394293	 1.029529	 -1.095260
C	 -1.543962	 1.693996	 -1.170370
C	 -0.241522	 0.910308	 -1.218309
H	 -1.568994	 2.353264	 -0.313075
H	 -1.655349	 2.292881	 -2.066379
C	 0.000000	 0.039916	 0.000014
H	 0.608634	 1.579709	 -1.318482
H	 -0.209451	 0.267486	 -2.093891
C	 1.286532	 -0.763243	 0.000268
O	 -0.772584	 -0.009758	 0.900584
C	 2.547023	 0.087626	 -0.000114
H	 1.264245	 -1.421103	 -0.864380
H	 1.264290	 -1.420353	 0.865489
H	 2.584452	 0.725630	 -0.872909
H	 3.427035	 -0.544422	 0.000125
H	 2.584484	 0.726356	 0.872143

	symmetry c1
}
set optking {
	frozen_dihedral = ("
		3 6 9 12
	")
}

ee,wfn = optimize('scf', return_wfn=True)
oeprop( wfn, 'DIPOLE', 'QUADRUPOLE', 'MULLIKEN_CHARGES')
f=open( 'psi4out.xyz', 'w' )
f.write( "16  " )
f.write( str(ee) + "\n" )
f.write( MOL.save_string_xyz() )
f.close()
--------------------------------------------------------------------------

    Molecular point group: c1
  Charge       = 0
  Multiplicity = 1
  Basis Set: CC-PVTZ
  Basis Set:
  @DF-RHF Final Energy:  -270.12845024195889
    Total Energy =                       -270.1284502419590012
    Molecular point group: c1
  Basis Set: CC-PVTZ
  Basis Set:
  Basis Set: CC-PVTZ
  Basis Set:
  @DF-RHF Final Energy:  -270.10077586093388
    Total Energy =                       -270.1007758609339362
  Basis Set: CC-PVTZ
  Basis Set:
  Basis Set: CC-PVTZ
  Basis Set:
  @DF-RHF Final Energy:  -270.12836114684353
    Total Energy =                       -270.1283611468436447
  Basis Set: CC-PVTZ
  Basis Set:
  Basis Set: CC-PVTZ
  Basis Set:
  @DF-RHF Final Energy:  -270.12869660055634
    Total Energy =                       -270.1286966005562249
  Basis Set: CC-PVTZ
  Basis Set:
  @DF-RHF Final Energy:  -270.12909335698657
    Total Energy =                       -270.1290933569869139
  Basis Set: CC-PVTZ
  Basis Set:
  @DF-RHF Final Energy:  -270.12915362389788
    Total Energy =                       -270.1291536238978210
  Basis Set: CC-PVTZ
  Basis Set:
  Basis Set: CC-PVTZ
  Basis Set:
  @DF-RHF Final Energy:  -270.12915926712265
    Total Energy =                       -270.1291592671225317
  Basis Set: CC-PVTZ
  Basis Set:
  Basis Set: CC-PVTZ
  Basis Set:
  @DF-RHF Final Energy:  -270.12916196208016
    Total Energy =                       -270.1291619620802180
  Basis Set: CC-PVTZ
  Basis Set:
  Charge       = 0
  Multiplicity = 1
  Basis Set: CC-PVTZ
  Basis Set:

    Orbital Energies (a.u.)
    -----------------------

    Doubly Occupied:

       1A    -20.538176     2A    -11.317105     3A    -11.231892
       4A    -11.230908     5A    -11.227531     6A    -11.211499
       7A     -1.397848     8A     -1.073554     9A     -1.036393
      10A     -0.910376    11A     -0.862478    12A     -0.726027
      13A     -0.663944    14A     -0.638928    15A     -0.634567
      16A     -0.608265    17A     -0.559565    18A     -0.544263
      19A     -0.534853    20A     -0.511213    21A     -0.506064
      22A     -0.495361    23A     -0.484128    24A     -0.398776

  @DF-RHF Final Energy:  -270.12916206688357

   => Energetics <=

    Nuclear Repulsion Energy =            240.8511392673295290
    One-Electron Energy =                -843.2731729359214796
    Two-Electron Energy =                 332.2928716017086117
    DFT Exchange-Correlation Energy =       0.0000000000000000
    Empirical Dispersion Energy =           0.0000000000000000
    PCM Polarization Energy =               0.0000000000000000
    EFP Energy =                            0.0000000000000000
    Total Energy =                       -270.1291620668832820
    Molecular point group: c1
  Basis Set: CC-PVTZ
  Basis Set:

  -Total Gradient:
     Atom            X                  Y                   Z
    ------   -----------------  -----------------  -----------------
       1        0.000003486651     0.000006659629    -0.000000321197
       2        0.000002268293    -0.000012335894    -0.000017120700
       3        0.000064830454     0.000137502658     0.000052160739
       4        0.000005644908    -0.000003869017    -0.000001564121
       5        0.000000605747    -0.000001872523     0.000006219802
       6       -0.000124361858    -0.000216251862    -0.000004327495
       7       -0.000001389023    -0.000004789697    -0.000002478612
       8       -0.000001835197     0.000003915785     0.000004753651
       9        0.000076781556     0.000205063415    -0.000170873012
      10        0.000005938638    -0.000000080148    -0.000013696664
      11        0.000017717078     0.000014200784     0.000003361288
      12       -0.000044376829    -0.000116149961     0.000148377954
      13        0.000001527924     0.000000805709    -0.000005671170
      14       -0.000003423080    -0.000004972751     0.000010042663
      15       -0.000002175707    -0.000005972315    -0.000000171808
      16       -0.000001239562    -0.000001853813    -0.000008691317

  **** Optimization is complete! (in 9 steps) ****
    Final optimized geometry and variables:
    Molecular point group: c1

    Geometry (in Angstrom), charge = 0, multiplicity = 1:

    H           -2.794875550446     0.098211374335    -0.410592044321
    C           -2.131627082889     0.899490213572    -0.709174249712
    C           -0.713214750190     0.388532570249    -0.911424691114
    H           -2.164564358648     1.654683641901     0.063903839766
    H           -2.509739143754     1.331343914547    -1.628136721535
    C           -0.101530996952    -0.228590397863     0.332159159545
    H           -0.061876492726     1.196831630409    -1.230523893070
    H           -0.674667653837    -0.349038797472    -1.708233121362
    C            1.234034527282    -0.933429900094     0.181281581824
    O           -0.644003297806    -0.170308601272     1.387789890427
    C            2.371272324977    -0.019731085094    -0.282026472176
    H            1.110859811663    -1.746797182120    -0.528157216692
    H            1.470015927361    -1.367009201329     1.142783740762
    H            2.206304366656     0.360636923987    -1.282163219045
    H            3.305401311833    -0.566853245573    -0.289666380721
    H            2.488126943224     0.825556670462     0.386336255983

  Mulliken Charges: (a.u.)
   Center  Symbol    Alpha    Beta     Spin     Total
       1     H     0.44918  0.44918  0.00000  0.10163
       2     C     3.14110  3.14110  0.00000 -0.28219
       3     C     3.10839  3.10839  0.00000 -0.21677
       4     H     0.44594  0.44594  0.00000  0.10812
       5     H     0.45092  0.45092  0.00000  0.09817
       6     C     2.86294  2.86294  0.00000  0.27412
       7     H     0.44426  0.44426  0.00000  0.11148
       8     H     0.44514  0.44514  0.00000  0.10973
       9     C     3.09493  3.09493  0.00000 -0.18986
      10     O     4.17249  4.17249  0.00000 -0.34499
      11     C     3.15644  3.15644  0.00000 -0.31289
      12     H     0.44994  0.44994  0.00000  0.10012
      13     H     0.43676  0.43676  0.00000  0.12648
      14     H     0.45243  0.45243  0.00000  0.09514
      15     H     0.44238  0.44238  0.00000  0.11523
      16     H     0.44677  0.44677  0.00000  0.10647

   Total alpha = 24.00000, Total beta = 24.00000, Total charge =  0.00000

*** Psi4 exiting successfully. Buy a developer a beer!
