  ==> Input File <==

--------------------------------------------------------------------------
set {
	reference rhf
	basis 6-31G*
}

set_num_threads( 4 )
memory 2 gb

molecule MOL {
0 1

H	 -0.000158	 1.970498	 0.756846
O	 -0.000074	 1.880206	 -0.189275
C	 -0.000015	 0.544847	 -0.545111
C	 -1.278788	 -0.123820	 -0.051541
C	 1.278802	 -0.123718	 -0.051505
H	 -0.000001	 0.490777	 -1.623619
F	 -2.239739	 0.770765	 0.036979
F	 -1.685521	 -1.080099	 -0.859289
F	 -1.101999	 -0.646942	 1.151242
F	 2.323327	 0.466644	 -0.591854
F	 1.326242	 -1.401483	 -0.363667
F	 1.388946	 -0.015632	 1.262939

	symmetry c1
}
set optking {
	frozen_dihedral = ("
		7 4 3 6
	")
}

ee = optimize('scf')
oeprop('DIPOLE', 'QUADRUPOLE', 'MULLIKEN_CHARGES')
f=open( 'psi4out.xyz', 'w' )
f.write( "12  " )
f.write( str(ee) + "\n" )
f.write( MOL.save_string_xyz() )
f.close()
--------------------------------------------------------------------------

    Molecular point group: c1
  Charge       = 0
  Multiplicity = 1
  Basis Set: 6-31G*
  Basis Set:
  @DF-RHF Final Energy:  -786.27310723558367
    Total Energy =                       -786.2731072355838933
    Molecular point group: c1
  Basis Set: 6-31G*
  Basis Set:
  Basis Set: 6-31G*
  Basis Set:
  @DF-RHF Final Energy:  -786.27457882889757
    Total Energy =                       -786.2745788288978019
  Basis Set: 6-31G*
  Basis Set:
  Basis Set: 6-31G*
  Basis Set:
  @DF-RHF Final Energy:  -786.27497300206244
    Total Energy =                       -786.2749730020616425
  Basis Set: 6-31G*
  Basis Set:
  Basis Set: 6-31G*
  Basis Set:
  @DF-RHF Final Energy:  -786.27506423582759
    Total Energy =                       -786.2750642358274717
  Basis Set: 6-31G*
  Basis Set:
  Basis Set: 6-31G*
  Basis Set:
  @DF-RHF Final Energy:  -786.27508543984300
    Total Energy =                       -786.2750854398429965
  Basis Set: 6-31G*
  Basis Set:
  Basis Set: 6-31G*
  Basis Set:
  @DF-RHF Final Energy:  -786.27509240837162
    Total Energy =                       -786.2750924083718473
  Basis Set: 6-31G*
  Basis Set:
  Charge       = 0
  Multiplicity = 1
  Basis Set: 6-31G*
  Basis Set:

    Orbital Energies (a.u.)
    -----------------------

    Doubly Occupied:

       1A    -26.362896     2A    -26.362816     3A    -26.360375
       4A    -26.358603     5A    -26.358393     6A    -26.358276
       7A    -20.618058     8A    -11.525502     9A    -11.524951
      10A    -11.349121    11A     -1.764331    12A     -1.757687
      13A     -1.660850    14A     -1.657729    15A     -1.657336
      16A     -1.653284    17A     -1.436619    18A     -1.101878
      19A     -0.995408    20A     -0.937249    21A     -0.863679
      22A     -0.861315    23A     -0.851104    24A     -0.845211
      25A     -0.831469    26A     -0.813844    27A     -0.737293
      28A     -0.729017    29A     -0.726639    30A     -0.719939
      31A     -0.688357    32A     -0.686368    33A     -0.683125
      34A     -0.675585    35A     -0.668147    36A     -0.660349
      37A     -0.657806    38A     -0.653089    39A     -0.619006
      40A     -0.549183    41A     -0.505897

  @DF-RHF Final Energy:  -786.27509280997469

   => Energetics <=

    Nuclear Repulsion Energy =            670.9966525769541477
    One-Electron Energy =               -2428.8879209585602439
    Two-Electron Energy =                 971.6161755716309472
    DFT Exchange-Correlation Energy =       0.0000000000000000
    Empirical Dispersion Energy =           0.0000000000000000
    PCM Polarization Energy =               0.0000000000000000
    EFP Energy =                            0.0000000000000000
    Total Energy =                       -786.2750928099751491
    Molecular point group: c1
  Basis Set: 6-31G*
  Basis Set:

  -Total Gradient:
     Atom            X                  Y                   Z
    ------   -----------------  -----------------  -----------------
       1        0.000001587230    -0.000021981068    -0.000013194006
       2       -0.000006469722    -0.000038491061    -0.000024300786
       3       -0.002659970596     0.005250383604     0.000935613228
       4       -0.000699543731    -0.001910919010    -0.005011956138
       5       -0.000001990647     0.000071162624     0.000012541693
       6        0.002492108954    -0.004135644574     0.000216919086
       7        0.000915436394     0.000797930727     0.003899507057
       8        0.000006477502     0.000004409380    -0.000006021643
       9       -0.000008161551     0.000017680074     0.000014285457
      10       -0.000004122090     0.000008584305    -0.000005651325
      11       -0.000023597163    -0.000017877687     0.000016813595
      12       -0.000011754575    -0.000025237317    -0.000034556224

  **** Optimization is complete! (in 7 steps) ****
    Final optimized geometry and variables:
    Molecular point group: c1

    Geometry (in Angstrom), charge = 0, multiplicity = 1:

    H            0.053796767889     2.003548039940     0.810405392285
    O            0.017044574102     1.925824959993    -0.135732138235
    C           -0.002683461770     0.602278859154    -0.516834973338
    C           -1.272934528639    -0.129810538009    -0.061192097488
    C            1.265387422832    -0.101964874130    -0.043496573251
    H            0.020040726164     0.553832395225    -1.595317819122
    F           -2.284724012958     0.705972552031     0.014979757855
    F           -1.581987140149    -1.093701114699    -0.903799866018
    F           -1.128781447927    -0.672015692662     1.138267632893
    F            2.310114938808     0.371403430520    -0.689597700602
    F            1.204152142002    -1.400832911539    -0.258865975860
    F            1.469420582266     0.098120133340     1.247502356598

  Mulliken Charges: (a.u.)
   Center  Symbol    Alpha    Beta     Spin     Total
       1     H     0.26650  0.26650  0.00000  0.46700
       2     O     4.35958  4.35958  0.00000 -0.71917
       3     C     3.05381  3.05381  0.00000 -0.10761
       4     C     2.44469  2.44469  0.00000  1.11061
       5     C     2.44128  2.44128  0.00000  1.11743
       6     H     0.37427  0.37427  0.00000  0.25146
       7     F     4.67306  4.67306  0.00000 -0.34612
       8     F     4.67514  4.67514  0.00000 -0.35027
       9     F     4.67972  4.67972  0.00000 -0.35945
      10     F     4.67536  4.67536  0.00000 -0.35072
      11     F     4.67566  4.67566  0.00000 -0.35133
      12     F     4.68093  4.68093  0.00000 -0.36185

   Total alpha = 41.00000, Total beta = 41.00000, Total charge =  0.00000
