  ==> Input File <==

--------------------------------------------------------------------------
set {
	reference rhf
	basis cc-pvtz
}

set_num_threads( 4 )
memory 2 gb

molecule MOL {
0 1

H	 2.429705	 2.338218	 -0.734986
N	 1.656153	 1.712023	 -0.806492
C	 1.860978	 0.530248	 0.016256
H	 1.565861	 1.464305	 -1.769732
C	 0.644130	 -0.381765	 -0.031064
H	 2.020673	 0.860860	 1.037089
H	 2.746723	 -0.038141	 -0.270702
C	 -0.678115	 0.376691	 0.025731
H	 0.693998	 -0.977147	 -0.936845
H	 0.693309	 -1.082142	 0.800523
C	 -1.900706	 -0.535531	 -0.022488
H	 -0.725296	 1.079516	 -0.802982
H	 -0.715474	 0.974884	 0.933278
C	 -3.220513	 0.226854	 0.028039
H	 -1.865036	 -1.134397	 -0.928236
H	 -1.857948	 -1.236381	 0.806820
H	 -3.309098	 0.911849	 -0.808725
H	 -4.066838	 -0.449485	 -0.008086
H	 -3.301685	 0.809374	 0.939860

	symmetry c1
}
set optking {
	frozen_dihedral = ("
		6 3 5 9
	")
}

ee = optimize('scf')
oeprop('DIPOLE', 'QUADRUPOLE', 'MULLIKEN_CHARGES')
f=open( 'psi4out.xyz', 'w' )
f.write( "19  " )
f.write( str(ee) + "\n" )
f.write( MOL.save_string_xyz() )
f.close()
--------------------------------------------------------------------------

    Molecular point group: c1
  Charge       = 0
  Multiplicity = 1
  Basis Set: CC-PVTZ
  Basis Set:
  @DF-RHF Final Energy:  -251.44423632236209
    Total Energy =                       -251.4442363223620305
    Molecular point group: c1
  Basis Set: CC-PVTZ
  Basis Set:
  Basis Set: CC-PVTZ
  Basis Set:
  @DF-RHF Final Energy:  -251.44518583282041
    Total Energy =                       -251.4451858328206981
  Basis Set: CC-PVTZ
  Basis Set:
  Basis Set: CC-PVTZ
  Basis Set:
  @DF-RHF Final Energy:  -251.44565692963531
    Total Energy =                       -251.4456569296353337
  Basis Set: CC-PVTZ
  Basis Set:
  Basis Set: CC-PVTZ
  Basis Set:
  @DF-RHF Final Energy:  -251.44568204946793
    Total Energy =                       -251.4456820494676776
  Basis Set: CC-PVTZ
  Basis Set:
  Basis Set: CC-PVTZ
  Basis Set:
  @DF-RHF Final Energy:  -251.44568320086913
    Total Energy =                       -251.4456832008694391
  Basis Set: CC-PVTZ
  Basis Set:
  Charge       = 0
  Multiplicity = 1
  Basis Set: CC-PVTZ
  Basis Set:

    Orbital Energies (a.u.)
    -----------------------

    Doubly Occupied:

       1A    -15.527513     2A    -11.239072     3A    -11.208844
       4A    -11.207364     5A    -11.201707     6A    -11.201373
       7A     -1.179206     8A     -1.068085     9A     -0.996316
      10A     -0.904268    11A     -0.812007    12A     -0.779597
      13A     -0.668208    14A     -0.632049    15A     -0.622151
      16A     -0.585543    17A     -0.565229    18A     -0.548289
      19A     -0.529437    20A     -0.495191    21A     -0.477214
      22A     -0.463882    23A     -0.454089    24A     -0.448709
      25A     -0.381849

  @DF-RHF Final Energy:  -251.44568357364219

   => Energetics <=

    Nuclear Repulsion Energy =            249.5669977922865144
    One-Electron Energy =                -833.6309769356280412
    Two-Electron Energy =                 332.6182955696991712
    DFT Exchange-Correlation Energy =       0.0000000000000000
    Empirical Dispersion Energy =           0.0000000000000000
    PCM Polarization Energy =               0.0000000000000000
    EFP Energy =                            0.0000000000000000
    Total Energy =                       -251.4456835736423272
    Molecular point group: c1
  Basis Set: CC-PVTZ
  Basis Set:

  -Total Gradient:
     Atom            X                  Y                   Z
    ------   -----------------  -----------------  -----------------
       1       -0.000006543834    -0.000020307365     0.000003415014
       2       -0.000033858167     0.000012152982    -0.000024432949
       3       -0.002763295320     0.003951626770    -0.000495882213
       4       -0.000000558682     0.000006310209    -0.000003424206
       5       -0.002143069035     0.003372819101    -0.002831216018
       6        0.002679291834    -0.003891478408     0.000891233385
       7       -0.000012456700    -0.000009617246     0.000009754280
       8        0.000000530354     0.000015967191     0.000018094060
       9        0.002271891023    -0.003465507834     0.002423467869
      10        0.000008424375     0.000015834217    -0.000001370416
      11       -0.000002328430    -0.000003887936     0.000016807212
      12       -0.000003537856     0.000005150401     0.000002478202
      13       -0.000011522498     0.000003219526     0.000003929794
      14        0.000008684654     0.000006338589    -0.000014741514
      15        0.000001931010    -0.000000617096     0.000001940132
      16        0.000001697260     0.000003029207     0.000005289407
      17       -0.000003700537     0.000006603292    -0.000000137778
      18        0.000006522884    -0.000001904171    -0.000005813870
      19        0.000001897667    -0.000005731427     0.000000609608

  **** Optimization is complete! (in 6 steps) ****
    Final optimized geometry and variables:
    Molecular point group: c1

    Geometry (in Angstrom), charge = 0, multiplicity = 1:

    H            2.843416884717     1.951816761137    -0.550940635559
    N            2.039859723113     1.374454551383    -0.678693225210
    C            2.104836259002     0.200289423206     0.175395638518
    H            2.017030587709     1.112235557208    -1.642504828360
    C            0.863474878137    -0.683896794427     0.070323118386
    H            2.229820032929     0.520874488299     1.204238808589
    H            2.974179116951    -0.423077834948    -0.038848375428
    C           -0.471274649691     0.048394201364     0.151713924736
    H            0.921242305088    -1.284260954077    -0.835627665306
    H            0.920411298980    -1.407136487594     0.880805899450
    C           -1.668000719174    -0.898868226924     0.146099641753
    H           -0.557882999477     0.747889585520    -0.670891540468
    H           -0.491362701460     0.649989776194     1.057355650456
    C           -3.006217017040    -0.171023897188     0.219320180555
    H           -1.640038526153    -1.508278611379    -0.753660150167
    H           -1.588416983146    -1.588992624371     0.982012713022
    H           -3.131934977307     0.501395911099    -0.622747074675
    H           -3.835553292709    -0.869330461089     0.211945265731
    H           -3.080112094918     0.420752815394     1.125709253091

  Mulliken Charges: (a.u.)
   Center  Symbol    Alpha    Beta     Spin     Total
       1     H     0.42923  0.42923  0.00000  0.14154
       2     N     3.68763  3.68763  0.00000 -0.37527
       3     C     3.03876  3.03876  0.00000 -0.07752
       4     H     0.43116  0.43116  0.00000  0.13768
       5     C     3.10117  3.10117  0.00000 -0.20234
       6     H     0.45541  0.45541  0.00000  0.08917
       7     H     0.46107  0.46107  0.00000  0.07786
       8     C     3.07487  3.07487  0.00000 -0.14974
       9     H     0.45386  0.45386  0.00000  0.09229
      10     H     0.45297  0.45297  0.00000  0.09406
      11     C     3.08438  3.08438  0.00000 -0.16876
      12     H     0.44996  0.44996  0.00000  0.10007
      13     H     0.45687  0.45687  0.00000  0.08627
      14     C     3.14961  3.14961  0.00000 -0.29922
      15     H     0.45655  0.45655  0.00000  0.08690
      16     H     0.45618  0.45618  0.00000  0.08763
      17     H     0.45521  0.45521  0.00000  0.08958
      18     H     0.44978  0.44978  0.00000  0.10044
      19     H     0.45532  0.45532  0.00000  0.08936

   Total alpha = 25.00000, Total beta = 25.00000, Total charge =  0.00000
