  ==> Input File <==

--------------------------------------------------------------------------
set {
	reference rhf
	basis cc-pvtz
}

set_num_threads( 4 )
memory 2 gb

molecule MOL {
0 1

H	 -3.642953	 0.223825	 0.000000
C	 -2.571844	 0.155001	 0.000000
C	 -1.957580	 -1.086132	 0.000000
C	 -1.807160	 1.303787	 0.000000
H	 -2.551493	 -1.979629	 0.000000
C	 -0.582719	 -1.174294	 0.000000
H	 -2.279934	 2.266806	 0.000000
C	 -0.427220	 1.213406	 0.000000
H	 -0.094904	 -2.127556	 0.000000
C	 0.196908	 -0.024061	 0.000000
H	 0.151409	 2.115254	 0.000000
C	 1.690041	 -0.173233	 0.000000
C	 2.443626	 -0.017973	 -1.301023
O	 2.273411	 -0.410378	 1.009358
H	 2.109907	 -0.749419	 -2.027383
H	 3.495122	 -0.157405	 -1.106998
H	 2.281344	 0.966570	 -1.723301

	symmetry c1
}
set optking {
	frozen_dihedral = ("
		13 12 10 8
	")
}

ee = optimize('scf')
oeprop('DIPOLE', 'QUADRUPOLE', 'MULLIKEN_CHARGES')
f=open( 'psi4out.xyz', 'w' )
f.write( "17  " )
f.write( str(ee) + "\n" )
f.write( MOL.save_string_xyz() )
f.close()
--------------------------------------------------------------------------

    Molecular point group: c1
  Charge       = 0
  Multiplicity = 1
  Basis Set: CC-PVTZ
  Basis Set:
  @DF-RHF Final Energy:  -382.59674896613154
    Total Energy =                       -382.5967489661312584
    Molecular point group: c1
  Basis Set: CC-PVTZ
  Basis Set:
  Basis Set: CC-PVTZ
  Basis Set:
  @DF-RHF Final Energy:  -382.59649620749167
    Total Energy =                       -382.5964962074920095
  Basis Set: CC-PVTZ
  Basis Set:
  Basis Set: CC-PVTZ
  Basis Set:
  @DF-RHF Final Energy:  -382.59716534300418
    Total Energy =                       -382.5971653430040078
  Basis Set: CC-PVTZ
  Basis Set:
  Basis Set: CC-PVTZ
  Basis Set:
  @DF-RHF Final Energy:  -382.59755979237099
    Total Energy =                       -382.5975597923704754
  Basis Set: CC-PVTZ
  Basis Set:
  Basis Set: CC-PVTZ
  Basis Set:
  @DF-RHF Final Energy:  -382.59756580944344
    Total Energy =                       -382.5975658094433811
  Basis Set: CC-PVTZ
  Basis Set:
  Basis Set: CC-PVTZ
  Basis Set:
  @DF-RHF Final Energy:  -382.59756809980922
    Total Energy =                       -382.5975680998096777
  Basis Set: CC-PVTZ
  Basis Set:
  Charge       = 0
  Multiplicity = 1
  Basis Set: CC-PVTZ
  Basis Set:

    Orbital Energies (a.u.)
    -----------------------

    Doubly Occupied:

       1A    -20.548472     2A    -11.330941     3A    -11.246901
       4A    -11.242035     5A    -11.240831     6A    -11.239500
       7A    -11.238846     8A    -11.237035     9A    -11.231492
      10A     -1.408219    11A     -1.171057    12A     -1.053981
      13A     -1.029673    14A     -1.001696    15A     -0.862362
      16A     -0.841426    17A     -0.765485    18A     -0.706556
      19A     -0.666818    20A     -0.647998    21A     -0.632416
      22A     -0.623426    23A     -0.602205    24A     -0.592870
      25A     -0.565229    26A     -0.525752    27A     -0.516325
      28A     -0.511442    29A     -0.497165    30A     -0.413609
      31A     -0.348751    32A     -0.346455

  @DF-RHF Final Energy:  -382.59756838657057

   => Energetics <=

    Nuclear Repulsion Energy =            403.5634615806816896
    One-Electron Energy =               -1318.5481200779659048
    Two-Electron Energy =                 532.3870901107136433
    DFT Exchange-Correlation Energy =       0.0000000000000000
    Empirical Dispersion Energy =           0.0000000000000000
    PCM Polarization Energy =               0.0000000000000000
    EFP Energy =                            0.0000000000000000
    Total Energy =                       -382.5975683865706287
    Molecular point group: c1
  Basis Set: CC-PVTZ
  Basis Set:

  -Total Gradient:
     Atom            X                  Y                   Z
    ------   -----------------  -----------------  -----------------
       1       -0.000002868236    -0.000003438427    -0.000002473558
       2        0.000003025120    -0.000003182492    -0.000017347131
       3       -0.000000120374     0.000000102500     0.000009075059
       4        0.000006622999     0.000017025636     0.000031673253
       5       -0.000000976437     0.000002763933     0.000004696449
       6       -0.000021776623     0.000012456096    -0.000018600612
       7        0.000001009290    -0.000001545200    -0.000002211053
       8       -0.000058820880    -0.000001030975     0.002021682570
       9        0.000008888131     0.000002521870    -0.000000108853
      10        0.000016212521    -0.000840869483    -0.003167912535
      11       -0.000008622036     0.000001710133     0.000008353331
      12        0.000213529746     0.002596182577     0.001527755336
      13       -0.000179818439    -0.001816001647    -0.000352241713
      14       -0.000011106435     0.000014519058    -0.000041926146
      15        0.000012710669     0.000008883246    -0.000000201660
      16        0.000013161594     0.000004099207    -0.000010380361
      17        0.000008949389     0.000005803965     0.000010167623

  **** Optimization is complete! (in 7 steps) ****
    Final optimized geometry and variables:
    Molecular point group: c1

    Geometry (in Angstrom), charge = 0, multiplicity = 1:

    H           -3.634026626565     0.278865784500     0.030189700221
    C           -2.564081684461     0.197667663735     0.027493728273
    C           -1.963465320707    -1.047067659140     0.034002841386
    C           -1.782812507865     1.337233316475     0.023469457795
    H           -2.566016781627    -1.934980019470     0.044228458653
    C           -0.585940976326    -1.152854667907     0.038230868230
    H           -2.244008823513     2.306158726415     0.028611875646
    C           -0.404811109793     1.232877603979     0.015593989452
    H           -0.122356826953    -2.120812306214     0.063808232684
    C            0.198472705588    -0.012608709894     0.020463987355
    H            0.196317041678     2.123040454298     0.015575315415
    C            1.700648185545    -0.137296344789     0.057192363179
    C            2.429584740209     0.050704202363    -1.250374486472
    O            2.267145337051    -0.410269060514     1.062429803581
    H            2.097208220108    -0.704006058957    -1.954788708625
    H            3.494653553886    -0.032327904844    -1.095512984934
    H            2.188917154253     1.015129422665    -1.682849211510

  Mulliken Charges: (a.u.)
   Center  Symbol    Alpha    Beta     Spin     Total
       1     H     0.42162  0.42162  0.00000  0.15676
       2     C     3.08536  3.08536  0.00000 -0.17073
       3     C     3.06301  3.06301  0.00000 -0.12602
       4     C     3.06413  3.06413  0.00000 -0.12827
       5     H     0.42138  0.42138  0.00000  0.15724
       6     C     3.09459  3.09459  0.00000 -0.18918
       7     H     0.42151  0.42151  0.00000  0.15698
       8     C     3.09835  3.09835  0.00000 -0.19669
       9     H     0.42160  0.42160  0.00000  0.15681
      10     C     2.95650  2.95650  0.00000  0.08700
      11     H     0.42392  0.42392  0.00000  0.15216
      12     C     2.88148  2.88148  0.00000  0.23704
      13     C     3.14968  3.14968  0.00000 -0.29935
      14     O     4.16604  4.16604  0.00000 -0.33208
      15     H     0.44627  0.44627  0.00000  0.10747
      16     H     0.43639  0.43639  0.00000  0.12722
      17     H     0.44818  0.44818  0.00000  0.10364

   Total alpha = 32.00000, Total beta = 32.00000, Total charge =  0.00000
