                              Psi4 1.0.54 Driver

  ==> Input File <==

--------------------------------------------------------------------------
set {
	reference rhf
	basis cc-pvtz
}

set_num_threads( 4 )
memory 2 gb

molecule MOL {
0 1

H	 3.273419	 0.176595	 -0.102789
N	 2.433987	 -0.362316	 -0.080024
C	 1.263552	 0.494993	 0.021953
H	 2.497638	 -0.973615	 0.707122
C	 -0.016533	 -0.325589	 -0.026925
H	 1.280915	 1.180773	 -0.818522
H	 1.263064	 1.106893	 0.925038
C	 -1.280353	 0.525521	 0.047747
H	 -0.016686	 -0.912532	 -0.939714
H	 -0.014099	 -1.037598	 0.796369
C	 -1.565767	 1.284492	 -1.243955
H	 -1.188114	 1.233784	 0.866783
H	 -2.130582	 -0.107380	 0.287372
H	 -0.748035	 1.952094	 -1.493656
H	 -2.466237	 1.881766	 -1.158122
H	 -1.699576	 0.602354	 -2.077000

	symmetry c1
}
set optking {
	frozen_dihedral = ("
		12 8 5 9
	")
}

ee,wfn = optimize('scf', return_wfn=True)
oeprop( wfn, 'DIPOLE', 'QUADRUPOLE', 'MULLIKEN_CHARGES')
f=open( 'psi4out.xyz', 'w' )
f.write( "16  " )
f.write( str(ee) + "\n" )
f.write( MOL.save_string_xyz() )
f.close()
--------------------------------------------------------------------------

    Molecular point group: c1
  Charge       = 0
  Multiplicity = 1
  Basis Set: CC-PVTZ
  Basis Set:
  @DF-RHF Final Energy:  -212.39820606918477
    Total Energy =                       -212.3982060691845959
    Molecular point group: c1
  Basis Set: CC-PVTZ
  Basis Set:
  Basis Set: CC-PVTZ
  Basis Set:
  @DF-RHF Final Energy:  -212.39838583447593
    Total Energy =                       -212.3983858344760165
  Basis Set: CC-PVTZ
  Basis Set:
  Basis Set: CC-PVTZ
  Basis Set:
  @DF-RHF Final Energy:  -212.39844407151236
    Total Energy =                       -212.3984440715125288
  Basis Set: CC-PVTZ
  Basis Set:
  Basis Set: CC-PVTZ
  Basis Set:
  @DF-RHF Final Energy:  -212.39844532891198
    Total Energy =                       -212.3984453289118619
  Basis Set: CC-PVTZ
  Basis Set:
  Charge       = 0
  Multiplicity = 1
  Basis Set: CC-PVTZ
  Basis Set:

    Orbital Energies (a.u.)
    -----------------------

    Doubly Occupied:

       1A    -15.526485     2A    -11.237728     3A    -11.213180
       4A    -11.208155     5A    -11.205429     6A     -1.178310
       7A     -1.059551     8A     -0.956205     9A     -0.856255
      10A     -0.782463    11A     -0.665198    12A     -0.629054
      13A     -0.611441    14A     -0.594824    15A     -0.548322
      16A     -0.521179    17A     -0.516570    18A     -0.468260
      19A     -0.466459    20A     -0.454955    21A     -0.384090

  @DF-RHF Final Energy:  -212.39844542354226

   => Energetics <=

    Nuclear Repulsion Energy =            188.6788187243373898
    One-Electron Energy =                -659.9863028286411009
    Two-Electron Energy =                 258.9090386807615118
    DFT Exchange-Correlation Energy =       0.0000000000000000
    Empirical Dispersion Energy =           0.0000000000000000
    PCM Polarization Energy =               0.0000000000000000
    EFP Energy =                            0.0000000000000000
    Total Energy =                       -212.3984454235422277
    Molecular point group: c1
  Basis Set: CC-PVTZ
  Basis Set:

  -Total Gradient:
     Atom            X                  Y                   Z
    ------   -----------------  -----------------  -----------------
       1        0.000004137054    -0.000002768643     0.000001219523
       2        0.000005621187     0.000012033731    -0.000000466385
       3       -0.000010787417    -0.000021324381     0.000001706144
       4       -0.000003126775     0.000003523009    -0.000001944396
       5       -0.000658202835    -0.001040559559     0.000605306832
       6        0.000000452417     0.000000897440    -0.000001945301
       7        0.000005034757     0.000002229882     0.000000461450
       8       -0.000541621462    -0.000866209900     0.000868356620
       9        0.000641001410     0.001010149182    -0.000639657070
      10        0.000004727316    -0.000002395826     0.000000779160
      11       -0.000007053956    -0.000001254319     0.000006532639
      12        0.000563529767     0.000896560252    -0.000836459687
      13       -0.000004145007     0.000003067569    -0.000000834043
      14        0.000003537902    -0.000002437600     0.000000405469
      15       -0.000004732732     0.000006253896    -0.000005399701
      16        0.000001628369     0.000002235268     0.000001938744

  **** Optimization is complete! (in 5 steps) ****
    Final optimized geometry and variables:
    Molecular point group: c1

    Geometry (in Angstrom), charge = 0, multiplicity = 1:

    H            3.081558176152    -0.174229859369     0.224835665942
    N            2.234160348121    -0.700944508742     0.232131684590
    C            1.073253942429     0.173113130351     0.290906088075
    H            2.268004639216    -1.303163706468     1.028070074010
    C           -0.213603667574    -0.639776299032     0.221377763512
    H            1.129901404186     0.848693329014    -0.554280819763
    H            1.053797264817     0.793342092107     1.188327598401
    C           -1.489395268753     0.203599259416     0.267197495727
    H           -0.191710474496    -1.232587405059    -0.687325407653
    H           -0.220991743660    -1.340761138131     1.052294361388
    C           -1.789121411950     0.954525176525    -1.028882972380
    H           -1.420999495414     0.918988081037     1.082579463260
    H           -2.329603443536    -0.443372402590     0.496415945747
    H           -1.006814362096     1.662153541710    -1.277288465875
    H           -2.716320415672     1.510407344552    -0.947472518744
    H           -1.888000078727     0.266587795641    -1.861892407678

  Mulliken Charges: (a.u.)
   Center  Symbol    Alpha    Beta     Spin     Total
       1     H     0.43008  0.43008  0.00000  0.13984
       2     N     3.68923  3.68923  0.00000 -0.37846
       3     C     3.02567  3.02567  0.00000 -0.05135
       4     H     0.43097  0.43097  0.00000  0.13807
       5     C     3.08674  3.08674  0.00000 -0.17348
       6     H     0.45627  0.45627  0.00000  0.08746
       7     H     0.46870  0.46870  0.00000  0.06260
       8     C     3.09473  3.09473  0.00000 -0.18947
       9     H     0.45060  0.45060  0.00000  0.09881
      10     H     0.45505  0.45505  0.00000  0.08990
      11     C     3.14925  3.14925  0.00000 -0.29849
      12     H     0.45712  0.45712  0.00000  0.08576
      13     H     0.44821  0.44821  0.00000  0.10357
      14     H     0.45546  0.45546  0.00000  0.08909
      15     H     0.44790  0.44790  0.00000  0.10421
      16     H     0.45402  0.45402  0.00000  0.09195

   Total alpha = 21.00000, Total beta = 21.00000, Total charge =  0.00000

*** Psi4 exiting successfully. Buy a developer a beer!
