  ==> Input File <==

--------------------------------------------------------------------------
set {
	reference rhf
	basis 6-31G*
}

set_num_threads( 1 )
memory 2 gb

molecule MOL {
0 1

H	 -3.301617	 0.570527	 0.000000
C	 -2.250981	 0.344174	 0.000000
C	 -1.813665	 -0.976045	 0.000000
C	 -1.315303	 1.358057	 0.000000
H	 -2.528860	 -1.779366	 0.000000
C	 -0.467298	 -1.270142	 0.000000
H	 -1.635074	 2.385107	 0.000000
C	 0.047081	 1.078114	 0.000000
H	 -0.115948	 -2.285222	 0.000000
C	 0.472063	 -0.241155	 0.000000
H	 0.749976	 1.888426	 0.000000
O	 1.765256	 -0.628444	 0.000000
C	 2.757418	 0.265058	 -0.415139
H	 2.613300	 0.567277	 -1.447237
H	 3.695069	 -0.263310	 -0.328823
H	 2.786974	 1.147189	 0.215974

	symmetry c1
}
set optking {
	frozen_dihedral = ("
		10 12 13 14
	")
}

ee = energy('scf')
oeprop('DIPOLE', 'QUADRUPOLE', 'MULLIKEN_CHARGES')
f=open( 'psi4out.xyz', 'w' )
f.write( "16  " )
f.write( str(ee) + "\n" )
f.write( MOL.save_string_xyz() )
f.close()
--------------------------------------------------------------------------

    Molecular point group: c1

    Geometry (in Angstrom), charge = 0, multiplicity = 1:

       Center              X                  Y                   Z               Mass
    ------------   -----------------  -----------------  -----------------  -----------------
           H         -3.298548573573     0.580772408557     0.060652530557     1.007825032070
           C         -2.247912573573     0.354419408557     0.060652530557    12.000000000000
           C         -1.810596573573    -0.965799591443     0.060652530557    12.000000000000
           C         -1.312234573573     1.368302408557     0.060652530557    12.000000000000
           H         -2.525791573573    -1.769120591443     0.060652530557     1.007825032070
           C         -0.464229573573    -1.259896591443     0.060652530557    12.000000000000
           H         -1.632005573573     2.395352408557     0.060652530557     1.007825032070
           C          0.050149426427     1.088359408557     0.060652530557    12.000000000000
           H         -0.112879573573    -2.274976591443     0.060652530557     1.007825032070
           C          0.475131426427    -0.230909591443     0.060652530557    12.000000000000
           H          0.753044426427     1.898671408557     0.060652530557     1.007825032070
           O          1.768324426427    -0.618198591443     0.060652530557    15.994914619560
           C          2.760486426427     0.275303408557    -0.354486469443    12.000000000000
           H          2.616368426427     0.577522408557    -1.386584469443     1.007825032070
           H          3.698137426427    -0.253064591443    -0.268170469443     1.007825032070
           H          2.790042426427     1.157434408557     0.276626530557     1.007825032070

  Charge       = 0
  Multiplicity = 1
  Basis Set: 6-31G*
  Basis Set:

    Orbital Energies (a.u.)
    -----------------------

    Doubly Occupied:

       1A    -20.583211     2A    -11.293193     3A    -11.279530
       4A    -11.232869     5A    -11.231270     6A    -11.224048
       7A    -11.219788     8A    -11.219283     9A     -1.413103
      10A     -1.145777    11A     -1.021310    12A     -1.012835
      13A     -0.940767    14A     -0.830506    15A     -0.804729
      16A     -0.720847    17A     -0.664598    18A     -0.662481
      19A     -0.653503    20A     -0.616517    21A     -0.587405
      22A     -0.576573    23A     -0.526319    24A     -0.517436
      25A     -0.508113    26A     -0.477031    27A     -0.457884
      28A     -0.334518    29A     -0.305994

  @DF-RHF Final Energy:  -344.58172361341877

   => Energetics <=

    Nuclear Repulsion Energy =            348.0609983184039606
    One-Electron Energy =               -1157.1623786960485631
    Two-Electron Energy =                 464.5196567642257151
    DFT Exchange-Correlation Energy =       0.0000000000000000
    Empirical Dispersion Energy =           0.0000000000000000
    PCM Polarization Energy =               0.0000000000000000
    EFP Energy =                            0.0000000000000000
    Total Energy =                       -344.5817236134188306

  Mulliken Charges: (a.u.)
   Center  Symbol    Alpha    Beta     Spin     Total
       1     H     0.40109  0.40109  0.00000  0.19781
       2     C     3.11141  3.11141  0.00000 -0.22283
       3     C     3.09237  3.09237  0.00000 -0.18474
       4     C     3.09163  3.09163  0.00000 -0.18327
       5     H     0.39885  0.39885  0.00000  0.20230
       6     C     3.12493  3.12493  0.00000 -0.24986
       7     H     0.39963  0.39963  0.00000  0.20074
       8     C     3.14199  3.14199  0.00000 -0.28398
       9     H     0.39299  0.39299  0.00000  0.21401
      10     C     2.78422  2.78422  0.00000  0.43156
      11     H     0.39765  0.39765  0.00000  0.20470
      12     O     4.32694  4.32694  0.00000 -0.65387
      13     C     3.08986  3.08986  0.00000 -0.17971
      14     H     0.41887  0.41887  0.00000  0.16226
      15     H     0.40572  0.40572  0.00000  0.18856
      16     H     0.42185  0.42185  0.00000  0.15631

   Total alpha = 29.00000, Total beta = 29.00000, Total charge =  0.00000
