  ==> Input File <==

--------------------------------------------------------------------------
set {
	reference rhf
	basis 6-31G*
}

set_num_threads( 4 )
memory 2 gb

molecule MOL {
0 1

H	 2.591676	 2.013956	 0.335017
O	 3.341076	 1.666752	 -0.126416
C	 3.569581	 0.339145	 0.272707
C	 2.539767	 -0.640285	 -0.279495
H	 4.553106	 0.084646	 -0.100901
H	 3.608576	 0.269204	 1.359154
C	 1.115811	 -0.397273	 0.226630
H	 2.556196	 -0.582511	 -1.364741
H	 2.852081	 -1.648031	 -0.010655
C	 0.054491	 -1.071621	 -0.647253
H	 0.928152	 0.672153	 0.265065
H	 1.026182	 -0.768408	 1.247692
C	 -1.384230	 -0.931125	 -0.136683
H	 0.117905	 -0.673859	 -1.658496
H	 0.290849	 -2.130890	 -0.723314
C	 -1.938529	 0.496057	 -0.156246
H	 -2.026898	 -1.560995	 -0.748286
H	 -1.446930	 -1.328643	 0.875189
C	 -3.408732	 0.570317	 0.261395
H	 -1.829236	 0.909938	 -1.157679
H	 -1.353862	 1.133714	 0.502436
C	 -3.962727	 1.994606	 0.248910
H	 -4.003378	 -0.053637	 -0.402356
H	 -3.521428	 0.148311	 1.257937
H	 -3.894210	 2.433240	 -0.742619
H	 -5.006373	 2.013789	 0.547354
H	 -3.412079	 2.635914	 0.931460

	symmetry c1
}
set optking {
	frozen_dihedral = ("
		10 7 4 8
	")
}

ee = optimize('scf')
oeprop('DIPOLE', 'QUADRUPOLE', 'MULLIKEN_CHARGES')
f=open( 'psi4out.xyz', 'w' )
f.write( "27  " )
f.write( str(ee) + "\n" )
f.write( MOL.save_string_xyz() )
f.close()
--------------------------------------------------------------------------

    Molecular point group: c1
  Charge       = 0
  Multiplicity = 1
  Basis Set: 6-31G*
  Basis Set:
  @DF-RHF Final Energy:  -388.28028371704545
    Total Energy =                       -388.2802837170451085
    Molecular point group: c1
  Basis Set: 6-31G*
  Basis Set:
  Basis Set: 6-31G*
  Basis Set:
  @DF-RHF Final Energy:  -388.28036645798846
    Total Energy =                       -388.2803664579887482
  Basis Set: 6-31G*
  Basis Set:
  Basis Set: 6-31G*
  Basis Set:
  @DF-RHF Final Energy:  -388.28051961643143
    Total Energy =                       -388.2805196164323434
  Basis Set: 6-31G*
  Basis Set:
  Basis Set: 6-31G*
  Basis Set:
  @DF-RHF Final Energy:  -388.28052978247928
    Total Energy =                       -388.2805297824788795
  Basis Set: 6-31G*
  Basis Set:
  Basis Set: 6-31G*
  Basis Set:
  @DF-RHF Final Energy:  -388.28053422729960
    Total Energy =                       -388.2805342272995404
  Basis Set: 6-31G*
  Basis Set:
  Basis Set: 6-31G*
  Basis Set:
  @DF-RHF Final Energy:  -388.28053534438135
    Total Energy =                       -388.2805353443819740
  Basis Set: 6-31G*
  Basis Set:
  Charge       = 0
  Multiplicity = 1
  Basis Set: 6-31G*
  Basis Set:

    Orbital Energies (a.u.)
    -----------------------

    Doubly Occupied:

       1A    -20.552132     2A    -11.267341     3A    -11.220084
       4A    -11.217046     5A    -11.216225     6A    -11.215541
       7A    -11.215165     8A    -11.214488     9A    -11.209606
      10A     -1.358974    11A     -1.095125    12A     -1.061331
      13A     -1.011497    14A     -0.948668    15A     -0.888077
      16A     -0.820031    17A     -0.802532    18A     -0.777998
      19A     -0.692700    20A     -0.653643    21A     -0.639743
      22A     -0.612965    23A     -0.597322    24A     -0.582698
      25A     -0.581466    26A     -0.552566    27A     -0.540387
      28A     -0.534068    29A     -0.507003    30A     -0.491834
      31A     -0.485646    32A     -0.471554    33A     -0.468804
      34A     -0.461159    35A     -0.453903    36A     -0.441330
      37A     -0.423296

  @DF-RHF Final Energy:  -388.28053522995111

   => Energetics <=

    Nuclear Repulsion Energy =            460.2613969844910002
    One-Electron Energy =               -1438.5159707188245193
    Two-Electron Energy =                 589.9740385043816104
    DFT Exchange-Correlation Energy =       0.0000000000000000
    Empirical Dispersion Energy =           0.0000000000000000
    PCM Polarization Energy =               0.0000000000000000
    EFP Energy =                            0.0000000000000000
    Total Energy =                       -388.2805352299518518
    Molecular point group: c1
  Basis Set: 6-31G*
  Basis Set:

  -Total Gradient:
     Atom            X                  Y                   Z
    ------   -----------------  -----------------  -----------------
       1       -0.000001269171    -0.000001081302    -0.000002653170
       2       -0.000004010756     0.000023329426     0.000001776480
       3       -0.000003921591    -0.000017713846     0.000012008765
       4        0.000796986603     0.004740786000    -0.000464413331
       5        0.000001283531     0.000009234364    -0.000008615048
       6        0.000012552594    -0.000005236271    -0.000002212767
       7       -0.000052192924    -0.003416134850     0.001908660648
       8       -0.000653975901    -0.003251349126    -0.000064267735
       9       -0.000002792766     0.000009496715     0.000017485224
      10       -0.000080771891     0.001932416048    -0.001412703324
      11        0.000006410497    -0.000005088634     0.000000803136
      12       -0.000013741888    -0.000019033916    -0.000004646823
      13       -0.000007160892    -0.000007838481    -0.000001080837
      14       -0.000007146169    -0.000004091454    -0.000003799305
      15        0.000021103071     0.000007270264     0.000010381125
      16        0.000003762288     0.000003216748     0.000002599714
      17       -0.000004108150     0.000007140463    -0.000001658778
      18       -0.000014375110    -0.000009047811    -0.000002981804
      19        0.000003741006     0.000002039025     0.000012422825
      20       -0.000001959676    -0.000000249184     0.000007560883
      21        0.000001663122     0.000003703324    -0.000000676090
      22       -0.000001457296    -0.000000402824    -0.000006419451
      23        0.000003325452    -0.000002756015     0.000001957676
      24       -0.000001525705     0.000002072744     0.000002878698
      25        0.000001045839     0.000002326593    -0.000000207390
      26       -0.000000680472    -0.000000678563    -0.000002117858
      27       -0.000000783642    -0.000002329440    -0.000000081463

  **** Optimization is complete! (in 7 steps) ****
    Final optimized geometry and variables:
    Molecular point group: c1

    Geometry (in Angstrom), charge = 0, multiplicity = 1:

    H            2.665164110150     1.783323008211     0.268450994488
    O            3.408490204618     1.369042053750    -0.144408296958
    C            3.545297791630     0.053697675939     0.329751562319
    C            2.495223167011    -0.900231353729    -0.226952977695
    H            4.530515235904    -0.268754438112     0.018549783524
    H            3.529161489114     0.036496483260     1.418886969149
    C            1.063487880642    -0.618631987734     0.243824534627
    H            2.538254282208    -0.884642711367    -1.312674219921
    H            2.768981942362    -1.912533443681     0.067283687229
    C            0.010691739142    -1.311846332923    -0.625620258111
    H            0.879261251309     0.452653458952     0.223805216292
    H            0.952554739392    -0.929901033871     1.281068639671
    C           -1.429613238099    -1.189680879297    -0.115528904556
    H            0.071280598348    -0.914464977079    -1.636777398302
    H            0.260193908998    -2.368656696819    -0.700394496073
    C           -1.992837451790     0.234129758086    -0.111182077185
    H           -2.067043162082    -1.813323302767    -0.738881144716
    H           -1.491378002724    -1.604457689466     0.889378928129
    C           -3.466098835168     0.291216708150     0.298269031318
    H           -1.879667232285     0.668468164014    -1.103557302447
    H           -1.416404627417     0.861856350681     0.564243516943
    C           -4.029189323664     1.711933866718     0.309259247772
    H           -4.052367702369    -0.323684555671    -0.381160883749
    H           -3.582425321779    -0.150426412808     1.285834063804
    H           -3.956712697918     2.170004054745    -0.673160437728
    H           -5.074966871531     1.718750697843     0.600647787438
    H           -3.487489805392     2.343421055830     1.007965579840

  Mulliken Charges: (a.u.)
   Center  Symbol    Alpha    Beta     Spin     Total
       1     H     0.27973  0.27973  0.00000  0.44053
       2     O     4.37074  4.37074  0.00000 -0.74148
       3     C     2.99768  2.99768  0.00000  0.00463
       4     C     3.16250  3.16250  0.00000 -0.32499
       5     H     0.41435  0.41435  0.00000  0.17130
       6     H     0.43209  0.43209  0.00000  0.13583
       7     C     3.15871  3.15871  0.00000 -0.31741
       8     H     0.41442  0.41442  0.00000  0.17116
       9     H     0.42391  0.42391  0.00000  0.15218
      10     C     3.15333  3.15333  0.00000 -0.30667
      11     H     0.42965  0.42965  0.00000  0.14070
      12     H     0.42239  0.42239  0.00000  0.15522
      13     C     3.15354  3.15354  0.00000 -0.30708
      14     H     0.42069  0.42069  0.00000  0.15862
      15     H     0.42133  0.42133  0.00000  0.15735
      16     C     3.15261  3.15261  0.00000 -0.30522
      17     H     0.42121  0.42121  0.00000  0.15757
      18     H     0.42406  0.42406  0.00000  0.15188
      19     C     3.15117  3.15117  0.00000 -0.30235
      20     H     0.42367  0.42367  0.00000  0.15266
      21     H     0.42405  0.42405  0.00000  0.15190
      22     C     3.23919  3.23919  0.00000 -0.47838
      23     H     0.42273  0.42273  0.00000  0.15453
      24     H     0.42319  0.42319  0.00000  0.15362
      25     H     0.42147  0.42147  0.00000  0.15706
      26     H     0.41913  0.41913  0.00000  0.16174
      27     H     0.42245  0.42245  0.00000  0.15510

   Total alpha = 37.00000, Total beta = 37.00000, Total charge =  0.00000
