  ==> Input File <==

--------------------------------------------------------------------------
set {
	reference rhf
	basis 6-31G*
}

set_num_threads( 4 )
memory 2 gb

molecule MOL {
0 1

H	 -2.798360	 -0.862255	 -0.071053
N	 -1.863561	 -0.715187	 0.256814
C	 -1.344686	 0.554728	 -0.219830
H	 -1.300452	 -1.461917	 -0.101532
C	 -2.477791	 1.544568	 -0.391373
H	 -0.597195	 0.998618	 0.439123
H	 -0.874712	 0.396924	 -1.185751
O	 -3.028458	 1.803451	 0.868322
H	 -2.106940	 2.468386	 -0.834845
H	 -3.231986	 1.125844	 -1.054016
C	 -4.142158	 2.638207	 0.847665
H	 -4.475775	 2.765407	 1.868556
H	 -3.899707	 3.615083	 0.433043
H	 -4.951822	 2.206464	 0.262985

	symmetry c1
}
set optking {
	frozen_dihedral = ("
		6 3 2 4
	")
}

ee = optimize('scf')
oeprop('DIPOLE', 'QUADRUPOLE', 'MULLIKEN_CHARGES')
f=open( 'psi4out.xyz', 'w' )
f.write( "14  " )
f.write( str(ee) + "\n" )
f.write( MOL.save_string_xyz() )
f.close()
--------------------------------------------------------------------------

    Molecular point group: c1
  Charge       = 0
  Multiplicity = 1
  Basis Set: 6-31G*
  Basis Set:
  @DF-RHF Final Energy:  -248.11566464707735
    Total Energy =                       -248.1156646470773239
    Molecular point group: c1
  Basis Set: 6-31G*
  Basis Set:
  Basis Set: 6-31G*
  Basis Set:
  @DF-RHF Final Energy:  -248.11753447987113
    Total Energy =                       -248.1175344798710967
  Basis Set: 6-31G*
  Basis Set:
  Basis Set: 6-31G*
  Basis Set:
  @DF-RHF Final Energy:  -248.11778602316966
    Total Energy =                       -248.1177860231699128
  Basis Set: 6-31G*
  Basis Set:
  Basis Set: 6-31G*
  Basis Set:
  @DF-RHF Final Energy:  -248.11779279390535
    Total Energy =                       -248.1177927939053234
  Basis Set: 6-31G*
  Basis Set:
  Charge       = 0
  Multiplicity = 1
  Basis Set: 6-31G*
  Basis Set:

    Orbital Energies (a.u.)
    -----------------------

    Doubly Occupied:

       1A    -20.555086     2A    -15.529316     3A    -11.272201
       4A    -11.265297     5A    -11.242785     6A     -1.381873
       7A     -1.173553     8A     -1.001033     9A     -0.907495
      10A     -0.820898    11A     -0.683595    12A     -0.668490
      13A     -0.652143    14A     -0.610714    15A     -0.582836
      16A     -0.578191    17A     -0.518823    18A     -0.499431
      19A     -0.468915    20A     -0.417191    21A     -0.377009

  @DF-RHF Final Energy:  -248.11779345273158

   => Energetics <=

    Nuclear Repulsion Energy =            193.9197787642918911
    One-Electron Energy =                -721.6613964437391360
    Two-Electron Energy =                 279.6238242267157261
    DFT Exchange-Correlation Energy =       0.0000000000000000
    Empirical Dispersion Energy =           0.0000000000000000
    PCM Polarization Energy =               0.0000000000000000
    EFP Energy =                            0.0000000000000000
    Total Energy =                       -248.1177934527315188
    Molecular point group: c1
  Basis Set: 6-31G*
  Basis Set:

  -Total Gradient:
     Atom            X                  Y                   Z
    ------   -----------------  -----------------  -----------------
       1       -0.000009544394     0.000012602901    -0.000006698395
       2        0.000989724717     0.000404614773     0.001773328867
       3        0.001072205765    -0.000888363927    -0.001221297944
       4       -0.000977023576    -0.000182834294    -0.001286976773
       5        0.000027312023    -0.000064218276    -0.000079095973
       6       -0.001087439465     0.000679362872     0.000753199983
       7       -0.000011317769    -0.000007855710    -0.000001630110
       8       -0.000005250200     0.000028349998     0.000034314707
       9       -0.000008039739     0.000012973573     0.000029895979
      10        0.000004069323     0.000004669639     0.000002197553
      11        0.000022687204    -0.000000722867     0.000003156977
      12       -0.000010131314     0.000003487529     0.000001770835
      13       -0.000005272566     0.000001756492     0.000000368679
      14       -0.000001980009    -0.000003822707    -0.000002534387

  **** Optimization is complete! (in 5 steps) ****
    Final optimized geometry and variables:
    Molecular point group: c1

    Geometry (in Angstrom), charge = 0, multiplicity = 1:

    H           -0.145243027197    -2.092194502681    -0.285181217891
    N            0.792111768593    -1.891382324194     0.003867061502
    C            1.234304226409    -0.604411987509    -0.514601967468
    H            1.368931862638    -2.633400362973    -0.339477533018
    C            0.091292509252     0.384244335028    -0.647781162242
    H            1.964632339030    -0.182295727250     0.167478028977
    H            1.705537855288    -0.681594919338    -1.495715091351
    O           -0.481021212106     0.619393215664     0.598932704946
    H            0.470867042063     1.313590962417    -1.073019305716
    H           -0.659195695014    -0.004112402956    -1.340000992730
    C           -1.542723714581     1.517945253851     0.578619276296
    H           -1.902277222263     1.621223407337     1.592980890504
    H           -1.232162985421     2.495626494941     0.213390920097
    H           -2.357519088417     1.160050169971    -0.048906473796

  Mulliken Charges: (a.u.)
   Center  Symbol    Alpha    Beta     Spin     Total
       1     H     0.33316  0.33316  0.00000  0.33369
       2     N     3.91813  3.91813  0.00000 -0.83627
       3     C     3.05891  3.05891  0.00000 -0.11782
       4     H     0.33347  0.33347  0.00000  0.33305
       5     C     2.99955  2.99955  0.00000  0.00090
       6     H     0.41160  0.41160  0.00000  0.17680
       7     H     0.43292  0.43292  0.00000  0.13416
       8     O     4.29579  4.29579  0.00000 -0.59159
       9     H     0.42870  0.42870  0.00000  0.14260
      10     H     0.43596  0.43596  0.00000  0.12808
      11     C     3.07990  3.07990  0.00000 -0.15980
      12     H     0.40998  0.40998  0.00000  0.18003
      13     H     0.43069  0.43069  0.00000  0.13862
      14     H     0.43123  0.43123  0.00000  0.13755

   Total alpha = 21.00000, Total beta = 21.00000, Total charge =  0.00000
