  ==> Input File <==

--------------------------------------------------------------------------
set {
	reference rhf
	basis 6-31G*
}

set_num_threads( 4 )
memory 2 gb

molecule MOL {
0 1

H	 2.866480	 -0.465706	 0.876907
C	 2.405773	 -0.024801	 0.000000
N	 0.988830	 -0.304158	 0.000000
H	 2.866480	 -0.465706	 -0.876907
H	 2.629928	 1.045948	 0.000000
C	 0.279147	 0.434866	 1.027698
C	 0.704707	 -1.723643	 0.101515
H	 0.631775	 0.170563	 2.029844
H	 0.454051	 1.496717	 0.885836
C	 -1.210219	 0.147911	 0.930553
H	 1.191225	 -2.242348	 -0.718541
H	 1.088345	 -2.145234	 1.036170
C	 -0.795944	 -1.953356	 0.028931
H	 -1.745196	 0.620170	 1.744056
H	 -1.595970	 0.536082	 -0.010451
O	 -1.462340	 -1.226116	 1.022405
H	 -1.032108	 -2.996725	 0.192101
H	 -1.162204	 -1.664047	 -0.954493

	symmetry c1
}
set optking {
	frozen_dihedral = ("
		6 3 2 5
	")
}

ee = optimize('scf')
oeprop('DIPOLE', 'QUADRUPOLE', 'MULLIKEN_CHARGES')
f=open( 'psi4out.xyz', 'w' )
f.write( "18  " )
f.write( str(ee) + "\n" )
f.write( MOL.save_string_xyz() )
f.close()
--------------------------------------------------------------------------

    Molecular point group: c1
  Charge       = 0
  Multiplicity = 1
  Basis Set: 6-31G*
  Basis Set:
  @DF-RHF Final Energy:  -325.02759602167282
    Total Energy =                       -325.0275960216732756
    Molecular point group: c1
  Basis Set: 6-31G*
  Basis Set:
  Basis Set: 6-31G*
  Basis Set:
  @DF-RHF Final Energy:  -325.02832396616378
    Total Energy =                       -325.0283239661630432
  Basis Set: 6-31G*
  Basis Set:
  Basis Set: 6-31G*
  Basis Set:
  @DF-RHF Final Energy:  -325.02843198796506
    Total Energy =                       -325.0284319879653481
  Basis Set: 6-31G*
  Basis Set:
  Basis Set: 6-31G*
  Basis Set:
  @DF-RHF Final Energy:  -325.02843326365587
    Total Energy =                       -325.0284332636555291
  Basis Set: 6-31G*
  Basis Set:
  Charge       = 0
  Multiplicity = 1
  Basis Set: 6-31G*
  Basis Set:

    Orbital Energies (a.u.)
    -----------------------

    Doubly Occupied:

       1A    -20.554069     2A    -15.548849     3A    -11.266286
       4A    -11.266265     5A    -11.244243     6A    -11.244107
       7A    -11.241175     8A     -1.383420     9A     -1.232126
      10A     -1.038694    11A     -0.981285    12A     -0.883168
      13A     -0.868967    14A     -0.774330    15A     -0.683570
      16A     -0.645733    17A     -0.643548    18A     -0.634603
      19A     -0.628450    20A     -0.571596    21A     -0.557695
      22A     -0.540026    23A     -0.527747    24A     -0.501944
      25A     -0.484998    26A     -0.452487    27A     -0.408012
      28A     -0.351869

  @DF-RHF Final Energy:  -325.02843357243256

   => Energetics <=

    Nuclear Repulsion Energy =            341.4585803966110120
    One-Electron Energy =               -1118.6555039712679900
    Two-Electron Energy =                 452.1684900022244733
    DFT Exchange-Correlation Energy =       0.0000000000000000
    Empirical Dispersion Energy =           0.0000000000000000
    PCM Polarization Energy =               0.0000000000000000
    EFP Energy =                            0.0000000000000000
    Total Energy =                       -325.0284335724324478
    Molecular point group: c1
  Basis Set: 6-31G*
  Basis Set:

  -Total Gradient:
     Atom            X                  Y                   Z
    ------   -----------------  -----------------  -----------------
       1       -0.000003063728    -0.000002276363    -0.000007776058
       2       -0.000068136483     0.000377171809    -0.002536020568
       3        0.000273043030    -0.001399011560     0.001644297239
       4       -0.000018408459    -0.000002451883     0.000007818971
       5        0.000006090228     0.000021500023     0.001764698528
       6       -0.000198351070     0.001013080930    -0.000854160068
       7        0.000005643201    -0.000017398017    -0.000007076358
       8        0.000006815198    -0.000004516494    -0.000009865452
       9       -0.000002288928    -0.000000680070    -0.000000251679
      10       -0.000002839208     0.000004630490    -0.000014468725
      11        0.000003829128     0.000001747803    -0.000000466456
      12       -0.000006897944     0.000007736273    -0.000005818491
      13        0.000005250943    -0.000001161848     0.000015304625
      14       -0.000000281151    -0.000001086100     0.000001538509
      15       -0.000001541908     0.000002353266     0.000000525906
      16        0.000000663511     0.000003556939    -0.000001397379
      17       -0.000002963448    -0.000005361142    -0.000002124973
      18        0.000003437089     0.000002165945     0.000005242426

  **** Optimization is complete! (in 5 steps) ****
    Final optimized geometry and variables:
    Molecular point group: c1

    Geometry (in Angstrom), charge = 0, multiplicity = 1:

    H            2.795505727061     0.227004330830     0.424364275030
    C            2.278646800243     0.633051246402    -0.450504758497
    N            0.860789807936     0.358696440984    -0.440691658816
    H            2.732529246605     0.207118657440    -1.338394899157
    H            2.444887646212     1.704102541538    -0.460412420532
    C            0.148588080534     1.103284911261     0.580458951982
    C            0.570483876259    -1.059084489763    -0.349425494374
    H            0.493476544371     0.843215459562     1.586513820526
    H            0.326108285272     2.163866541307     0.434231363054
    C           -1.340929011220     0.819299548580     0.475182220271
    H            1.058224118910    -1.574312797459    -1.171137948273
    H            0.950224107671    -1.487692103125     0.583623323040
    C           -0.930733208449    -1.282929271240    -0.427494068715
    H           -1.879936737287     1.293269939790     1.285068227185
    H           -1.719793633381     1.207556812937    -0.468518281617
    O           -1.596745933187    -0.554252049796     0.565304882507
    H           -1.172066787553    -2.325637915606    -0.267458454926
    H           -1.292787732220    -0.989523122236    -1.411160923594

  Mulliken Charges: (a.u.)
   Center  Symbol    Alpha    Beta     Spin     Total
       1     H     0.43257  0.43257  0.00000  0.13487
       2     C     3.13950  3.13950  0.00000 -0.27900
       3     N     3.78882  3.78882  0.00000 -0.57763
       4     H     0.41528  0.41528  0.00000  0.16944
       5     H     0.41666  0.41666  0.00000  0.16669
       6     C     3.06731  3.06731  0.00000 -0.13462
       7     C     3.06734  3.06734  0.00000 -0.13469
       8     H     0.42853  0.42853  0.00000  0.14294
       9     H     0.41686  0.41686  0.00000  0.16628
      10     C     2.99780  2.99780  0.00000  0.00441
      11     H     0.41691  0.41691  0.00000  0.16617
      12     H     0.42827  0.42827  0.00000  0.14346
      13     C     2.99764  2.99764  0.00000  0.00471
      14     H     0.41325  0.41325  0.00000  0.17351
      15     H     0.42400  0.42400  0.00000  0.15201
      16     O     4.31205  4.31205  0.00000 -0.62410
      17     H     0.41324  0.41324  0.00000  0.17353
      18     H     0.42399  0.42399  0.00000  0.15202

   Total alpha = 28.00000, Total beta = 28.00000, Total charge =  0.00000
