  ==> Input File <==

--------------------------------------------------------------------------
set {
	reference rhf
	basis 6-31G*
}

set_num_threads( 1 )
memory 2 gb

molecule MOL {
0 1

H	 -2.436592	 0.114959	 0.943863
O	 -2.035884	 -0.060112	 0.102722
C	 -0.955155	 0.788182	 -0.092531
C	 0.353668	 0.040312	 -0.004810
H	 -0.985057	 1.290372	 -1.054184
H	 -0.974469	 1.533190	 0.688632
F	 0.394464	 -0.937475	 -0.903053
F	 1.368604	 0.853376	 -0.249821
F	 0.546173	 -0.502608	 1.179981

	symmetry c1
}
set optking {
	frozen_dihedral = ("
		7 4 3 5
	")
}

ee = energy('scf')
oeprop('DIPOLE', 'QUADRUPOLE', 'MULLIKEN_CHARGES')
f=open( 'psi4out.xyz', 'w' )
f.write( "9  " )
f.write( str(ee) + "\n" )
f.write( MOL.save_string_xyz() )
f.close()
--------------------------------------------------------------------------

    Molecular point group: c1

    Geometry (in Angstrom), charge = 0, multiplicity = 1:

       Center              X                  Y                   Z               Mass
    ------------   -----------------  -----------------  -----------------  -----------------
           H         -2.433189854068     0.107005476099     0.928137502193     1.007825032070
           O         -2.032481854068    -0.068065523901     0.086996502193    15.994914619560
           C         -0.951752854068     0.780228476099    -0.108256497807    12.000000000000
           C          0.357070145932     0.032358476099    -0.020535497807    12.000000000000
           H         -0.981654854068     1.282418476099    -1.069909497807     1.007825032070
           H         -0.971066854068     1.525236476099     0.672906502193     1.007825032070
           F          0.397866145932    -0.945428523901    -0.918778497807    18.998403224000
           F          1.372006145932     0.845422476099    -0.265546497807    18.998403224000
           F          0.549575145932    -0.510561523901     1.164255502193    18.998403224000

  Charge       = 0
  Multiplicity = 1
  Basis Set: 6-31G*
  Basis Set:

    Orbital Energies (a.u.)
    -----------------------

    Doubly Occupied:

       1A    -26.340233     2A    -26.338582     3A    -26.329358
       4A    -20.589459     5A    -11.496120     6A    -11.310543
       7A     -1.734472     8A     -1.635935     9A     -1.627210
      10A     -1.402344    11A     -1.046798    12A     -0.918685
      13A     -0.824621    14A     -0.824119    15A     -0.790944
      16A     -0.736770    17A     -0.707209    18A     -0.695309
      19A     -0.664227    20A     -0.650482    21A     -0.636443
      22A     -0.634563    23A     -0.600631    24A     -0.528801
      25A     -0.479400

  @DF-RHF Final Energy:  -450.65885850833774

   => Energetics <=

    Nuclear Repulsion Energy =            276.4536292493334031
    One-Electron Energy =               -1175.1386047771898120
    Two-Electron Energy =                 448.0261170195182672
    DFT Exchange-Correlation Energy =       0.0000000000000000
    Empirical Dispersion Energy =           0.0000000000000000
    PCM Polarization Energy =               0.0000000000000000
    EFP Energy =                            0.0000000000000000
    Total Energy =                       -450.6588585083381417

  Mulliken Charges: (a.u.)
   Center  Symbol    Alpha    Beta     Spin     Total
       1     H     0.27045  0.27045  0.00000  0.45911
       2     O     4.36157  4.36157  0.00000 -0.72314
       3     C     3.05708  3.05708  0.00000 -0.11416
       4     C     2.45602  2.45602  0.00000  1.08796
       5     H     0.40022  0.40022  0.00000  0.19956
       6     H     0.41228  0.41228  0.00000  0.17544
       7     F     4.68098  4.68098  0.00000 -0.36196
       8     F     4.68248  4.68248  0.00000 -0.36496
       9     F     4.67892  4.67892  0.00000 -0.35785

   Total alpha = 25.00000, Total beta = 25.00000, Total charge = -0.00000
