  ==> Input File <==

--------------------------------------------------------------------------
set {
	reference rhf
	basis 6-31G*
}

set_num_threads( 4 )
memory 2 gb

molecule MOL {
0 1

O	 -0.758361	 -2.798692	 -1.073585
C	 -0.688720	 -1.709322	 -1.556140
C	 -0.889235	 -0.467034	 -0.705952
C	 -0.367682	 -1.508670	 -3.020397
C	 0.379448	 -0.143569	 0.099626
H	 -1.710035	 -0.663645	 -0.024823
H	 -1.161032	 0.381582	 -1.327243
C	 1.631333	 -0.777471	 -0.511575
H	 0.482768	 0.934507	 0.149241
H	 0.263088	 -0.495696	 1.123449
C	 2.915987	 -0.544314	 0.291766
H	 1.766672	 -0.399098	 -1.523130
H	 1.471257	 -1.849544	 -0.605828
C	 3.373361	 0.914346	 0.347591
H	 3.708709	 -1.142521	 -0.150311
H	 2.780642	 -0.921148	 1.303579
H	 3.506512	 1.320010	 -0.651625
H	 4.322697	 0.999599	 0.867103
H	 2.660624	 1.545032	 0.868198
H	 -1.227171	 -1.077569	 -3.527048
H	 -0.119124	 -2.456014	 -3.478154
H	 0.457357	 -0.812595	 -3.141207

	symmetry c1
}
set optking {
	frozen_dihedral = ("
		6 3 5 8
	")
}

ee = optimize('scf')
oeprop('DIPOLE', 'QUADRUPOLE', 'MULLIKEN_CHARGES')
f=open( 'psi4out.xyz', 'w' )
f.write( "22  " )
f.write( str(ee) + "\n" )
f.write( MOL.save_string_xyz() )
f.close()
--------------------------------------------------------------------------

    Molecular point group: c1
  Charge       = 0
  Multiplicity = 1
  Basis Set: 6-31G*
  Basis Set:
  @DF-RHF Final Energy:  -348.08656666545460
    Total Energy =                       -348.0865666654544839
    Molecular point group: c1
  Basis Set: 6-31G*
  Basis Set:
  Basis Set: 6-31G*
  Basis Set:
  @DF-RHF Final Energy:  -348.09003248300718
    Total Energy =                       -348.0900324830073487
  Basis Set: 6-31G*
  Basis Set:
  Basis Set: 6-31G*
  Basis Set:
  @DF-RHF Final Energy:  -348.08932320777552
    Total Energy =                       -348.0893232077756920
  Basis Set: 6-31G*
  Basis Set:
  Basis Set: 6-31G*
  Basis Set:
  @DF-RHF Final Energy:  -348.09079664747622
    Total Energy =                       -348.0907966474758268
  Basis Set: 6-31G*
  Basis Set:
  @DF-RHF Final Energy:  -348.09087741945478
    Total Energy =                       -348.0908774194547277
  @DF-RHF Final Energy:  -348.09089423237396
    Total Energy =                       -348.0908942323738984
  @DF-RHF Final Energy:  -348.09090637169822
    Total Energy =                       -348.0909063716985088
  @DF-RHF Final Energy:  -348.09093041950626
    Total Energy =                       -348.0909304195059235
  @DF-RHF Final Energy:  -348.09094786147966
    Total Energy =                       -348.0909478614793784
  Basis Set: 6-31G*
  Basis Set:
  @DF-RHF Final Energy:  -348.09095997845850
    Total Energy =                       -348.0909599784586703
  Basis Set: 6-31G*
  Basis Set:
  Basis Set: 6-31G*
  Basis Set:
  @DF-RHF Final Energy:  -348.09096692316217
    Total Energy =                       -348.0909669231620001
  Basis Set: 6-31G*
  Basis Set:
  Basis Set: 6-31G*
  Basis Set:
  @DF-RHF Final Energy:  -348.09096816493519
    Total Energy =                       -348.0909681649351910
  Basis Set: 6-31G*
  Basis Set:
  Charge       = 0
  Multiplicity = 1
  Basis Set: 6-31G*
  Basis Set:

    Orbital Energies (a.u.)
    -----------------------

    Doubly Occupied:

       1A    -20.546542     2A    -11.325045     3A    -11.230111
       4A    -11.228035     5A    -11.227755     6A    -11.218588
       7A    -11.217771     8A    -11.211414     9A     -1.393091
      10A     -1.090600    11A     -1.041031    12A     -0.998413
      13A     -0.938621    14A     -0.858626    15A     -0.789604
      16A     -0.722963    17A     -0.660720    18A     -0.635027
      19A     -0.626267    20A     -0.620669    21A     -0.600303
      22A     -0.582755    23A     -0.562004    24A     -0.546196
      25A     -0.530654    26A     -0.528387    27A     -0.493387
      28A     -0.481902    29A     -0.465414    30A     -0.462988
      31A     -0.453694    32A     -0.396086

  @DF-RHF Final Energy:  -348.09096890410711

   => Energetics <=

    Nuclear Repulsion Energy =            381.2064874147128535
    One-Electron Energy =               -1227.2255826558814533
    Two-Electron Energy =                 497.9281263370618262
    DFT Exchange-Correlation Energy =       0.0000000000000000
    Empirical Dispersion Energy =           0.0000000000000000
    PCM Polarization Energy =               0.0000000000000000
    EFP Energy =                            0.0000000000000000
    Total Energy =                       -348.0909689041067168
    Molecular point group: c1
  Basis Set: 6-31G*
  Basis Set:

  -Total Gradient:
     Atom            X                  Y                   Z
    ------   -----------------  -----------------  -----------------
       1       -0.000011709778     0.000014385800    -0.000053873876
       2       -0.000002853080    -0.000034309743     0.000033909157
       3       -0.001769281195     0.004952273318     0.000966182474
       4        0.000040510556     0.000000224306     0.000020319323
       5        0.001250321113     0.003690328964    -0.003104890526
       6        0.001208715033    -0.005243763040     0.000008727298
       7        0.000015561595     0.000019725136     0.000007163476
       8       -0.000662617543    -0.003366099048     0.002076868594
       9       -0.000005946135    -0.000000152549     0.000027349135
      10       -0.000002800353    -0.000007595046    -0.000022022638
      11       -0.000059092419    -0.000024641527     0.000024585671
      12       -0.000003310509    -0.000004140760    -0.000002910992
      13        0.000002654030     0.000019552522     0.000012907875
      14        0.000008808003     0.000006607703    -0.000008173952
      15       -0.000026465947     0.000018204158    -0.000008687164
      16        0.000022640369    -0.000010900732     0.000024914327
      17        0.000000443684    -0.000000487279     0.000000753551
      18        0.000002164658     0.000007864327    -0.000001640956
      19        0.000005776240    -0.000009338567    -0.000001245623
      20        0.000006605296    -0.000006948642     0.000005082248
      21        0.000006182216    -0.000005041781    -0.000015328977
      22       -0.000026305828    -0.000015747518     0.000010011574

  **** Optimization is complete! (in 13 steps) ****
    Final optimized geometry and variables:
    Molecular point group: c1

    Geometry (in Angstrom), charge = 0, multiplicity = 1:

    O           -1.442270702801    -1.933600312219    -0.372949165795
    C           -1.447322697189    -0.847539241280    -0.868597059524
    C           -1.530826909397     0.403603915634    -0.003357460496
    C           -1.398975459322    -0.663882940850    -2.368802849764
    C           -0.263570157388     0.684389347581     0.851280608772
    H           -2.363870082442     0.210894420624     0.663763499851
    H           -1.772172910058     1.262931037237    -0.618895170510
    C            1.049625419922     0.078948258783     0.340655164404
    H           -0.167317732291     1.759120992398     0.954822908301
    H           -0.434741722277     0.296449321619     1.850452153053
    C            2.259044846720     0.399954205833     1.227338281226
    H            1.254852495213     0.426896367748    -0.671880624180
    H            0.941468639170    -0.997778721397     0.284385329954
    C            2.681733069024     1.870270962472     1.228656756219
    H            3.097947691759    -0.202035889478     0.887982226660
    H            2.051010650934     0.080645032362     2.246388570196
    H            2.888024012963     2.217655265752     0.219729568985
    H            3.584374339500     2.009960974727     1.815353838697
    H            1.918635130504     2.515363590012     1.651363265388
    H           -2.314424543561    -0.188021134121    -2.710624556634
    H           -1.287787287062    -1.622914038907    -2.855386650825
    H           -0.576859265831    -0.011037031872    -2.646624859805

  Mulliken Charges: (a.u.)
   Center  Symbol    Alpha    Beta     Spin     Total
       1     O     4.26344  4.26344  0.00000 -0.52689
       2     C     2.73865  2.73865  0.00000  0.52271
       3     C     3.20454  3.20454  0.00000 -0.40908
       4     C     3.28969  3.28969  0.00000 -0.57937
       5     C     3.15164  3.15164  0.00000 -0.30328
       6     H     0.39919  0.39919  0.00000  0.20161
       7     H     0.41553  0.41553  0.00000  0.16895
       8     C     3.16881  3.16881  0.00000 -0.33762
       9     H     0.41552  0.41552  0.00000  0.16895
      10     H     0.41255  0.41255  0.00000  0.17489
      11     C     3.15356  3.15356  0.00000 -0.30712
      12     H     0.42754  0.42754  0.00000  0.14492
      13     H     0.40319  0.40319  0.00000  0.19363
      14     C     3.24147  3.24147  0.00000 -0.48293
      15     H     0.41861  0.41861  0.00000  0.16279
      16     H     0.42082  0.42082  0.00000  0.15836
      17     H     0.42265  0.42265  0.00000  0.15470
      18     H     0.41792  0.41792  0.00000  0.16416
      19     H     0.42096  0.42096  0.00000  0.15809
      20     H     0.40762  0.40762  0.00000  0.18476
      21     H     0.39751  0.39751  0.00000  0.20498
      22     H     0.40861  0.40861  0.00000  0.18279

   Total alpha = 32.00000, Total beta = 32.00000, Total charge = -0.00000
