  ==> Input File <==

--------------------------------------------------------------------------
set {
	reference rhf
	basis cc-pvtz
}

set_num_threads( 4 )
memory 2 gb

molecule MOL {
0 1

O	 0.074770	 1.259872	 0.000487
C	 0.029490	 0.077183	 0.000078
C	 -1.232113	 -0.748027	 0.000015
O	 1.106773	 -0.690081	 -0.000204
C	 -2.501422	 0.088592	 -0.000052
H	 -1.188777	 -1.400384	 -0.865133
H	 -1.188857	 -1.400312	 0.865225
H	 -2.548170	 0.725504	 -0.873205
H	 -3.371613	 -0.556398	 -0.000040
H	 -2.548215	 0.725571	 0.873047
C	 2.266203	 -0.180947	 0.627606
H	 2.588906	 0.732004	 0.149466
H	 3.021001	 -0.943187	 0.522275
H	 2.078410	 0.015948	 1.672696

	symmetry c1
}
set optking {
	frozen_dihedral = ("
		11 4 2 3
	")
}

ee = optimize('scf')
oeprop('DIPOLE', 'QUADRUPOLE', 'MULLIKEN_CHARGES')
f=open( 'psi4out.xyz', 'w' )
f.write( "14  " )
f.write( str(ee) + "\n" )
f.write( MOL.save_string_xyz() )
f.close()
--------------------------------------------------------------------------

    Molecular point group: c1
  Charge       = 0
  Multiplicity = 1
  Basis Set: CC-PVTZ
  Basis Set:
  @DF-RHF Final Energy:  -305.98267843034188
    Total Energy =                       -305.9826784303415934
    Molecular point group: c1
  Basis Set: CC-PVTZ
  Basis Set:
  Basis Set: CC-PVTZ
  Basis Set:
  @DF-RHF Final Energy:  -305.98023613796420
    Total Energy =                       -305.9802361379643116
  Basis Set: CC-PVTZ
  Basis Set:
  Basis Set: CC-PVTZ
  Basis Set:
  @DF-RHF Final Energy:  -305.98314010394995
    Total Energy =                       -305.9831401039499497
  Basis Set: CC-PVTZ
  Basis Set:
  Basis Set: CC-PVTZ
  Basis Set:
  @DF-RHF Final Energy:  -305.98327306749468
    Total Energy =                       -305.9832730674945083
  Basis Set: CC-PVTZ
  Basis Set:
  Basis Set: CC-PVTZ
  Basis Set:
  @DF-RHF Final Energy:  -305.98331236840727
    Total Energy =                       -305.9833123684074394
  Basis Set: CC-PVTZ
  Basis Set:
  Basis Set: CC-PVTZ
  Basis Set:
  @DF-RHF Final Energy:  -305.98331930819342
    Total Energy =                       -305.9833193081931313
  Basis Set: CC-PVTZ
  Basis Set:
  Charge       = 0
  Multiplicity = 1
  Basis Set: CC-PVTZ
  Basis Set:

    Orbital Energies (a.u.)
    -----------------------

    Doubly Occupied:

       1A    -20.593110     2A    -20.536852     3A    -11.366038
       4A    -11.280893     5A    -11.238162     6A    -11.215463
       7A     -1.470532     8A     -1.367187     9A     -1.065196
      10A     -0.980220    11A     -0.881642    12A     -0.770120
      13A     -0.702461    14A     -0.683452    15A     -0.675820
      16A     -0.621752    17A     -0.605667    18A     -0.551551
      19A     -0.540114    20A     -0.521738    21A     -0.513476
      22A     -0.497891    23A     -0.460596    24A     -0.441440

  @DF-RHF Final Energy:  -305.98331967124761

   => Energetics <=

    Nuclear Repulsion Energy =            247.3643968794323484
    One-Electron Energy =                -907.5326869609202731
    Two-Electron Energy =                 354.1849704102403962
    DFT Exchange-Correlation Energy =       0.0000000000000000
    Empirical Dispersion Energy =           0.0000000000000000
    PCM Polarization Energy =               0.0000000000000000
    EFP Energy =                            0.0000000000000000
    Total Energy =                       -305.9833196712475569
    Molecular point group: c1
  Basis Set: CC-PVTZ
  Basis Set:

  -Total Gradient:
     Atom            X                  Y                   Z
    ------   -----------------  -----------------  -----------------
       1        0.000046703766    -0.000085149124    -0.000061117126
       2       -0.001321288265    -0.000542862974    -0.005602024065
       3        0.000264942015    -0.000696509569     0.005895644387
       4        0.002642225444     0.004765328293    -0.005739204731
       5        0.000011214284    -0.000024796207     0.000001638245
       6        0.000006803830    -0.000004628587    -0.000002013709
       7       -0.000005710200    -0.000001851635    -0.000002165641
       8        0.000002258530    -0.000001037687     0.000000314756
       9        0.000000090905     0.000004984616     0.000001819387
      10       -0.000004979023     0.000008608522     0.000006650522
      11       -0.001663467057    -0.003456450904     0.005520298432
      12        0.000003153639     0.000012681532    -0.000010320926
      13        0.000004703461     0.000007085367    -0.000007901885
      14        0.000013348676     0.000014598359    -0.000001617645

  **** Optimization is complete! (in 7 steps) ****
    Final optimized geometry and variables:
    Molecular point group: c1

    Geometry (in Angstrom), charge = 0, multiplicity = 1:

    O            0.072846671452     1.276939990516     0.139384845863
    C            0.038725207371     0.114464094899    -0.073297381619
    C           -1.212953121266    -0.723013734812    -0.113670088094
    O            1.129611909627    -0.629539568487    -0.213782312857
    C           -2.491688039256     0.093771079205    -0.207078418158
    H           -1.126645077116    -1.428104356257    -0.931677231315
    H           -1.194084184829    -1.317553583271     0.794705216970
    H           -2.515323007297     0.676568909187    -1.119062215351
    H           -3.354027518090    -0.561569125554    -0.201005841705
    H           -2.575755927177     0.780383103344     0.623795772788
    C            2.309488419200    -0.174149975271     0.418041931378
    H            2.662284546693     0.742533686236    -0.029711242580
    H            3.040060105924    -0.955673882272     0.286667042622
    H            2.130351046079    -0.008345202720     1.471313509558

  Mulliken Charges: (a.u.)
   Center  Symbol    Alpha    Beta     Spin     Total
       1     O     4.19156  4.19156  0.00000 -0.38313
       2     C     2.80262  2.80262  0.00000  0.39476
       3     C     3.09252  3.09252  0.00000 -0.18505
       4     O     4.15174  4.15174  0.00000 -0.30349
       5     C     3.14104  3.14104  0.00000 -0.28208
       6     H     0.43897  0.43897  0.00000  0.12207
       7     H     0.44512  0.44512  0.00000  0.10975
       8     H     0.45030  0.45030  0.00000  0.09940
       9     H     0.45021  0.45021  0.00000  0.09957
      10     H     0.44567  0.44567  0.00000  0.10866
      11     C     3.03527  3.03527  0.00000 -0.07055
      12     H     0.44925  0.44925  0.00000  0.10149
      13     H     0.44555  0.44555  0.00000  0.10890
      14     H     0.46016  0.46016  0.00000  0.07969

   Total alpha = 24.00000, Total beta = 24.00000, Total charge = -0.00000
