  ==> Input File <==

--------------------------------------------------------------------------
set {
	reference rhf
	basis 6-31G*
}

set_num_threads( 4 )
memory 2 gb

molecule MOL {
0 1

H	 -1.292277	 -1.999673	 -0.829966
C	 -1.122833	 -1.137347	 -1.467810
O	 -0.774054	 0.001095	 -0.743181
H	 -2.048397	 -0.905923	 -1.977813
H	 -0.378828	 -1.398030	 -2.214599
C	 0.406953	 0.000033	 0.038965
C	 1.527284	 -0.003667	 -0.998752
C	 0.498933	 1.262172	 0.902524
C	 0.494271	 -1.259566	 0.906664
H	 1.452513	 0.873252	 -1.631882
H	 1.448863	 -0.881882	 -1.629595
H	 2.502020	 -0.005104	 -0.521731
H	 0.364280	 2.147110	 0.289513
H	 1.472180	 1.321775	 1.378800
H	 -0.247853	 1.275162	 1.689097
H	 0.356778	 -2.146106	 0.296587
H	 1.467182	 -1.320941	 1.383330
H	 -0.252763	 -1.267328	 1.693119

	symmetry c1
}
set optking {
	frozen_dihedral = ("
		2 3 6 7
	")
}

ee = optimize('scf')
oeprop('DIPOLE', 'QUADRUPOLE', 'MULLIKEN_CHARGES')
f=open( 'psi4out.xyz', 'w' )
f.write( "18  " )
f.write( str(ee) + "\n" )
f.write( MOL.save_string_xyz() )
f.close()
--------------------------------------------------------------------------

    Molecular point group: c1
  Charge       = 0
  Multiplicity = 1
  Basis Set: 6-31G*
  Basis Set:
  @DF-RHF Final Energy:  -271.16738624688628
    Total Energy =                       -271.1673862468862808
    Molecular point group: c1
  Basis Set: 6-31G*
  Basis Set:
  Basis Set: 6-31G*
  Basis Set:
  @DF-RHF Final Energy:  -271.17218591553160
    Total Energy =                       -271.1721859155314291
  Basis Set: 6-31G*
  Basis Set:
  Basis Set: 6-31G*
  Basis Set:
  @DF-RHF Final Energy:  -271.17479507142389
    Total Energy =                       -271.1747950714240005
  Basis Set: 6-31G*
  Basis Set:
  Basis Set: 6-31G*
  Basis Set:
  @DF-RHF Final Energy:  -271.17520191070503
    Total Energy =                       -271.1752019107050842
  Basis Set: 6-31G*
  Basis Set:
  Basis Set: 6-31G*
  Basis Set:
  @DF-RHF Final Energy:  -271.17536130265182
    Total Energy =                       -271.1753613026518792
  Basis Set: 6-31G*
  Basis Set:
  Basis Set: 6-31G*
  Basis Set:
  @DF-RHF Final Energy:  -271.17543795098169
    Total Energy =                       -271.1754379509816317
  Basis Set: 6-31G*
  Basis Set:
  Basis Set: 6-31G*
  Basis Set:
  @DF-RHF Final Energy:  -271.17545560937236
    Total Energy =                       -271.1754556093723636
  Basis Set: 6-31G*
  Basis Set:
  Charge       = 0
  Multiplicity = 1
  Basis Set: 6-31G*
  Basis Set:

    Orbital Energies (a.u.)
    -----------------------

    Doubly Occupied:

       1A    -20.546830     2A    -11.281287     3A    -11.260666
       4A    -11.209833     5A    -11.207629     6A    -11.203199
       7A     -1.370118     8A     -1.073028     9A     -0.946259
      10A     -0.939355    11A     -0.912390    12A     -0.752343
      13A     -0.655320    14A     -0.644477    15A     -0.637481
      16A     -0.592519    17A     -0.574463    18A     -0.552660
      19A     -0.534213    20A     -0.523922    21A     -0.514656
      22A     -0.488077    23A     -0.486199    24A     -0.439040
      25A     -0.404168

  @DF-RHF Final Energy:  -271.17545623763999

   => Energetics <=

    Nuclear Repulsion Energy =            272.3100982642554300
    One-Electron Energy =                -907.4708421327756014
    Two-Electron Energy =                 363.9852876308802934
    DFT Exchange-Correlation Energy =       0.0000000000000000
    Empirical Dispersion Energy =           0.0000000000000000
    PCM Polarization Energy =               0.0000000000000000
    EFP Energy =                            0.0000000000000000
    Total Energy =                       -271.1754562376398781
    Molecular point group: c1
  Basis Set: 6-31G*
  Basis Set:

  -Total Gradient:
     Atom            X                  Y                   Z
    ------   -----------------  -----------------  -----------------
       1       -0.000018946096     0.000004692809    -0.000022225395
       2       -0.000166723442    -0.000119710139     0.000327832268
       3        0.000243608557     0.000275664746    -0.000418093500
       4       -0.000002124311     0.000025164247     0.000011390900
       5        0.000047895752     0.000023517812    -0.000011443314
       6       -0.000076551115    -0.000523865552     0.000108069434
       7        0.000039660130     0.000305562469    -0.000034206203
       8       -0.000087497317    -0.000024565623    -0.000044806256
       9        0.000012897203    -0.000002338465     0.000067260923
      10        0.000023874744     0.000048067350     0.000010324373
      11       -0.000025279492    -0.000007147288    -0.000052444961
      12       -0.000032192094    -0.000023984461    -0.000008705882
      13        0.000040608159    -0.000001888003    -0.000015494396
      14       -0.000023569610    -0.000036278660     0.000010856785
      15       -0.000005656999     0.000050209310     0.000006230827
      16        0.000020783472     0.000043828584     0.000029806501
      17        0.000001898496     0.000001215953     0.000008160287
      18        0.000007313967    -0.000038145090     0.000027487608

  **** Optimization is complete! (in 8 steps) ****
    Final optimized geometry and variables:
    Molecular point group: c1

    Geometry (in Angstrom), charge = 0, multiplicity = 1:

    H           -1.611710415129    -1.733686089983    -0.565356367547
    C           -1.386667332325    -0.870216883230    -1.184112668523
    O           -0.957619939256     0.221444989170    -0.431250225120
    H           -2.296327276929    -0.562742736488    -1.682496989543
    H           -0.666387863530    -1.164487035377    -1.941910132032
    C            0.289599652263     0.162895286920     0.238117509614
    C            1.442568504551     0.198990095733    -0.770288757071
    C            0.304659062942     1.430411088183     1.089694331564
    C            0.390627794163    -1.072482877134     1.138021228913
    H            1.337933523622     1.056737770535    -1.425842512587
    H            1.475964310826    -0.695251829913    -1.383402406218
    H            2.394889046241     0.275409522538    -0.255389069859
    H            0.198406686552     2.304927216279     0.457847425065
    H            1.232207479097     1.516050703813     1.646533326896
    H           -0.521554058950     1.419950272717     1.791679723661
    H            0.448884090390    -1.992023027144     0.565473892317
    H            1.283528223544    -1.015085850964     1.751737821388
    H           -0.470191002915    -1.133465390944     1.795850337254

  Mulliken Charges: (a.u.)
   Center  Symbol    Alpha    Beta     Spin     Total
       1     H     0.42832  0.42832  0.00000  0.14335
       2     C     3.07948  3.07948  0.00000 -0.15896
       3     O     4.31862  4.31862  0.00000 -0.63724
       4     H     0.41282  0.41282  0.00000  0.17436
       5     H     0.43072  0.43072  0.00000  0.13857
       6     C     2.84258  2.84258  0.00000  0.31485
       7     C     3.24398  3.24398  0.00000 -0.48796
       8     C     3.23296  3.23296  0.00000 -0.46593
       9     C     3.25037  3.25037  0.00000 -0.50074
      10     H     0.41334  0.41334  0.00000  0.17332
      11     H     0.42073  0.42073  0.00000  0.15855
      12     H     0.42104  0.42104  0.00000  0.15793
      13     H     0.41368  0.41368  0.00000  0.17263
      14     H     0.42517  0.42517  0.00000  0.14966
      15     H     0.41472  0.41472  0.00000  0.17057
      16     H     0.41962  0.41962  0.00000  0.16075
      17     H     0.41841  0.41841  0.00000  0.16317
      18     H     0.41345  0.41345  0.00000  0.17311

   Total alpha = 25.00000, Total beta = 25.00000, Total charge = -0.00000
