  ==> Input File <==

--------------------------------------------------------------------------
set {
	reference rhf
	basis 6-31G*
}

set_num_threads( 4 )
memory 2 gb

molecule MOL {
0 1

O	 3.225979	 0.970355	 -0.599647
C	 2.701189	 0.057885	 -0.047330
C	 1.245376	 -0.013843	 0.345420
O	 3.347903	 -1.046386	 0.304773
C	 0.455112	 1.231400	 -0.050772
H	 0.838542	 -0.913825	 -0.103701
H	 1.208210	 -0.175333	 1.419774
C	 -0.998893	 1.219485	 0.433193
H	 0.482531	 1.345121	 -1.130325
H	 0.957290	 2.103070	 0.354729
C	 -1.883438	 0.145884	 -0.207175
H	 -1.431207	 2.195402	 0.224832
H	 -1.019646	 1.105716	 1.516076
C	 -3.347647	 0.245583	 0.225435
H	 -1.822183	 0.231698	 -1.291012
H	 -1.510341	 -0.844814	 0.042401
C	 -4.239992	 -0.825570	 -0.404234
H	 -3.732888	 1.230466	 -0.033079
H	 -3.408585	 0.170602	 1.310038
C	 -4.111016	 -0.891896	 -1.925637
H	 -3.992411	 -1.795791	 0.021226
H	 -5.277202	 -0.632114	 -0.138621
H	 -4.755265	 -1.659959	 -2.342325
H	 -3.091073	 -1.118711	 -2.223071
H	 -4.385189	 0.054153	 -2.383998
C	 4.728119	 -1.109107	 -0.004993
H	 4.882018	 -1.033965	 -1.071845
H	 5.068212	 -2.067527	 0.355250
H	 5.265056	 -0.311663	 0.488280

	symmetry c1
}
set optking {
	frozen_dihedral = ("
		21 17 14 11
	")
}

ee = optimize('scf')
oeprop('DIPOLE', 'QUADRUPOLE', 'MULLIKEN_CHARGES')
f=open( 'psi4out.xyz', 'w' )
f.write( "29  " )
f.write( str(ee) + "\n" )
f.write( MOL.save_string_xyz() )
f.close()
--------------------------------------------------------------------------

    Molecular point group: c1
  Charge       = 0
  Multiplicity = 1
  Basis Set: 6-31G*
  Basis Set:
  @DF-RHF Final Energy:  -501.04062838699781
    Total Energy =                       -501.0406283869981507
    Molecular point group: c1
  Basis Set: 6-31G*
  Basis Set:
  Basis Set: 6-31G*
  Basis Set:
  @DF-RHF Final Energy:  -501.04125972115901
    Total Energy =                       -501.0412597211593493
  Basis Set: 6-31G*
  Basis Set:
  Basis Set: 6-31G*
  Basis Set:
  @DF-RHF Final Energy:  -501.04194682690513
    Total Energy =                       -501.0419468269049048
  Basis Set: 6-31G*
  Basis Set:
  Basis Set: 6-31G*
  Basis Set:
  @DF-RHF Final Energy:  -501.04199487406663
    Total Energy =                       -501.0419948740665177
  Basis Set: 6-31G*
  Basis Set:
  @DF-RHF Final Energy:  -501.04197247716434
    Total Energy =                       -501.0419724771643359
  @DF-RHF Final Energy:  -501.04196011690090
    Total Energy =                       -501.0419601169004409
  Basis Set: 6-31G*
  Basis Set:
  @DF-RHF Final Energy:  -501.04200056523734
    Total Energy =                       -501.0420005652381406
  Basis Set: 6-31G*
  Basis Set:
  Basis Set: 6-31G*
  Basis Set:
  @DF-RHF Final Energy:  -501.04198487721783
    Total Energy =                       -501.0419848772179421
  Basis Set: 6-31G*
  Basis Set:
  Basis Set: 6-31G*
  Basis Set:
  @DF-RHF Final Energy:  -501.04200225667853
    Total Energy =                       -501.0420022566775060
  Basis Set: 6-31G*
  Basis Set:
  Charge       = 0
  Multiplicity = 1
  Basis Set: 6-31G*
  Basis Set:

    Orbital Energies (a.u.)
    -----------------------

    Doubly Occupied:

       1A    -20.603351     2A    -20.545172     3A    -11.371977
       4A    -11.280648     5A    -11.234699     6A    -11.219001
       7A    -11.217549     8A    -11.216235     9A    -11.215494
      10A    -11.214717    11A    -11.209097    12A     -1.469044
      13A     -1.362485    14A     -1.097996    15A     -1.066174
      16A     -1.017938    17A     -0.975614    18A     -0.928288
      19A     -0.871554    20A     -0.803586    21A     -0.777753
      22A     -0.763618    23A     -0.700344    24A     -0.682326
      25A     -0.672074    26A     -0.645765    27A     -0.625565
      28A     -0.608702    29A     -0.601336    30A     -0.585240
      31A     -0.558125    32A     -0.553093    33A     -0.539900
      34A     -0.525841    35A     -0.518286    36A     -0.504322
      37A     -0.501958    38A     -0.477291    39A     -0.472626
      40A     -0.459516    41A     -0.456199    42A     -0.452248
      43A     -0.441850    44A     -0.435653

  @DF-RHF Final Energy:  -501.04200238190617

   => Energetics <=

    Nuclear Repulsion Energy =            616.7102818267479734
    One-Electron Energy =               -1904.5440653446480610
    Two-Electron Energy =                 786.7917811359938014
    DFT Exchange-Correlation Energy =       0.0000000000000000
    Empirical Dispersion Energy =           0.0000000000000000
    PCM Polarization Energy =               0.0000000000000000
    EFP Energy =                            0.0000000000000000
    Total Energy =                       -501.0420023819061726
    Molecular point group: c1
  Basis Set: 6-31G*
  Basis Set:

  -Total Gradient:
     Atom            X                  Y                   Z
    ------   -----------------  -----------------  -----------------
       1       -0.000000754591    -0.000007795009    -0.000015210262
       2        0.000008428430     0.000017695025     0.000040269426
       3       -0.000004714193    -0.000004286343    -0.000016030068
       4       -0.000002392619    -0.000003622205    -0.000013010661
       5        0.000007504839     0.000006938911     0.000015680005
       6       -0.000004892183    -0.000002764443     0.000000814299
       7        0.000002172954     0.000001536565    -0.000001029955
       8       -0.000000624864     0.000003806482    -0.000019495784
       9       -0.000001926401    -0.000002584075     0.000002053230
      10        0.000006472037     0.000001020082    -0.000001536135
      11       -0.000345135592     0.001088467162    -0.001512002481
      12        0.000002013875     0.000004427835     0.000001766581
      13       -0.000000388210    -0.000003692858    -0.000007041726
      14        0.000098634525    -0.001447739025     0.002628616059
      15        0.000006710170     0.000008880776     0.000010924782
      16       -0.000001432502    -0.000005054905    -0.000005007322
      17        0.001984824856    -0.000123210722    -0.002933358574
      18       -0.000003506394    -0.000014491279    -0.000006379436
      19        0.000005030284     0.000012475091     0.000009574374
      20       -0.000010254044    -0.000017063678    -0.000009372482
      21       -0.001732255397     0.000502185653     0.001835720162
      22       -0.000007555128    -0.000008551727     0.000001291391
      23       -0.000001645931    -0.000003411821    -0.000008900743
      24       -0.000005271837    -0.000000558560    -0.000002445421
      25        0.000000825427    -0.000002412496     0.000004489716
      26       -0.000000064323    -0.000000082343     0.000000229269
      27        0.000000362576    -0.000000069661    -0.000000239331
      28        0.000000217691    -0.000000096103    -0.000000353062
      29       -0.000000383459     0.000000053671    -0.000000015852

  **** Optimization is complete! (in 10 steps) ****
    Final optimized geometry and variables:
    Molecular point group: c1

    Geometry (in Angstrom), charge = 0, multiplicity = 1:

    O            3.099008685470     1.020733031124    -0.337957321365
    C            2.563976941885     0.082455443226     0.158476912143
    C            1.102133389593    -0.005435903733     0.524594360939
    O            3.202990886127    -1.040359447362     0.462776670628
    C            0.320407509524     1.260703801125     0.181284893765
    H            0.700369610489    -0.879827540525     0.023347454440
    H            1.047975771918    -0.222200304470     1.588444099026
    C           -1.140985421435     1.226730093729     0.641046091540
    H            0.365176425342     1.430223032503    -0.890345797925
    H            0.817463294522     2.108985064789     0.639341597255
    C           -2.016001736134     0.186346236411    -0.064905564545
    H           -1.569806782303     2.212129771978     0.473289051336
    H           -1.178939767456     1.060960719777     1.716647815401
    C           -3.488531912865     0.290086450254     0.342629185621
    H           -1.920579622256     0.317498640715    -1.139689140616
    H           -1.656362969659    -0.816887936098     0.155975398512
    C           -4.399943445228    -0.804628664430    -0.226347762488
    H           -3.867862183939     1.262504404386     0.032028189091
    H           -3.561434759037     0.269892364587     1.427889131708
    C           -4.359928331624    -0.957114590225    -1.747023662169
    H           -4.164168134028    -1.754633458815     0.249206155682
    H           -5.420915043994    -0.577986221691     0.072838715586
    H           -5.106475737953    -1.671427677246    -2.080073481386
    H           -3.394904527216    -1.308938446719    -2.095770237036
    H           -4.565981530979    -0.010909202616    -2.240543619359
    C            4.587682605589    -1.090833244052     0.171289049647
    H            4.758143536541    -0.961079301136    -0.887778287236
    H            4.920261470778    -2.067534628581     0.486632578242
    H            5.118548306349    -0.321454224851     0.713298470241

  Mulliken Charges: (a.u.)
   Center  Symbol    Alpha    Beta     Spin     Total
       1     O     4.28597  4.28597  0.00000 -0.57193
       2     C     2.60485  2.60485  0.00000  0.79029
       3     C     3.20963  3.20963  0.00000 -0.41926
       4     O     4.30747  4.30747  0.00000 -0.61495
       5     C     3.15367  3.15367  0.00000 -0.30734
       6     H     0.39887  0.39887  0.00000  0.20226
       7     H     0.40125  0.40125  0.00000  0.19750
       8     C     3.15649  3.15649  0.00000 -0.31299
       9     H     0.41319  0.41319  0.00000  0.17363
      10     H     0.40882  0.40882  0.00000  0.18237
      11     C     3.15758  3.15758  0.00000 -0.31516
      12     H     0.41826  0.41826  0.00000  0.16348
      13     H     0.42389  0.42389  0.00000  0.15222
      14     C     3.15179  3.15179  0.00000 -0.30358
      15     H     0.41983  0.41983  0.00000  0.16034
      16     H     0.42429  0.42429  0.00000  0.15141
      17     C     3.15202  3.15202  0.00000 -0.30404
      18     H     0.42377  0.42377  0.00000  0.15246
      19     H     0.42204  0.42204  0.00000  0.15592
      20     C     3.24193  3.24193  0.00000 -0.48387
      21     H     0.42346  0.42346  0.00000  0.15308
      22     H     0.42118  0.42118  0.00000  0.15764
      23     H     0.41889  0.41889  0.00000  0.16223
      24     H     0.41986  0.41986  0.00000  0.16029
      25     H     0.42186  0.42186  0.00000  0.15628
      26     C     3.09240  3.09240  0.00000 -0.18481
      27     H     0.40909  0.40909  0.00000  0.18182
      28     H     0.40852  0.40852  0.00000  0.18296
      29     H     0.40912  0.40912  0.00000  0.18175

   Total alpha = 44.00000, Total beta = 44.00000, Total charge = -0.00000
