  ==> Input File <==

--------------------------------------------------------------------------
set {
	reference rhf
	basis 6-31G*
}

set_num_threads( 4 )
memory 2 gb

molecule MOL {
0 1

H	 -2.679583	 -0.577042	 1.373253
C	 -2.635761	 -0.568286	 0.285989
O	 -1.329886	 -0.418175	 -0.169526
H	 -3.004501	 -1.513904	 -0.086810
H	 -3.281621	 0.229304	 -0.078899
C	 -0.719715	 0.768384	 0.229244
C	 0.719720	 0.768376	 -0.229267
H	 -1.235260	 1.624260	 -0.208234
H	 -0.751240	 0.875120	 1.311657
O	 1.392611	 -0.295398	 0.366430
H	 0.750534	 0.687200	 -1.313918
H	 1.185043	 1.714359	 0.050526
C	 2.706965	 -0.449871	 -0.062409
H	 2.756559	 -0.644779	 -1.131878
H	 3.305899	 0.433456	 0.155466
H	 3.125548	 -1.294566	 0.467107

	symmetry c1
}
set optking {
	frozen_dihedral = ("
		3 6 7 11
	")
}

ee = optimize('scf')
oeprop('DIPOLE', 'QUADRUPOLE', 'MULLIKEN_CHARGES')
f=open( 'psi4out.xyz', 'w' )
f.write( "16  " )
f.write( str(ee) + "\n" )
f.write( MOL.save_string_xyz() )
f.close()
--------------------------------------------------------------------------

    Molecular point group: c1
  Charge       = 0
  Multiplicity = 1
  Basis Set: 6-31G*
  Basis Set:
  @DF-RHF Final Energy:  -306.97709091749135
    Total Energy =                       -306.9770909174911822
    Molecular point group: c1
  Basis Set: 6-31G*
  Basis Set:
  Basis Set: 6-31G*
  Basis Set:
  @DF-RHF Final Energy:  -306.97719034904776
    Total Energy =                       -306.9771903490475324
  Basis Set: 6-31G*
  Basis Set:
  Basis Set: 6-31G*
  Basis Set:
  @DF-RHF Final Energy:  -306.97720827727795
    Total Energy =                       -306.9772082772778390
  Basis Set: 6-31G*
  Basis Set:
  Charge       = 0
  Multiplicity = 1
  Basis Set: 6-31G*
  Basis Set:

    Orbital Energies (a.u.)
    -----------------------

    Doubly Occupied:

       1A    -20.553739     2A    -20.552985     3A    -11.269544
       4A    -11.268879     5A    -11.263619     6A    -11.263253
       7A     -1.389020     8A     -1.370475     9A     -1.030903
      10A     -0.935704    11A     -0.893711    12A     -0.822524
      13A     -0.685032    14A     -0.679546    15A     -0.657530
      16A     -0.637856    17A     -0.627676    18A     -0.596363
      19A     -0.555550    20A     -0.531048    21A     -0.509042
      22A     -0.476822    23A     -0.463220    24A     -0.417277
      25A     -0.411558

  @DF-RHF Final Energy:  -306.97720875103181

   => Energetics <=

    Nuclear Repulsion Energy =            259.2505273092035054
    One-Electron Energy =                -932.7297172646616445
    Two-Electron Energy =                 366.5019812044263290
    DFT Exchange-Correlation Energy =       0.0000000000000000
    Empirical Dispersion Energy =           0.0000000000000000
    PCM Polarization Energy =               0.0000000000000000
    EFP Energy =                            0.0000000000000000
    Total Energy =                       -306.9772087510318670
    Molecular point group: c1
  Basis Set: 6-31G*
  Basis Set:

  -Total Gradient:
     Atom            X                  Y                   Z
    ------   -----------------  -----------------  -----------------
       1       -0.000009878866    -0.000003988231     0.000005413853
       2        0.000015444067     0.000041263182     0.000018882187
       3        0.000661165079    -0.001027079645     0.001969451540
       4        0.000017336139     0.000002494454    -0.000005926194
       5       -0.000005655223    -0.000005543064    -0.000002050523
       6       -0.000844252494     0.002080713243    -0.002629854316
       7        0.000176411921    -0.004045937507     0.000821620716
       8       -0.000007831981    -0.000029115716    -0.000011754231
       9       -0.000003707710    -0.000000322230     0.000006860919
      10        0.000009820086     0.000000160595    -0.000005803647
      11       -0.000025534603     0.002988454565    -0.000198473224
      12        0.000012226468    -0.000009381127     0.000016867652
      13       -0.000016903025     0.000015608234     0.000020192773
      14       -0.000008862951    -0.000000480096     0.000001922952
      15        0.000015305591    -0.000000362537    -0.000004662908
      16        0.000014917501    -0.000006484119    -0.000002687547

  **** Optimization is complete! (in 4 steps) ****
    Final optimized geometry and variables:
    Molecular point group: c1

    Geometry (in Angstrom), charge = 0, multiplicity = 1:

    H           -2.723665141979    -0.511002688216     1.303118319053
    C           -2.676908624891    -0.508365895878     0.215801719184
    O           -1.367792194723    -0.380708370655    -0.236860722912
    H           -3.058966829429    -1.450164015408    -0.153096735373
    H           -3.309582116196     0.297177150974    -0.154526816070
    C           -0.739317846871     0.794078608998     0.163716940033
    C            0.695762235724     0.787766563992    -0.308562874246
    H           -1.246020850853     1.665079922184    -0.253681215771
    H           -0.759299421999     0.884191341702     1.248587749257
    O            1.383160352932    -0.261114907277     0.290088914140
    H            0.724300656522     0.716847354560    -1.394693878681
    H            1.150939603286     1.742685994787    -0.038734235572
    C            2.703392559352    -0.389436862786    -0.129580742730
    H            2.764176725032    -0.580225758087    -1.199188653925
    H            3.283611982902     0.504538061362     0.094967129039
    H            3.133871099191    -1.227702023177     0.400515645137

  Mulliken Charges: (a.u.)
   Center  Symbol    Alpha    Beta     Spin     Total
       1     H     0.42853  0.42853  0.00000  0.14294
       2     C     3.07952  3.07952  0.00000 -0.15904
       3     O     4.29879  4.29879  0.00000 -0.59757
       4     H     0.41106  0.41106  0.00000  0.17788
       5     H     0.43200  0.43200  0.00000  0.13601
       6     C     2.99284  2.99284  0.00000  0.01432
       7     C     2.99308  2.99308  0.00000  0.01384
       8     H     0.43225  0.43225  0.00000  0.13549
       9     H     0.42499  0.42499  0.00000  0.15003
      10     O     4.29815  4.29815  0.00000 -0.59631
      11     H     0.42501  0.42501  0.00000  0.14998
      12     H     0.43314  0.43314  0.00000  0.13373
      13     C     3.07964  3.07964  0.00000 -0.15928
      14     H     0.42822  0.42822  0.00000  0.14357
      15     H     0.43183  0.43183  0.00000  0.13633
      16     H     0.41095  0.41095  0.00000  0.17810

   Total alpha = 25.00000, Total beta = 25.00000, Total charge =  0.00000
