                              Psi4 1.0.54 Driver

  ==> Input File <==

--------------------------------------------------------------------------
set {
	reference rhf
	basis cc-pvtz
}

set_num_threads( 4 )
memory 2 gb

molecule MOL {
0 1

H	 -2.841996	 2.208137	 -1.031244
C	 -3.015345	 1.138547	 -1.212383
C	 -1.978116	 0.464748	 -2.069145
O	 -3.966851	 0.607674	 -0.753996
C	 -0.550045	 0.706139	 -1.571130
H	 -2.208863	 -0.591284	 -2.122867
H	 -2.083147	 0.881149	 -3.068586
C	 -0.247837	 0.040196	 -0.230469
H	 0.141448	 0.337151	 -2.320813
H	 -0.371083	 1.775979	 -1.496232
C	 1.181757	 0.280428	 0.247371
H	 -0.425410	 -1.028470	 -0.317237
H	 -0.942937	 0.399466	 0.523977
C	 2.151032	 -0.811012	 -0.202643
H	 1.515939	 1.247397	 -0.115449
H	 1.191514	 0.341223	 1.333422
C	 3.580021	 -0.656538	 0.320835
H	 2.170545	 -0.847575	 -1.289412
H	 1.766632	 -1.772905	 0.124928
C	 4.327657	 0.562694	 -0.213579
H	 4.138806	 -1.549270	 0.057813
H	 3.561991	 -0.620783	 1.406976
H	 4.355973	 0.557257	 -1.298551
H	 3.867136	 1.491650	 0.100501
H	 5.351524	 0.571613	 0.142204

	symmetry c1
}
set optking {
	frozen_dihedral = ("
		12 8 11 14
	")
}

ee,wfn = optimize('scf', return_wfn=True)
oeprop( wfn, 'DIPOLE', 'QUADRUPOLE', 'MULLIKEN_CHARGES')
f=open( 'psi4out.xyz', 'w' )
f.write( "25  " )
f.write( str(ee) + "\n" )
f.write( MOL.save_string_xyz() )
f.close()
--------------------------------------------------------------------------

    Molecular point group: c1
  Charge       = 0
  Multiplicity = 1
  Basis Set: CC-PVTZ
  Basis Set:
  @DF-RHF Final Energy:  -387.25674702548389
    Total Energy =                       -387.2567470254839463
    Molecular point group: c1
  Basis Set: CC-PVTZ
  Basis Set:
  Basis Set: CC-PVTZ
  Basis Set:
  @DF-RHF Final Energy:  -387.25700230142110
    Total Energy =                       -387.2570023014211529
  Basis Set: CC-PVTZ
  Basis Set:
  Basis Set: CC-PVTZ
  Basis Set:
  @DF-RHF Final Energy:  -387.25697127677228
    Total Energy =                       -387.2569712767722194
  Basis Set: CC-PVTZ
  Basis Set:
  Basis Set: CC-PVTZ
  Basis Set:
  @DF-RHF Final Energy:  -387.25700640014759
    Total Energy =                       -387.2570064001480432
  Basis Set: CC-PVTZ
  Basis Set:
  Basis Set: CC-PVTZ
  Basis Set:
  @DF-RHF Final Energy:  -387.25706527567166
    Total Energy =                       -387.2570652756714935
  Basis Set: CC-PVTZ
  Basis Set:
  Charge       = 0
  Multiplicity = 1
  Basis Set: CC-PVTZ
  Basis Set:

    Orbital Energies (a.u.)
    -----------------------

    Doubly Occupied:

       1A    -20.551228     2A    -11.320821     3A    -11.233552
       4A    -11.232608     5A    -11.221854     6A    -11.217909
       7A    -11.217233     8A    -11.216504     9A    -11.209877
      10A     -1.406291    11A     -1.105111    12A     -1.070685
      13A     -1.013927    14A     -0.942845    15A     -0.879110
      16A     -0.822822    17A     -0.789123    18A     -0.781151
      19A     -0.668976    20A     -0.653832    21A     -0.636455
      22A     -0.624414    23A     -0.610806    24A     -0.600585
      25A     -0.573989    26A     -0.555253    27A     -0.530948
      28A     -0.524026    29A     -0.522087    30A     -0.503514
      31A     -0.485230    32A     -0.479491    33A     -0.461309
      34A     -0.455446    35A     -0.447100    36A     -0.411517

  @DF-RHF Final Energy:  -387.25706607857580

   => Energetics <=

    Nuclear Repulsion Energy =            442.5275393973281552
    One-Electron Energy =               -1401.6139451710132562
    Two-Electron Energy =                 571.8293396951095247
    DFT Exchange-Correlation Energy =       0.0000000000000000
    Empirical Dispersion Energy =           0.0000000000000000
    PCM Polarization Energy =               0.0000000000000000
    EFP Energy =                            0.0000000000000000
    Total Energy =                       -387.2570660785755763
    Molecular point group: c1
  Basis Set: CC-PVTZ
  Basis Set:

  -Total Gradient:
     Atom            X                  Y                   Z
    ------   -----------------  -----------------  -----------------
       1       -0.000033697340    -0.000095550403    -0.000097095402
       2        0.000038439554    -0.000005534194     0.000244800222
       3       -0.000076414440    -0.000001661184    -0.000098973974
       4        0.000086272344     0.000058991551    -0.000121106643
       5       -0.000107384947    -0.000105101124     0.000121721486
       6       -0.000031755819     0.000007052338     0.000004358641
       7       -0.000007003590    -0.000008700278    -0.000023391733
       8       -0.001221365146    -0.000320165803     0.004027747832
       9        0.000021022855    -0.000019138716     0.000007132443
      10        0.000006314996    -0.000060936512     0.000087518713
      11        0.000771227807     0.001477435235    -0.003226454656
      12        0.000866728307     0.000241670727    -0.002862738055
      13       -0.000159504220    -0.000072495816     0.000043826494
      14       -0.000342927629    -0.001045084679     0.001870247657
      15        0.000013101403    -0.000111015462    -0.000023054299
      16        0.000099393544     0.000056765746     0.000034875117
      17       -0.000004361576    -0.000080217634     0.000003308670
      18       -0.000043466787     0.000101134543     0.000057211362
      19       -0.000024427808     0.000000915081    -0.000056424038
      20        0.000061645656    -0.000035649724    -0.000025112889
      21        0.000080346345     0.000056833166     0.000032238577
      22        0.000000839423     0.000027927752    -0.000049756223
      23       -0.000027889129    -0.000009624197     0.000063112694
      24        0.000036036950    -0.000079022523     0.000006231740
      25       -0.000001170755     0.000021172111    -0.000020223736

  **** Optimization is complete! (in 6 steps) ****
    Final optimized geometry and variables:
    Molecular point group: c1

    Geometry (in Angstrom), charge = 0, multiplicity = 1:

    H           -3.040703575610     1.944141463117    -0.361183077065
    C           -3.187752812326     0.877995465387    -0.580811563690
    C           -2.117652161640     0.253486867858    -1.434509079371
    O           -4.138990190933     0.313742953251    -0.163753102209
    C           -0.706712174333     0.508591117342    -0.896458829849
    H           -2.324932274864    -0.804755070684    -1.526760096822
    H           -2.209689636473     0.699370366794    -2.422512008378
    C           -0.426507901466    -0.180777335145     0.440077314010
    H            0.007896598532     0.170641128110    -1.638665682824
    H           -0.549697888663     1.579101026143    -0.791524192834
    C            1.019383436408     0.003768006016     0.923660948429
    H           -0.636938300610    -1.239621036056     0.322452115037
    H           -1.117303321614     0.192152348775     1.189068425466
    C            1.967068552517    -1.097262871641     0.445773769407
    H            1.380133624883     0.978086889417     0.611852106024
    H            1.034499864121     0.011263377422     2.009578876113
    C            3.412088259940    -0.951480271420     0.926069671100
    H            1.958331390223    -1.146550314326    -0.640826562593
    H            1.581576995807    -2.050720067883     0.794484896661
    C            4.166793965525     0.234501086644     0.330316658465
    H            3.948810425286    -1.862312038908     0.679659073353
    H            3.423162109089    -0.878414429770     2.010318547211
    H            4.168030669178     0.189507431566    -0.754046678845
    H            3.730355753717     1.182171611253     0.621532495163
    H            5.199226437656     0.238024478327     0.660385126806

  Mulliken Charges: (a.u.)
   Center  Symbol    Alpha    Beta     Spin     Total
       1     H     0.46418  0.46418  0.00000  0.07164
       2     C     2.90458  2.90458  0.00000  0.19084
       3     C     3.08885  3.08885  0.00000 -0.17771
       4     O     4.16650  4.16650  0.00000 -0.33300
       5     C     3.11485  3.11485  0.00000 -0.22970
       6     H     0.44254  0.44254  0.00000  0.11492
       7     H     0.44076  0.44076  0.00000  0.11847
       8     C     3.10078  3.10078  0.00000 -0.20155
       9     H     0.44248  0.44248  0.00000  0.11503
      10     H     0.45014  0.45014  0.00000  0.09973
      11     C     3.10234  3.10234  0.00000 -0.20468
      12     H     0.45010  0.45010  0.00000  0.09980
      13     H     0.43960  0.43960  0.00000  0.12080
      14     C     3.09307  3.09307  0.00000 -0.18615
      15     H     0.45217  0.45217  0.00000  0.09567
      16     H     0.44540  0.44540  0.00000  0.10921
      17     C     3.09067  3.09067  0.00000 -0.18134
      18     H     0.45468  0.45468  0.00000  0.09064
      19     H     0.44730  0.44730  0.00000  0.10539
      20     C     3.15252  3.15252  0.00000 -0.30504
      21     H     0.44773  0.44773  0.00000  0.10454
      22     H     0.45398  0.45398  0.00000  0.09204
      23     H     0.45501  0.45501  0.00000  0.08998
      24     H     0.45415  0.45415  0.00000  0.09170
      25     H     0.44563  0.44563  0.00000  0.10875

   Total alpha = 36.00000, Total beta = 36.00000, Total charge =  0.00000

*** Psi4 exiting successfully. Buy a developer a beer!
