  ==> Input File <==

--------------------------------------------------------------------------
set {
	reference rhf
	basis cc-pvtz
}

set_num_threads( 4 )
memory 2 gb

molecule MOL {
0 1

H	 -2.812148	 -0.417374	 0.908315
C	 -2.689450	 0.091277	 -0.045154
O	 -1.349126	 0.222153	 -0.382710
H	 -3.168865	 -0.494510	 -0.815805
H	 -3.183053	 1.059543	 0.015697
C	 -0.600223	 0.967237	 0.520413
C	 0.851415	 0.955430	 0.111815
H	 -0.952314	 1.998510	 0.542267
H	 -0.692225	 0.560084	 1.524999
O	 1.401606	 -0.295166	 0.366636
H	 0.927356	 1.201262	 -0.945177
H	 1.382631	 1.723110	 0.674353
C	 2.714315	 -0.441627	 -0.061017
H	 2.765292	 -0.641548	 -1.128869
H	 3.305661	 0.447341	 0.150952
H	 3.143725	 -1.278506	 0.470147

	symmetry c1
}
set optking {
	frozen_dihedral = ("
		7 10 13 14
	")
}

ee = optimize('scf')
oeprop('DIPOLE', 'QUADRUPOLE', 'MULLIKEN_CHARGES')
f=open( 'psi4out.xyz', 'w' )
f.write( "16  " )
f.write( str(ee) + "\n" )
f.write( MOL.save_string_xyz() )
f.close()
--------------------------------------------------------------------------

    Molecular point group: c1
  Charge       = 0
  Multiplicity = 1
  Basis Set: CC-PVTZ
  Basis Set:
  @DF-RHF Final Energy:  -307.09710240711684
    Total Energy =                       -307.0971024071166084
    Molecular point group: c1
  Basis Set: CC-PVTZ
  Basis Set:
  Basis Set: CC-PVTZ
  Basis Set:
  @DF-RHF Final Energy:  -307.09713793195527
    Total Energy =                       -307.0971379319548760
  Basis Set: CC-PVTZ
  Basis Set:
  Charge       = 0
  Multiplicity = 1
  Basis Set: CC-PVTZ
  Basis Set:

    Orbital Energies (a.u.)
    -----------------------

    Doubly Occupied:

       1A    -20.547774     2A    -20.547006     3A    -11.267561
       4A    -11.266844     5A    -11.261566     6A    -11.261405
       7A     -1.391205     8A     -1.373931     9A     -1.032031
      10A     -0.937236    11A     -0.892174    12A     -0.824220
      13A     -0.686171    14A     -0.682531    15A     -0.659196
      16A     -0.637303    17A     -0.632152    18A     -0.598188
      19A     -0.551166    20A     -0.537758    21A     -0.509227
      22A     -0.479550    23A     -0.464666    24A     -0.422410
      25A     -0.413260

  @DF-RHF Final Energy:  -307.09714114270116

   => Energetics <=

    Nuclear Repulsion Energy =            258.8396273762976989
    One-Electron Energy =                -932.1204791807020911
    Two-Electron Energy =                 366.1837106617035715
    DFT Exchange-Correlation Energy =       0.0000000000000000
    Empirical Dispersion Energy =           0.0000000000000000
    PCM Polarization Energy =               0.0000000000000000
    EFP Energy =                            0.0000000000000000
    Total Energy =                       -307.0971411427008206
    Molecular point group: c1
  Basis Set: CC-PVTZ
  Basis Set:

  -Total Gradient:
     Atom            X                  Y                   Z
    ------   -----------------  -----------------  -----------------
       1        0.000000370464    -0.000000191878     0.000000471668
       2        0.000000079559     0.000000220883    -0.000001297140
       3       -0.000015949150    -0.000000314793     0.000000982727
       4        0.000001364870     0.000000651809     0.000000183474
       5       -0.000000086584     0.000000807553    -0.000000157053
       6        0.000029867486    -0.000054432556    -0.000017799076
       7        0.000634630518     0.000687221016     0.001755093724
       8        0.000027044890    -0.000004600905    -0.000012282367
       9       -0.000002510023    -0.000000072736     0.000011748845
      10       -0.000890666782    -0.001525524618    -0.002296005713
      11       -0.000008833501    -0.000013020522    -0.000006906538
      12       -0.000012312772     0.000014108992    -0.000006979632
      13        0.000368031032     0.003247123612     0.000117305942
      14       -0.000104436207    -0.002375296993     0.000429616663
      15       -0.000017745388     0.000007329371     0.000036781093
      16       -0.000008848406     0.000015991763    -0.000010756616

  **** Optimization is complete! (in 3 steps) ****
    Final optimized geometry and variables:
    Molecular point group: c1

    Geometry (in Angstrom), charge = 0, multiplicity = 1:

    H           -2.863872524778    -0.666407507644     0.824606709408
    C           -2.742808065151    -0.156986346842    -0.128644952395
    O           -1.402924443175    -0.022193391944    -0.466408162008
    H           -3.220748545341    -0.743719916672    -0.899484924625
    H           -3.239070883201     0.809894003151    -0.067246874525
    C           -0.655895470562     0.724508048794     0.436917424584
    C            0.795700329246     0.716819129876     0.028595660963
    H           -1.010582200706     1.754919901965     0.459113789167
    H           -0.746658073220     0.316676114757     1.441351333486
    O            1.348870443360    -0.532298511360     0.286663017466
    H            0.869291289130     0.963134386342    -1.028600021986
    H            1.325127301996     1.485310904519     0.590856738686
    C            2.661010863168    -0.686773484697    -0.144519759579
    H            2.705415772570    -0.893732019787    -1.210925994502
    H            3.264284356127     0.191248884664     0.072835177747
    H            3.084002479825    -1.532267890264     0.379920817124

  Mulliken Charges: (a.u.)
   Center  Symbol    Alpha    Beta     Spin     Total
       1     H     0.47016  0.47016  0.00000  0.05969
       2     C     3.03200  3.03200  0.00000 -0.06399
       3     O     4.17055  4.17055  0.00000 -0.34110
       4     H     0.44637  0.44637  0.00000  0.10727
       5     H     0.47368  0.47368  0.00000  0.05264
       6     C     2.96112  2.96112  0.00000  0.07777
       7     C     2.96022  2.96022  0.00000  0.07956
       8     H     0.47606  0.47606  0.00000  0.04788
       9     H     0.47088  0.47088  0.00000  0.05824
      10     O     4.17169  4.17169  0.00000 -0.34339
      11     H     0.47148  0.47148  0.00000  0.05703
      12     H     0.47514  0.47514  0.00000  0.04972
      13     C     3.03128  3.03128  0.00000 -0.06256
      14     H     0.46549  0.46549  0.00000  0.06902
      15     H     0.47499  0.47499  0.00000  0.05001
      16     H     0.44889  0.44889  0.00000  0.10222

   Total alpha = 25.00000, Total beta = 25.00000, Total charge = -0.00000
