  ==> Input File <==

--------------------------------------------------------------------------
set {
	reference rhf
	basis 6-31G*
}

set_num_threads( 4 )
memory 2 gb

molecule MOL {
0 1

H	 2.316222	 -0.060101	 -0.338144
O	 1.557579	 -0.635335	 -0.355379
C	 0.489431	 0.077273	 0.000046
C	 -0.764129	 -0.759190	 0.000191
O	 0.560223	 1.230320	 0.275794
C	 -2.038368	 0.075731	 -0.000248
H	 -0.717284	 -1.412404	 -0.866059
H	 -0.717458	 -1.411724	 0.866967
H	 -2.086483	 0.712501	 -0.875098
H	 -2.908485	 -0.571682	 -0.000042
H	 -2.086576	 0.713280	 0.874068

	symmetry c1
}
set optking {
	frozen_dihedral = ("
		2 3 4 7
	")
}

ee = optimize('scf')
oeprop('DIPOLE', 'QUADRUPOLE', 'MULLIKEN_CHARGES')
f=open( 'psi4out.xyz', 'w' )
f.write( "11  " )
f.write( str(ee) + "\n" )
f.write( MOL.save_string_xyz() )
f.close()
--------------------------------------------------------------------------

    Molecular point group: c1
  Charge       = 0
  Multiplicity = 1
  Basis Set: 6-31G*
  Basis Set:
  @DF-RHF Final Energy:  -266.84582252808491
    Total Energy =                       -266.8458225280848524
    Molecular point group: c1
  Basis Set: 6-31G*
  Basis Set:
  Basis Set: 6-31G*
  Basis Set:
  @DF-RHF Final Energy:  -266.84585330077084
    Total Energy =                       -266.8458533007708979
  Basis Set: 6-31G*
  Basis Set:
  Basis Set: 6-31G*
  Basis Set:
  @DF-RHF Final Energy:  -266.84570279877755
    Total Energy =                       -266.8457027987775518
  Basis Set: 6-31G*
  Basis Set:
  Basis Set: 6-31G*
  Basis Set:
  @DF-RHF Final Energy:  -266.84591220337580
    Total Energy =                       -266.8459122033760309
  Basis Set: 6-31G*
  Basis Set:
  Charge       = 0
  Multiplicity = 1
  Basis Set: 6-31G*
  Basis Set:

    Orbital Energies (a.u.)
    -----------------------

    Doubly Occupied:

       1A    -20.614222     2A    -20.552325     3A    -11.382196
       4A    -11.244085     5A    -11.221105     6A     -1.475957
       7A     -1.366872     8A     -1.065335     9A     -0.917038
      10A     -0.802196    11A     -0.702123    12A     -0.690640
      13A     -0.660763    14A     -0.596776    15A     -0.593623
      16A     -0.532676    17A     -0.526227    18A     -0.505720
      19A     -0.479307    20A     -0.445586

  @DF-RHF Final Energy:  -266.84591303397900

   => Energetics <=

    Nuclear Repulsion Energy =            179.7548613764981269
    One-Electron Energy =                -720.4520000678875249
    Two-Electron Energy =                 273.8512256574102821
    DFT Exchange-Correlation Energy =       0.0000000000000000
    Empirical Dispersion Energy =           0.0000000000000000
    PCM Polarization Energy =               0.0000000000000000
    EFP Energy =                            0.0000000000000000
    Total Energy =                       -266.8459130339791727
    Molecular point group: c1
  Basis Set: 6-31G*
  Basis Set:

  -Total Gradient:
     Atom            X                  Y                   Z
    ------   -----------------  -----------------  -----------------
       1       -0.000002613308     0.000001246704     0.000008187742
       2       -0.000098741490     0.000151673870    -0.000742969219
       3        0.000212004331    -0.000312715407     0.001092923812
       4       -0.000556313237     0.000844240755    -0.000844790718
       5        0.000002877027    -0.000037217822    -0.000013779548
       6        0.000010658099    -0.000010353453    -0.000000413504
       7        0.000417167417    -0.000622912253     0.000503175119
       8        0.000005098670    -0.000007355608     0.000009839289
       9       -0.000000921847     0.000002692346    -0.000006480641
      10        0.000001372933     0.000000953057    -0.000008274559
      11        0.000009411403    -0.000010252189     0.000002582226

  **** Optimization is complete! (in 5 steps) ****
    Final optimized geometry and variables:
    Molecular point group: c1

    Geometry (in Angstrom), charge = 0, multiplicity = 1:

    H            2.324712774085    -0.064023465626    -0.279075062711
    O            1.564479140130    -0.635512104660    -0.327558106959
    C            0.490864989661     0.074347595931     0.015288282222
    C           -0.762931898387    -0.762288980416     0.006371314117
    O            0.557464425615     1.225505060502     0.300614103126
    C           -2.036907187274     0.073519678942     0.027328534407
    H           -0.723189189670    -1.423555142801    -0.851831398294
    H           -0.709726045561    -1.407471862682     0.880246583851
    H           -2.105752484948     0.702614215613    -0.852692817315
    H           -2.907271597507    -0.573032352742     0.050855302243
    H           -2.062998705115     0.717666239140     0.896825005521

  Mulliken Charges: (a.u.)
   Center  Symbol    Alpha    Beta     Spin     Total
       1     H     0.26773  0.26773  0.00000  0.46453
       2     O     4.35018  4.35018  0.00000 -0.70035
       3     C     2.62419  2.62419  0.00000  0.75163
       4     C     3.20894  3.20894  0.00000 -0.41788
       5     O     4.27893  4.27893  0.00000 -0.55786
       6     C     3.24056  3.24056  0.00000 -0.48112
       7     H     0.39833  0.39833  0.00000  0.20334
       8     H     0.39762  0.39762  0.00000  0.20476
       9     H     0.41191  0.41191  0.00000  0.17619
      10     H     0.41622  0.41622  0.00000  0.16756
      11     H     0.40539  0.40539  0.00000  0.18922

   Total alpha = 20.00000, Total beta = 20.00000, Total charge = -0.00000
