  ==> Input File <==

--------------------------------------------------------------------------
set {
	reference rhf
	basis 6-31G*
}

set_num_threads( 4 )
memory 2 gb

molecule MOL {
0 1

O	 0.074228	 1.262779	 -0.000085
C	 0.028650	 0.075053	 -0.000277
C	 -1.233602	 -0.752807	 0.000328
O	 1.109162	 -0.694619	 -0.000298
C	 -2.501530	 0.091881	 0.000126
H	 -1.193807	 -1.406641	 -0.865785
H	 -1.193516	 -1.405779	 0.867015
H	 -2.545121	 0.729328	 -0.874513
H	 -3.377167	 -0.548497	 0.000561
H	 -2.544818	 0.730135	 0.874258
C	 1.071460	 -1.855124	 -0.811097
H	 0.271121	 -2.510502	 -0.499088
H	 2.025808	 -2.339944	 -0.676810
H	 0.928998	 -1.589230	 -1.848631

	symmetry c1
}
set optking {
	frozen_dihedral = ("
		11 4 2 3
	")
}

ee = optimize('scf')
oeprop('DIPOLE', 'QUADRUPOLE', 'MULLIKEN_CHARGES')
f=open( 'psi4out.xyz', 'w' )
f.write( "14  " )
f.write( str(ee) + "\n" )
f.write( MOL.save_string_xyz() )
f.close()
--------------------------------------------------------------------------

    Molecular point group: c1
  Charge       = 0
  Multiplicity = 1
  Basis Set: 6-31G*
  Basis Set:
  @DF-RHF Final Energy:  -305.84615945347389
    Total Energy =                       -305.8461594534739447
    Molecular point group: c1
  Basis Set: 6-31G*
  Basis Set:
  Basis Set: 6-31G*
  Basis Set:
  @DF-RHF Final Energy:  -305.84754873072950
    Total Energy =                       -305.8475487307296135
  Basis Set: 6-31G*
  Basis Set:
  Basis Set: 6-31G*
  Basis Set:
  @DF-RHF Final Energy:  -305.85295654110951
    Total Energy =                       -305.8529565411093927
  Basis Set: 6-31G*
  Basis Set:
  Basis Set: 6-31G*
  Basis Set:
  @DF-RHF Final Energy:  -305.85422106922397
    Total Energy =                       -305.8542210692240815
  Basis Set: 6-31G*
  Basis Set:
  Basis Set: 6-31G*
  Basis Set:
  @DF-RHF Final Energy:  -305.85384299776251
    Total Energy =                       -305.8538429977624560
  Basis Set: 6-31G*
  Basis Set:
  Basis Set: 6-31G*
  Basis Set:
  @DF-RHF Final Energy:  -305.85441964578672
    Total Energy =                       -305.8544196457867770
  Basis Set: 6-31G*
  Basis Set:
  Basis Set: 6-31G*
  Basis Set:
  @DF-RHF Final Energy:  -305.85451372750009
    Total Energy =                       -305.8545137275000911
  Basis Set: 6-31G*
  Basis Set:
  Charge       = 0
  Multiplicity = 1
  Basis Set: 6-31G*
  Basis Set:

    Orbital Energies (a.u.)
    -----------------------

    Doubly Occupied:

       1A    -20.597555     2A    -20.546758     3A    -11.374780
       4A    -11.296588     5A    -11.247665     6A    -11.220976
       7A     -1.462332     8A     -1.367729     9A     -1.063010
      10A     -0.984189    11A     -0.898585    12A     -0.768175
      13A     -0.703998    14A     -0.684307    15A     -0.673551
      16A     -0.627672    17A     -0.608400    18A     -0.560645
      19A     -0.548817    20A     -0.525713    21A     -0.512504
      22A     -0.495723    23A     -0.452671    24A     -0.434572

  @DF-RHF Final Energy:  -305.85451459524290

   => Energetics <=

    Nuclear Repulsion Energy =            247.2973208264462812
    One-Electron Energy =                -906.9898435130191956
    Two-Electron Energy =                 353.8380080913300958
    DFT Exchange-Correlation Energy =       0.0000000000000000
    Empirical Dispersion Energy =           0.0000000000000000
    PCM Polarization Energy =               0.0000000000000000
    EFP Energy =                            0.0000000000000000
    Total Energy =                       -305.8545145952428470
    Molecular point group: c1
  Basis Set: 6-31G*
  Basis Set:

  -Total Gradient:
     Atom            X                  Y                   Z
    ------   -----------------  -----------------  -----------------
       1        0.000061440593     0.000014415299    -0.000006348469
       2        0.000774766667     0.000578241199    -0.005401503262
       3       -0.000064466511     0.000107481480     0.002751644041
       4       -0.001826392815    -0.002329079530     0.005052225501
       5       -0.000026749260     0.000002834359    -0.000002962580
       6       -0.000017145383    -0.000014755561    -0.000011641758
       7       -0.000004669869     0.000003614520    -0.000014275168
       8        0.000002272924    -0.000004684790     0.000008021960
       9       -0.000008569459    -0.000002794334     0.000004289383
      10        0.000003373402    -0.000005480647    -0.000007775308
      11        0.001105600384     0.001647376552    -0.002374208175
      12       -0.000005573643     0.000000149642     0.000008164842
      13       -0.000000112835     0.000017811787     0.000012924015
      14        0.000006225805    -0.000015129974    -0.000018555022

  **** Optimization is complete! (in 8 steps) ****
    Final optimized geometry and variables:
    Molecular point group: c1

    Geometry (in Angstrom), charge = 0, multiplicity = 1:

    O            0.286024602422     1.541376391903     0.125951718569
    C            0.218864804200     0.361712336290     0.079060192775
    C           -1.090563325261    -0.403107000135     0.083115424868
    O            1.342440229814    -0.368946494999     0.125824207578
    C           -2.301597609987     0.510504437150     0.232452609197
    H           -1.168851514622    -0.983244479656    -0.832431104383
    H           -1.044165803723    -1.125271589564     0.893726012726
    H           -2.354216763317     1.220859166677    -0.582823560709
    H           -3.213068501871    -0.077666858607     0.236246926924
    H           -2.251943615662     1.073163708719     1.156133014520
    C            1.462627822181    -1.567862554974    -0.604419549291
    H            0.823913937339    -2.348391615023    -0.209336255439
    H            2.492645261884    -1.872918411010    -0.506254029138
    H            1.239402852857    -1.411182059753    -1.653178326009

  Mulliken Charges: (a.u.)
   Center  Symbol    Alpha    Beta     Spin     Total
       1     O     4.26007  4.26007  0.00000 -0.52013
       2     C     2.60688  2.60688  0.00000  0.78625
       3     C     3.22593  3.22593  0.00000 -0.45185
       4     O     4.30428  4.30428  0.00000 -0.60856
       5     C     3.23562  3.23562  0.00000 -0.47123
       6     H     0.40548  0.40548  0.00000  0.18904
       7     H     0.40098  0.40098  0.00000  0.19804
       8     H     0.40758  0.40758  0.00000  0.18484
       9     H     0.41867  0.41867  0.00000  0.16265
      10     H     0.40742  0.40742  0.00000  0.18517
      11     C     3.09480  3.09480  0.00000 -0.18961
      12     H     0.41794  0.41794  0.00000  0.16412
      13     H     0.39871  0.39871  0.00000  0.20258
      14     H     0.41565  0.41565  0.00000  0.16870

   Total alpha = 24.00000, Total beta = 24.00000, Total charge = -0.00000
