  ==> Input File <==

--------------------------------------------------------------------------
set {
	reference rhf
	basis cc-pvtz
}

set_num_threads( 4 )
memory 2 gb

molecule MOL {
0 1

H	 -0.000105	 1.988529	 0.748933
O	 -0.000098	 1.879786	 -0.188206
C	 -0.000014	 0.545691	 -0.532416
C	 -1.286000	 -0.125171	 -0.046657
C	 1.286016	 -0.125031	 -0.046584
H	 0.000021	 0.481103	 -1.610604
F	 -2.286433	 0.710984	 -0.176418
F	 -1.572986	 -1.204422	 -0.729715
F	 -1.203449	 -0.454527	 1.224596
F	 2.317750	 0.468717	 -0.594166
F	 1.336617	 -1.393765	 -0.365123
F	 1.414467	 -0.024806	 1.259108

	symmetry c1
}
set optking {
	frozen_dihedral = ("
		7 4 3 6
	")
}

ee = optimize('scf')
oeprop('DIPOLE', 'QUADRUPOLE', 'MULLIKEN_CHARGES')
f=open( 'psi4out.xyz', 'w' )
f.write( "12  " )
f.write( str(ee) + "\n" )
f.write( MOL.save_string_xyz() )
f.close()
--------------------------------------------------------------------------

    Molecular point group: c1
  Charge       = 0
  Multiplicity = 1
  Basis Set: CC-PVTZ
  Basis Set:
  @DF-RHF Final Energy:  -786.58697126431741
    Total Energy =                       -786.5869712643178673
    Molecular point group: c1
  Basis Set: CC-PVTZ
  Basis Set:
  Basis Set: CC-PVTZ
  Basis Set:
  @DF-RHF Final Energy:  -786.58779742734441
    Total Energy =                       -786.5877974273441851
  Basis Set: CC-PVTZ
  Basis Set:
  Basis Set: CC-PVTZ
  Basis Set:
  @DF-RHF Final Energy:  -786.58812415466468
    Total Energy =                       -786.5881241546649107
  Basis Set: CC-PVTZ
  Basis Set:
  Basis Set: CC-PVTZ
  Basis Set:
  @DF-RHF Final Energy:  -786.58818330433792
    Total Energy =                       -786.5881833043379174
  Basis Set: CC-PVTZ
  Basis Set:
  Basis Set: CC-PVTZ
  Basis Set:
  @DF-RHF Final Energy:  -786.58819981875877
    Total Energy =                       -786.5881998187588806
  Basis Set: CC-PVTZ
  Basis Set:
  Charge       = 0
  Multiplicity = 1
  Basis Set: CC-PVTZ
  Basis Set:

    Orbital Energies (a.u.)
    -----------------------

    Doubly Occupied:

       1A    -26.358669     2A    -26.358440     3A    -26.356301
       4A    -26.355585     5A    -26.354460     6A    -26.353520
       7A    -20.610612     8A    -11.519940     9A    -11.518602
      10A    -11.351389    11A     -1.771884    12A     -1.765742
      13A     -1.667129    14A     -1.663596    15A     -1.662806
      16A     -1.660205    17A     -1.440721    18A     -1.103505
      19A     -1.000886    20A     -0.944610    21A     -0.870725
      22A     -0.868465    23A     -0.858897    24A     -0.852604
      25A     -0.839485    26A     -0.821084    27A     -0.746332
      28A     -0.735063    29A     -0.733025    30A     -0.726836
      31A     -0.695798    32A     -0.692109    33A     -0.690414
      34A     -0.681743    35A     -0.676665    36A     -0.667219
      37A     -0.665065    38A     -0.658155    39A     -0.624633
      40A     -0.552665    41A     -0.510022

  @DF-RHF Final Energy:  -786.58820055077592

   => Energetics <=

    Nuclear Repulsion Energy =            671.6262715598753630
    One-Electron Energy =               -2430.4577392960836733
    Two-Electron Energy =                 972.2432671854331829
    DFT Exchange-Correlation Energy =       0.0000000000000000
    Empirical Dispersion Energy =           0.0000000000000000
    PCM Polarization Energy =               0.0000000000000000
    EFP Energy =                            0.0000000000000000
    Total Energy =                       -786.5882005507750137
    Molecular point group: c1
  Basis Set: CC-PVTZ
  Basis Set:

  -Total Gradient:
     Atom            X                  Y                   Z
    ------   -----------------  -----------------  -----------------
       1       -0.000000384457    -0.000049867035    -0.000025190342
       2       -0.000040989111    -0.000153330016    -0.000048410946
       3       -0.001908046202     0.003929222482     0.000704036941
       4       -0.000274276648    -0.001881198780    -0.003408596800
       5        0.000026922250     0.000025542991     0.000060356678
       6        0.001728593385    -0.002925309225     0.000141237485
       7        0.000463467070     0.001058155017     0.002642199348
       8        0.000037948795    -0.000027258141    -0.000091199560
       9        0.000108501894     0.000008664020     0.000085413146
      10       -0.000061639290     0.000018822828     0.000005818215
      11       -0.000044916639    -0.000031308185     0.000002178723
      12       -0.000035181033     0.000027864039    -0.000067842879

  **** Optimization is complete! (in 6 steps) ****
    Final optimized geometry and variables:
    Molecular point group: c1

    Geometry (in Angstrom), charge = 0, multiplicity = 1:

    H            0.054413383514     2.000045448432     0.805377335692
    O            0.006954525556     1.912998679723    -0.132657613211
    C           -0.003380075746     0.591679444607    -0.511634575125
    C           -1.279391790916    -0.132033605234    -0.061923910986
    C            1.273734301298    -0.106577338374    -0.038006573175
    H            0.015438399457     0.542383946935    -1.590361006649
    F           -2.313579219711     0.658844131382    -0.192522749067
    F           -1.488705501798    -1.206652994877    -0.781326058947
    F           -1.221729807177    -0.492933108761     1.203099842307
    F            2.304188840493     0.371602212420    -0.691621026979
    F            1.229413703269    -1.400130131188    -0.241089779907
    F            1.486559838369     0.100820432010     1.243071127340

  Mulliken Charges: (a.u.)
   Center  Symbol    Alpha    Beta     Spin     Total
       1     H     0.38251  0.38251  0.00000  0.23498
       2     O     4.18637  4.18637  0.00000 -0.37275
       3     C     3.00780  3.00780  0.00000 -0.01560
       4     C     2.68316  2.68316  0.00000  0.63368
       5     C     2.68203  2.68203  0.00000  0.63594
       6     H     0.42658  0.42658  0.00000  0.14683
       7     F     4.60041  4.60041  0.00000 -0.20082
       8     F     4.60480  4.60480  0.00000 -0.20961
       9     F     4.60938  4.60938  0.00000 -0.21875
      10     F     4.60265  4.60265  0.00000 -0.20531
      11     F     4.60363  4.60363  0.00000 -0.20725
      12     F     4.61067  4.61067  0.00000 -0.22134

   Total alpha = 41.00000, Total beta = 41.00000, Total charge = -0.00000
