  ==> Input File <==

--------------------------------------------------------------------------
set {
	reference rhf
	basis 6-31G*
}

set_num_threads( 4 )
memory 2 gb

molecule MOL {
0 1

O	 -2.042549	 -1.228399	 -0.269030
C	 -1.653912	 -0.146171	 0.050137
C	 -0.332303	 0.024011	 0.778412
C	 -2.438579	 1.106236	 -0.272369
C	 0.845713	 -0.001731	 -0.208243
H	 -0.323783	 0.953829	 1.340327
H	 -0.235459	 -0.796807	 1.480410
C	 2.200309	 0.136118	 0.488247
H	 0.733710	 0.800019	 -0.936072
H	 0.811185	 -0.933796	 -0.764304
C	 2.672554	 1.586506	 0.580803
H	 2.137931	 -0.288803	 1.487735
H	 2.940417	 -0.451921	 -0.049356
H	 1.968729	 2.193639	 1.143007
H	 2.775691	 2.028423	 -0.405866
H	 3.636035	 1.653484	 1.076024
H	 -3.277823	 0.863061	 -0.908988
H	 -1.806773	 1.843019	 -0.759671
H	 -2.802853	 1.554979	 0.648059

	symmetry c1
}
set optking {
	frozen_dihedral = ("
		11 8 5 9
	")
}

ee = optimize('scf')
oeprop('DIPOLE', 'QUADRUPOLE', 'MULLIKEN_CHARGES')
f=open( 'psi4out.xyz', 'w' )
f.write( "19  " )
f.write( str(ee) + "\n" )
f.write( MOL.save_string_xyz() )
f.close()
--------------------------------------------------------------------------

    Molecular point group: c1
  Charge       = 0
  Multiplicity = 1
  Basis Set: 6-31G*
  Basis Set:
  @DF-RHF Final Energy:  -309.06145225687544
    Total Energy =                       -309.0614522568753273
    Molecular point group: c1
  Basis Set: 6-31G*
  Basis Set:
  Basis Set: 6-31G*
  Basis Set:
  @DF-RHF Final Energy:  -309.06155480653445
    Total Energy =                       -309.0615548065343887
  Basis Set: 6-31G*
  Basis Set:
  Basis Set: 6-31G*
  Basis Set:
  @DF-RHF Final Energy:  -309.06161536175892
    Total Energy =                       -309.0616153617592090
  Basis Set: 6-31G*
  Basis Set:
  Basis Set: 6-31G*
  Basis Set:
  @DF-RHF Final Energy:  -309.06170868922533
    Total Energy =                       -309.0617086892255543
  Basis Set: 6-31G*
  Basis Set:
  @DF-RHF Final Energy:  -309.06174562294603
    Total Energy =                       -309.0617456229462618
  Basis Set: 6-31G*
  Basis Set:
  @DF-RHF Final Energy:  -309.06176822585610
    Total Energy =                       -309.0617682258559853
  Basis Set: 6-31G*
  Basis Set:
  Basis Set: 6-31G*
  Basis Set:
  @DF-RHF Final Energy:  -309.06177526986653
    Total Energy =                       -309.0617752698667573
  Basis Set: 6-31G*
  Basis Set:
  Basis Set: 6-31G*
  Basis Set:
  @DF-RHF Final Energy:  -309.06177885423585
    Total Energy =                       -309.0617788542356266
  Basis Set: 6-31G*
  Basis Set:
  Charge       = 0
  Multiplicity = 1
  Basis Set: 6-31G*
  Basis Set:

    Orbital Energies (a.u.)
    -----------------------

    Doubly Occupied:

       1A    -20.547486     2A    -11.324385     3A    -11.230755
       4A    -11.229279     5A    -11.228269     6A    -11.225014
       7A    -11.217304     8A     -1.393150     9A     -1.090666
      10A     -1.028195    11A     -0.983018    12A     -0.894715
      13A     -0.803767    14A     -0.735216    15A     -0.659534
      16A     -0.647098    17A     -0.617669    18A     -0.610066
      19A     -0.597437    20A     -0.569020    21A     -0.553869
      22A     -0.533106    23A     -0.522321    24A     -0.499381
      25A     -0.483006    26A     -0.470981    27A     -0.465363
      28A     -0.396834

  @DF-RHF Final Energy:  -309.06177956629318

   => Energetics <=

    Nuclear Repulsion Energy =            303.6325386565751501
    One-Electron Energy =               -1020.2748311252457825
    Two-Electron Energy =                 407.5805129023773361
    DFT Exchange-Correlation Energy =       0.0000000000000000
    Empirical Dispersion Energy =           0.0000000000000000
    PCM Polarization Energy =               0.0000000000000000
    EFP Energy =                            0.0000000000000000
    Total Energy =                       -309.0617795662932394
    Molecular point group: c1
  Basis Set: 6-31G*
  Basis Set:

  -Total Gradient:
     Atom            X                  Y                   Z
    ------   -----------------  -----------------  -----------------
       1       -0.000004887192    -0.000002967941    -0.000001438007
       2        0.000002361118    -0.000010422221     0.000009248245
       3       -0.000008448161    -0.000011089023     0.000013712444
       4        0.000002759914     0.000003132079     0.000011791262
       5        0.002373873366    -0.002586851151    -0.004004623182
       6       -0.000004166320    -0.000000831630     0.000002541984
       7       -0.000017374402     0.000002030882    -0.000000888185
       8       -0.002017632946     0.000790782327     0.003793741260
       9       -0.001534530621     0.002031436074     0.002460124977
      10       -0.000002255476     0.000006945967     0.000018327042
      11        0.001203440066    -0.000228468413    -0.002295787483
      12        0.000003401160    -0.000007843050    -0.000003961712
      13       -0.000003026151     0.000004377177    -0.000000100506
      14        0.000003651165     0.000015031437     0.000003253063
      15        0.000001792242    -0.000003957196     0.000000377419
      16       -0.000005492780    -0.000002913885     0.000001087929
      17        0.000006330222    -0.000003263821    -0.000001494930
      18       -0.000001886930     0.000003419749    -0.000003591771
      19        0.000002091727     0.000001452641    -0.000002319848

  **** Optimization is complete! (in 9 steps) ****
    Final optimized geometry and variables:
    Molecular point group: c1

    Geometry (in Angstrom), charge = 0, multiplicity = 1:

    O           -1.953300349608    -1.438056833903    -0.443090226257
    C           -1.548647439817    -0.365119549019    -0.112303151278
    C           -0.227052771724    -0.223397434069     0.621452487177
    C           -2.312339572777     0.902517693353    -0.425890574726
    C            0.954499163340    -0.263467034672    -0.365356798385
    H           -0.206568286049     0.700958859633     1.191875985982
    H           -0.145491792835    -1.051905844271     1.315992438266
    C            2.313860764737    -0.079772805811     0.331025822864
    H            0.818911851343     0.527925382647    -1.099628564901
    H            0.919873621977    -1.207860955155    -0.896087151748
    C            2.761589879852     1.379986746826     0.418738993118
    H            2.279891815439    -0.519192938854     1.324374560294
    H            3.069700365435    -0.635151998880    -0.217368400151
    H            2.039279113972     1.992187392989     0.952164216214
    H            2.886326090979     1.805142847798    -0.572641975626
    H            3.710393762468     1.467173895675     0.938640903984
    H           -3.149923214590     0.679356501884    -1.071961676305
    H           -1.666387569764     1.636364009426    -0.898847385758
    H           -2.677701705257     1.344887907408     0.497222267220

  Mulliken Charges: (a.u.)
   Center  Symbol    Alpha    Beta     Spin     Total
       1     O     4.26227  4.26227  0.00000 -0.52455
       2     C     2.73707  2.73707  0.00000  0.52585
       3     C     3.20171  3.20171  0.00000 -0.40341
       4     C     3.28963  3.28963  0.00000 -0.57927
       5     C     3.16352  3.16352  0.00000 -0.32705
       6     H     0.41654  0.41654  0.00000  0.16691
       7     H     0.40093  0.40093  0.00000  0.19813
       8     C     3.15506  3.15506  0.00000 -0.31012
       9     H     0.42002  0.42002  0.00000  0.15996
      10     H     0.40344  0.40344  0.00000  0.19313
      11     C     3.24111  3.24111  0.00000 -0.48222
      12     H     0.41895  0.41895  0.00000  0.16210
      13     H     0.41633  0.41633  0.00000  0.16734
      14     H     0.42290  0.42290  0.00000  0.15421
      15     H     0.41991  0.41991  0.00000  0.16018
      16     H     0.41690  0.41690  0.00000  0.16620
      17     H     0.39700  0.39700  0.00000  0.20600
      18     H     0.40995  0.40995  0.00000  0.18010
      19     H     0.40674  0.40674  0.00000  0.18651

   Total alpha = 28.00000, Total beta = 28.00000, Total charge = -0.00000
