  ==> Input File <==

--------------------------------------------------------------------------
set {
	reference rhf
	basis 6-31G*
}

set_num_threads( 4 )
memory 2 gb

molecule MOL {
0 1

H	 -3.407059	 -1.043082	 0.000000
O	 -3.119761	 -0.140267	 0.000000
C	 -1.777559	 -0.059267	 0.000000
C	 -1.013181	 -0.416706	 -1.106781
C	 -1.165708	 0.400439	 1.159472
H	 -1.495305	 -0.772059	 -2.001538
C	 0.360782	 -0.312919	 -1.049546
H	 -1.776859	 0.669961	 1.999783
C	 0.209440	 0.498688	 1.201326
H	 0.962871	 -0.585219	 -1.895974
C	 0.988573	 0.145621	 0.104093
H	 0.684084	 0.854874	 2.099606
C	 2.459372	 0.256115	 0.163697
O	 3.198267	 -0.024611	 -0.728483
H	 2.856484	 0.626783	 1.114526

	symmetry c1
}
set optking {
	frozen_dihedral = ("
		5 3 2 1
	")
}

ee = optimize('scf')
oeprop('DIPOLE', 'QUADRUPOLE', 'MULLIKEN_CHARGES')
f=open( 'psi4out.xyz', 'w' )
f.write( "15  " )
f.write( str(ee) + "\n" )
f.write( MOL.save_string_xyz() )
f.close()
--------------------------------------------------------------------------

    Molecular point group: c1
  Charge       = 0
  Multiplicity = 1
  Basis Set: 6-31G*
  Basis Set:
  @DF-RHF Final Energy:  -418.28411366075397
    Total Energy =                       -418.2841136607537464
    Molecular point group: c1
  Basis Set: 6-31G*
  Basis Set:
  Basis Set: 6-31G*
  Basis Set:
  @DF-RHF Final Energy:  -418.28469702036602
    Total Energy =                       -418.2846970203661385
  Basis Set: 6-31G*
  Basis Set:
  Basis Set: 6-31G*
  Basis Set:
  @DF-RHF Final Energy:  -418.28461249800552
    Total Energy =                       -418.2846124980052309
  Basis Set: 6-31G*
  Basis Set:
  Basis Set: 6-31G*
  Basis Set:
  @DF-RHF Final Energy:  -418.28462828991712
    Total Energy =                       -418.2846282899173502
  Basis Set: 6-31G*
  Basis Set:
  Basis Set: 6-31G*
  Basis Set:
  @DF-RHF Final Energy:  -418.28476000965873
    Total Energy =                       -418.2847600096587257
  Basis Set: 6-31G*
  Basis Set:
  Charge       = 0
  Multiplicity = 1
  Basis Set: 6-31G*
  Basis Set:

    Orbital Energies (a.u.)
    -----------------------

    Doubly Occupied:

       1A    -20.594672     2A    -20.560621     3A    -11.331288
       4A    -11.313831     5A    -11.260157     6A    -11.253985
       7A    -11.244605     8A    -11.242860     9A    -11.242311
      10A     -1.412272    11A     -1.401634    12A     -1.170693
      13A     -1.041311    14A     -1.037060    15A     -0.887102
      16A     -0.859051    17A     -0.795933    18A     -0.750777
      19A     -0.708716    20A     -0.668356    21A     -0.647616
      22A     -0.630957    23A     -0.617085    24A     -0.607108
      25A     -0.560182    26A     -0.552730    27A     -0.538022
      28A     -0.497219    29A     -0.482686    30A     -0.421913
      31A     -0.355368    32A     -0.339659

  @DF-RHF Final Energy:  -418.28476084467627

   => Energetics <=

    Nuclear Repulsion Energy =            400.8202070391147345
    One-Electron Energy =               -1364.1543755905486250
    Two-Electron Energy =                 545.0494077067572789
    DFT Exchange-Correlation Energy =       0.0000000000000000
    Empirical Dispersion Energy =           0.0000000000000000
    PCM Polarization Energy =               0.0000000000000000
    EFP Energy =                            0.0000000000000000
    Total Energy =                       -418.2847608446766117
    Molecular point group: c1
  Basis Set: 6-31G*
  Basis Set:

  -Total Gradient:
     Atom            X                  Y                   Z
    ------   -----------------  -----------------  -----------------
       1       -0.000088146369     0.000003526121     0.002027391773
       2        0.000057457667    -0.000732644374    -0.002256559675
       3       -0.000030251206     0.002092505021    -0.000493101024
       4       -0.000175851702    -0.000037520651     0.000096692929
       5        0.000195796677    -0.001327348300     0.000600951945
       6        0.000005811616     0.000005750970    -0.000004509772
       7        0.000144396190     0.000073586063     0.000091163445
       8       -0.000001404102     0.000000081833    -0.000017616412
       9       -0.000107835174    -0.000069975438     0.000107032271
      10       -0.000012350032    -0.000006419796    -0.000003622862
      11        0.000000574002    -0.000034934240    -0.000153222407
      12        0.000018945819     0.000015719120    -0.000010072763
      13        0.000014790549     0.000042645202     0.000011900295
      14       -0.000014353355    -0.000016577834    -0.000000465128
      15       -0.000007580582    -0.000008393695     0.000004037388

  **** Optimization is complete! (in 6 steps) ****
    Final optimized geometry and variables:
    Molecular point group: c1

    Geometry (in Angstrom), charge = 0, multiplicity = 1:

    H           -3.414321620665    -1.070157337529     0.007245664854
    O           -3.131407294736    -0.165096418214     0.009406267815
    C           -1.770342070860    -0.089225424170     0.050925071186
    C           -1.012707166276    -0.445918704069    -1.059085284510
    C           -1.159027814659     0.369877453910     1.204964092076
    H           -1.510923811823    -0.786876406043    -1.948388137111
    C            0.361392775145    -0.343505012311    -1.008737245827
    H           -1.767266073002     0.641778008512     2.047019132025
    C            0.220288620431     0.477929964896     1.243767264675
    H            0.963175210833    -0.613497493076    -1.856029980051
    C            0.989109640893     0.120678524521     0.144838397185
    H            0.699265788475     0.837929566232     2.138116665241
    C            2.463475391089     0.235033040790     0.201232919052
    O            3.198837732181    -0.055030506811    -0.689723806563
    H            2.862217427191     0.616228132384     1.146785575937

  Mulliken Charges: (a.u.)
   Center  Symbol    Alpha    Beta     Spin     Total
       1     H     0.26842  0.26842  0.00000  0.46316
       2     O     4.38460  4.38460  0.00000 -0.76920
       3     C     2.80665  2.80665  0.00000  0.38670
       4     C     3.12636  3.12636  0.00000 -0.25272
       5     C     3.12184  3.12184  0.00000 -0.24367
       6     H     0.39035  0.39035  0.00000  0.21929
       7     C     3.08407  3.08407  0.00000 -0.16814
       8     H     0.38772  0.38772  0.00000  0.22456
       9     C     3.09837  3.09837  0.00000 -0.19674
      10     H     0.37495  0.37495  0.00000  0.25009
      11     C     3.06110  3.06110  0.00000 -0.12220
      12     H     0.38993  0.38993  0.00000  0.22013
      13     C     2.83084  2.83084  0.00000  0.33832
      14     O     4.25130  4.25130  0.00000 -0.50260
      15     H     0.42349  0.42349  0.00000  0.15301

   Total alpha = 32.00000, Total beta = 32.00000, Total charge = -0.00000
