                              Psi4 1.0.54 Driver

  ==> Input File <==

--------------------------------------------------------------------------
set {
	reference rhf
	basis cc-pvtz
}

set_num_threads( 4 )
memory 2 gb

molecule MOL {
0 1

H	 1.298518	 1.460825	 -0.940985
O	 0.495576	 0.964343	 -0.988473
C	 0.489979	 0.078084	 0.002623
C	 -0.763662	 -0.754014	 0.000816
O	 1.379594	 -0.008655	 0.776557
C	 -2.038001	 0.074705	 -0.000833
H	 -0.712945	 -1.405886	 -0.864342
H	 -0.715137	 -1.405770	 0.866182
H	 -2.087267	 0.710831	 -0.874232
H	 -2.903419	 -0.576199	 -0.001922
H	 -2.089467	 0.710909	 0.872389

	symmetry c1
}
set optking {
	frozen_dihedral = ("
		2 3 4 7
	")
}

ee,wfn = optimize('scf', return_wfn=True)
oeprop( wfn, 'DIPOLE', 'QUADRUPOLE', 'MULLIKEN_CHARGES')
f=open( 'psi4out.xyz', 'w' )
f.write( "11  " )
f.write( str(ee) + "\n" )
f.write( MOL.save_string_xyz() )
f.close()
--------------------------------------------------------------------------

    Molecular point group: c1
  Charge       = 0
  Multiplicity = 1
  Basis Set: CC-PVTZ
  Basis Set:
  @DF-RHF Final Energy:  -266.95125098716210
    Total Energy =                       -266.9512509871623251
    Molecular point group: c1
  Basis Set: CC-PVTZ
  Basis Set:
  Basis Set: CC-PVTZ
  Basis Set:
  @DF-RHF Final Energy:  -266.95125753420416
    Total Energy =                       -266.9512575342042737
  Basis Set: CC-PVTZ
  Basis Set:
  Basis Set: CC-PVTZ
  Basis Set:
  @DF-RHF Final Energy:  -266.95143169904884
    Total Energy =                       -266.9514316990487828
  Basis Set: CC-PVTZ
  Basis Set:
  Basis Set: CC-PVTZ
  Basis Set:
  @DF-RHF Final Energy:  -266.95153242782345
    Total Energy =                       -266.9515324278233948
  Basis Set: CC-PVTZ
  Basis Set:
  Basis Set: CC-PVTZ
  Basis Set:
  @DF-RHF Final Energy:  -266.95153654583174
    Total Energy =                       -266.9515365458315728
  Basis Set: CC-PVTZ
  Basis Set:
  Charge       = 0
  Multiplicity = 1
  Basis Set: CC-PVTZ
  Basis Set:

    Orbital Energies (a.u.)
    -----------------------

    Doubly Occupied:

       1A    -20.605842     2A    -20.540170     3A    -11.373827
       4A    -11.242263     5A    -11.226889     6A     -1.478636
       7A     -1.369187     8A     -1.068608     9A     -0.912723
      10A     -0.822472    11A     -0.705852    12A     -0.685612
      13A     -0.649751    14A     -0.611925    15A     -0.593210
      16A     -0.550061    17A     -0.527546    18A     -0.511986
      19A     -0.482015    20A     -0.443698

  @DF-RHF Final Energy:  -266.95153684594686

   => Energetics <=

    Nuclear Repulsion Energy =            180.4010225319286747
    One-Electron Energy =                -721.9005706512650704
    Two-Electron Energy =                 274.5480112733895339
    DFT Exchange-Correlation Energy =       0.0000000000000000
    Empirical Dispersion Energy =           0.0000000000000000
    PCM Polarization Energy =               0.0000000000000000
    EFP Energy =                            0.0000000000000000
    Total Energy =                       -266.9515368459468618
    Molecular point group: c1
  Basis Set: CC-PVTZ
  Basis Set:

  -Total Gradient:
     Atom            X                  Y                   Z
    ------   -----------------  -----------------  -----------------
       1       -0.000003033685    -0.000006739540     0.000008092745
       2       -0.000222208943     0.000292054198     0.000219575910
       3        0.000305540687    -0.000422807400    -0.000303078457
       4       -0.000333562250     0.000520970558    -0.000228788183
       5        0.000025916280    -0.000037914012     0.000049587900
       6       -0.000000190410    -0.000000811046    -0.000014951201
       7        0.000229732401    -0.000358260631     0.000276100690
       8        0.000008617180     0.000002046756    -0.000007337141
       9       -0.000008324009     0.000009520371    -0.000002628329
      10       -0.000003237781     0.000001651747    -0.000000637156
      11        0.000000750530     0.000000289000     0.000004063225

  **** Optimization is complete! (in 6 steps) ****
    Final optimized geometry and variables:
    Molecular point group: c1

    Geometry (in Angstrom), charge = 0, multiplicity = 1:

    H            1.394676849731     1.356164799673    -0.860986446411
    O            0.576887208872     0.884419605190    -0.910269813697
    C            0.556542758146    -0.021804902153     0.062648965690
    C           -0.701731446970    -0.848318586812     0.062728487828
    O            1.454452334551    -0.147820440630     0.821974565116
    C           -1.986289191262    -0.021482769896     0.043594001295
    H           -0.659798625081    -1.488322410364    -0.812726703575
    H           -0.657459444941    -1.482936764790     0.934979674880
    H           -2.050951934276     0.585322683551    -0.848518950041
    H           -2.845850786805    -0.678827638479     0.072178184400
    H           -2.040306758278     0.634439029563     0.904469745107

  Mulliken Charges: (a.u.)
   Center  Symbol    Alpha    Beta     Spin     Total
       1     H     0.38039  0.38039  0.00000  0.23922
       2     O     4.16261  4.16261  0.00000 -0.32522
       3     C     2.80330  2.80330  0.00000  0.39340
       4     C     3.09076  3.09076  0.00000 -0.18151
       5     O     4.19313  4.19313  0.00000 -0.38626
       6     C     3.14687  3.14687  0.00000 -0.29374
       7     H     0.44568  0.44568  0.00000  0.10864
       8     H     0.43474  0.43474  0.00000  0.13051
       9     H     0.44484  0.44484  0.00000  0.11032
      10     H     0.44749  0.44749  0.00000  0.10502
      11     H     0.45019  0.45019  0.00000  0.09962

   Total alpha = 20.00000, Total beta = 20.00000, Total charge = -0.00000

*** Psi4 exiting successfully. Buy a developer a beer!
