  ==> Input File <==

--------------------------------------------------------------------------
set {
	reference rhf
	basis 6-31G*
}

set_num_threads( 4 )
memory 2 gb

molecule MOL {
0 1

H	 1.666915	 -5.421343	 -0.083811
O	 2.523165	 -5.198637	 -0.418937
C	 2.389797	 -4.372826	 -1.547788
C	 1.948030	 -2.954130	 -1.205928
H	 3.367180	 -4.349338	 -2.012379
H	 1.701356	 -4.817097	 -2.265738
C	 0.551881	 -2.869825	 -0.584215
H	 2.676962	 -2.520302	 -0.526355
H	 1.973667	 -2.361740	 -2.119046
C	 0.115918	 -1.429151	 -0.302766
H	 0.537621	 -3.440385	 0.340244
H	 -0.171031	 -3.337588	 -1.252748
C	 -1.309753	 -1.282496	 0.241564
H	 0.816106	 -0.973036	 0.394761
H	 0.192523	 -0.857866	 -1.225514
C	 -2.037799	 -0.007733	 -0.193645
H	 -1.890610	 -2.142323	 -0.085726
H	 -1.285946	 -1.330893	 1.329189
C	 -3.489788	 0.042957	 0.286558
H	 -2.017067	 0.064384	 -1.280144
H	 -1.513726	 0.868678	 0.179924
C	 -4.216917	 1.317354	 -0.141063
H	 -4.025645	 -0.823308	 -0.095450
H	 -3.513059	 -0.038752	 1.371301
H	 -4.239342	 1.411634	 -1.223113
H	 -5.243387	 1.322503	 0.212445
H	 -3.726170	 2.201406	 0.256408

	symmetry c1
}
set optking {
	frozen_dihedral = ("
		14 10 13 16
	")
}

ee = optimize('scf')
oeprop('DIPOLE', 'QUADRUPOLE', 'MULLIKEN_CHARGES')
f=open( 'psi4out.xyz', 'w' )
f.write( "27  " )
f.write( str(ee) + "\n" )
f.write( MOL.save_string_xyz() )
f.close()
--------------------------------------------------------------------------

    Molecular point group: c1
  Charge       = 0
  Multiplicity = 1
  Basis Set: 6-31G*
  Basis Set:
  @DF-RHF Final Energy:  -388.27985926500611
    Total Energy =                       -388.2798592650062801
    Molecular point group: c1
  Basis Set: 6-31G*
  Basis Set:
  Basis Set: 6-31G*
  Basis Set:
  @DF-RHF Final Energy:  -388.28059844241784
    Total Energy =                       -388.2805984424184089
  Basis Set: 6-31G*
  Basis Set:
  Basis Set: 6-31G*
  Basis Set:
  @DF-RHF Final Energy:  -388.28064742497764
    Total Energy =                       -388.2806474249772464
  Basis Set: 6-31G*
  Basis Set:
  Basis Set: 6-31G*
  Basis Set:
  @DF-RHF Final Energy:  -388.28065395768743
    Total Energy =                       -388.2806539576873774
  Basis Set: 6-31G*
  Basis Set:
  Basis Set: 6-31G*
  Basis Set:
  @DF-RHF Final Energy:  -388.28066410966153
    Total Energy =                       -388.2806641096611884
  Basis Set: 6-31G*
  Basis Set:
  Charge       = 0
  Multiplicity = 1
  Basis Set: 6-31G*
  Basis Set:

    Orbital Energies (a.u.)
    -----------------------

    Doubly Occupied:

       1A    -20.552119     2A    -11.267005     3A    -11.220388
       4A    -11.216994     5A    -11.215766     6A    -11.215360
       7A    -11.215160     8A    -11.214374     9A    -11.209198
      10A     -1.358915    11A     -1.094338    12A     -1.062634
      13A     -1.011345    14A     -0.950538    15A     -0.882359
      16A     -0.820463    17A     -0.792198    18A     -0.790074
      19A     -0.693987    20A     -0.656981    21A     -0.632967
      22A     -0.615379    23A     -0.602984    24A     -0.584466
      25A     -0.576303    26A     -0.555441    27A     -0.533711
      28A     -0.524624    29A     -0.508479    30A     -0.497751
      31A     -0.478346    32A     -0.474889    33A     -0.469974
      34A     -0.462527    35A     -0.458649    36A     -0.442294
      37A     -0.420003

  @DF-RHF Final Energy:  -388.28066486888514

   => Energetics <=

    Nuclear Repulsion Energy =            451.4603464341886934
    One-Electron Energy =               -1420.9240491612420101
    Two-Electron Energy =                 581.1830378581682908
    DFT Exchange-Correlation Energy =       0.0000000000000000
    Empirical Dispersion Energy =           0.0000000000000000
    PCM Polarization Energy =               0.0000000000000000
    EFP Energy =                            0.0000000000000000
    Total Energy =                       -388.2806648688849691
    Molecular point group: c1
  Basis Set: 6-31G*
  Basis Set:

  -Total Gradient:
     Atom            X                  Y                   Z
    ------   -----------------  -----------------  -----------------
       1        0.000007224965     0.000001497929    -0.000008668277
       2        0.000039266708    -0.000033480827     0.000014267532
       3       -0.000079630052     0.000004545048     0.000025245393
       4        0.000061919468     0.000033971969     0.000059727973
       5       -0.000012160071     0.000006081220     0.000009754490
       6        0.000000791161    -0.000007939379    -0.000012903218
       7        0.000081961299    -0.000000113048    -0.000001108407
       8        0.000026515015     0.000022451805    -0.000003211685
       9       -0.000015762754     0.000000039736     0.000011922582
      10       -0.001032308124     0.003750175701    -0.003385269518
      11        0.000032081012     0.000006954532    -0.000037901975
      12       -0.000037039842     0.000078995378    -0.000022230278
      13        0.001511384861     0.001174513763     0.003852542811
      14        0.000519983486    -0.003704666791     0.001790246230
      15        0.000056343087     0.000014556543    -0.000013561458
      16       -0.001126377576    -0.001397689375    -0.002429484753
      17       -0.000006743194     0.000050443272     0.000047642637
      18       -0.000072833185     0.000052901742     0.000038341081
      19        0.000021420727     0.000023651557     0.000069010318
      20        0.000041942965    -0.000003066456    -0.000035711026
      21       -0.000052308293    -0.000048072865     0.000042144496
      22        0.000018402540    -0.000028019021    -0.000041175828
      23        0.000016804312     0.000002963222     0.000013808774
      24       -0.000009571052     0.000007730762     0.000021092449
      25        0.000008590175     0.000015423195    -0.000009295770
      26        0.000006112519    -0.000024096244    -0.000010192166
      27       -0.000006010155     0.000000246630     0.000014967590

  **** Optimization is complete! (in 6 steps) ****
    Final optimized geometry and variables:
    Molecular point group: c1

    Geometry (in Angstrom), charge = 0, multiplicity = 1:

    H            1.935254010677    -3.508835611513     0.332401897054
    O            2.823077903635    -3.302726318379     0.078460190895
    C            2.810007778203    -2.459269223134    -1.044978379801
    C            2.358682638194    -1.038564656164    -0.724411277144
    H            3.827523805733    -2.445358217006    -1.413810308983
    H            2.186715290183    -2.882175522481    -1.832054461965
    C            0.911314792651    -0.940823791954    -0.238154658187
    H            3.026058628476    -0.625802971410     0.027614375386
    H            2.479190123123    -0.433579138980    -1.621703489018
    C            0.457569573722     0.499762783602     0.015835104109
    H            0.796881974659    -1.510611962929     0.682196043941
    H            0.249397239454    -1.399219147906    -0.972464160083
    C           -0.967862998276     0.590527335205     0.585310770282
    H            1.156646737954     0.948984829639     0.717342927247
    H            0.528086588836     1.063673995275    -0.911168330913
    C           -1.705028549541     1.870277235372     0.185447075094
    H           -1.550233389673    -0.259561418631     0.233596943881
    H           -0.935845911820     0.503783505755     1.668805659192
    C           -3.107594145368     1.975338110349     0.786113204765
    H           -1.773631921779     1.913572461205    -0.900118794094
    H           -1.120033057569     2.737971675478     0.487569044260
    C           -3.845884891362     3.244520392223     0.362103500834
    H           -3.690441845962     1.104359086941     0.493379029656
    H           -3.037852585899     1.944192957773     1.871374197915
    H           -3.960212915675     3.289666353826    -0.717342559866
    H           -4.837653904723     3.288515426796     0.801489115014
    H           -3.306381403169     4.134494341455     0.673711841261

  Mulliken Charges: (a.u.)
   Center  Symbol    Alpha    Beta     Spin     Total
       1     H     0.27986  0.27986  0.00000  0.44027
       2     O     4.37100  4.37100  0.00000 -0.74201
       3     C     2.99720  2.99720  0.00000  0.00559
       4     C     3.16172  3.16172  0.00000 -0.32345
       5     H     0.41444  0.41444  0.00000  0.17111
       6     H     0.43206  0.43206  0.00000  0.13589
       7     C     3.16322  3.16322  0.00000 -0.32645
       8     H     0.41505  0.41505  0.00000  0.16991
       9     H     0.42421  0.42421  0.00000  0.15158
      10     C     3.15165  3.15165  0.00000 -0.30330
      11     H     0.42493  0.42493  0.00000  0.15014
      12     H     0.42486  0.42486  0.00000  0.15028
      13     C     3.15373  3.15373  0.00000 -0.30746
      14     H     0.42005  0.42005  0.00000  0.15991
      15     H     0.42133  0.42133  0.00000  0.15733
      16     C     3.15183  3.15183  0.00000 -0.30365
      17     H     0.42411  0.42411  0.00000  0.15178
      18     H     0.42091  0.42091  0.00000  0.15817
      19     C     3.15191  3.15191  0.00000 -0.30381
      20     H     0.42402  0.42402  0.00000  0.15196
      21     H     0.42353  0.42353  0.00000  0.15294
      22     C     3.23923  3.23923  0.00000 -0.47845
      23     H     0.42344  0.42344  0.00000  0.15313
      24     H     0.42285  0.42285  0.00000  0.15430
      25     H     0.42196  0.42196  0.00000  0.15608
      26     H     0.41929  0.41929  0.00000  0.16141
      27     H     0.42161  0.42161  0.00000  0.15678

   Total alpha = 37.00000, Total beta = 37.00000, Total charge = -0.00000
