  ==> Input File <==

--------------------------------------------------------------------------
set {
	reference rhf
	basis 6-31G*
}

set_num_threads( 4 )
memory 2 gb

molecule MOL {
0 1

H	 -3.161837	 0.500524	 -0.000234
C	 -2.367097	 -0.232926	 -0.000000
O	 -1.158440	 0.455814	 -0.000122
H	 -2.468853	 -0.861886	 -0.882833
H	 -2.468942	 -0.861421	 0.883154
C	 -0.029776	 -0.365156	 0.000148
C	 -0.422543	 -1.738645	 -0.515530
H	 0.378369	 -0.441882	 1.008825
H	 0.749044	 0.067195	 -0.629471
C	 0.757089	 -2.709299	 -0.549894
H	 -1.212573	 -2.130984	 0.117387
H	 -0.844445	 -1.625542	 -1.509464
H	 1.179144	 -2.855524	 0.440516
H	 0.448649	 -3.680514	 -0.921985
H	 1.550323	 -2.346134	 -1.197424

	symmetry c1
}
set optking {
	frozen_dihedral = ("
		8 6 3 2
	")
}

ee = optimize('scf')
oeprop('DIPOLE', 'QUADRUPOLE', 'MULLIKEN_CHARGES')
f=open( 'psi4out.xyz', 'w' )
f.write( "15  " )
f.write( str(ee) + "\n" )
f.write( MOL.save_string_xyz() )
f.close()
--------------------------------------------------------------------------

    Molecular point group: c1
  Charge       = 0
  Multiplicity = 1
  Basis Set: 6-31G*
  Basis Set:
  @DF-RHF Final Energy:  -232.11545333943906
    Total Energy =                       -232.1154533394393411
    Molecular point group: c1
  Basis Set: 6-31G*
  Basis Set:
  Basis Set: 6-31G*
  Basis Set:
  @DF-RHF Final Energy:  -232.11807650465801
    Total Energy =                       -232.1180765046578927
  Basis Set: 6-31G*
  Basis Set:
  Basis Set: 6-31G*
  Basis Set:
  @DF-RHF Final Energy:  -232.12586009689949
    Total Energy =                       -232.1258600968994301
  Basis Set: 6-31G*
  Basis Set:
  Basis Set: 6-31G*
  Basis Set:
  @DF-RHF Final Energy:  -232.12922944666764
    Total Energy =                       -232.1292294466677504
  Basis Set: 6-31G*
  Basis Set:
  @DF-RHF Final Energy:  -232.12986088323902
    Total Energy =                       -232.1298608832391324
  Basis Set: 6-31G*
  Basis Set:
  @DF-RHF Final Energy:  -232.13042252664746
    Total Energy =                       -232.1304225266473509
  Basis Set: 6-31G*
  Basis Set:
  Basis Set: 6-31G*
  Basis Set:
  @DF-RHF Final Energy:  -232.13052143211087
    Total Energy =                       -232.1305214321108679
  Basis Set: 6-31G*
  Basis Set:
  Basis Set: 6-31G*
  Basis Set:
  @DF-RHF Final Energy:  -232.13052944278991
    Total Energy =                       -232.1305294427898502
  Basis Set: 6-31G*
  Basis Set:
  Charge       = 0
  Multiplicity = 1
  Basis Set: 6-31G*
  Basis Set:

    Orbital Energies (a.u.)
    -----------------------

    Doubly Occupied:

       1A    -20.547689     2A    -11.265944     3A    -11.262358
       4A    -11.223025     5A    -11.218187     6A     -1.368063
       7A     -1.059944     8A     -0.962084     9A     -0.886753
      10A     -0.798807    11A     -0.670343    12A     -0.659410
      13A     -0.626627    14A     -0.606599    15A     -0.559706
      16A     -0.540410    17A     -0.524556    18A     -0.500855
      19A     -0.492073    20A     -0.443907    21A     -0.402685

  @DF-RHF Final Energy:  -232.13053021428485

   => Energetics <=

    Nuclear Repulsion Energy =            192.0183564407767847
    One-Electron Energy =                -695.0577261600518568
    Two-Electron Energy =                 270.9088395049903397
    DFT Exchange-Correlation Energy =       0.0000000000000000
    Empirical Dispersion Energy =           0.0000000000000000
    PCM Polarization Energy =               0.0000000000000000
    EFP Energy =                            0.0000000000000000
    Total Energy =                       -232.1305302142847609
    Molecular point group: c1
  Basis Set: 6-31G*
  Basis Set:

  -Total Gradient:
     Atom            X                  Y                   Z
    ------   -----------------  -----------------  -----------------
       1       -0.000004257247    -0.000003564530    -0.000001496817
       2       -0.000142631110    -0.000181386413    -0.004219430922
       3        0.000988034306     0.001186265356     0.006016263873
       4       -0.000008315534     0.000007612581     0.000015432890
       5        0.000000456783    -0.000000678188     0.000000474728
       6       -0.003921706759    -0.004708819994    -0.000682075820
       7        0.000012362860    -0.000009850562    -0.000048083728
       8        0.003098152979     0.003715496091    -0.001095144509
       9       -0.000009928794     0.000003890001     0.000003399598
      10       -0.000020207776    -0.000001272790     0.000017557454
      11       -0.000006652404     0.000000827002    -0.000003335663
      12        0.000009668131    -0.000006924649    -0.000002619748
      13        0.000008668717     0.000005442161    -0.000001569009
      14       -0.000001647494    -0.000001766612     0.000009319698
      15       -0.000001996656    -0.000005269452    -0.000008692026

  **** Optimization is complete! (in 9 steps) ****
    Final optimized geometry and variables:
    Molecular point group: c1

    Geometry (in Angstrom), charge = 0, multiplicity = 1:

    H           -2.466477042023     1.740636625934     0.284342890776
    C           -1.819738865131     0.874062348655     0.255569920211
    O           -0.514551271749     1.356575354959     0.196844635743
    H           -2.082371360786     0.278732525791    -0.613079721462
    H           -2.001743088293     0.281835059191     1.150447354980
    C            0.559592944179     0.450635886477     0.202468116267
    C            0.293607584543    -0.951812249726    -0.335240313313
    H            0.973736839113     0.402623472910     1.208816023125
    H            1.326342803750     0.913501663668    -0.410167081355
    C            1.576406423504    -1.784516797860    -0.343463295275
    H           -0.455736038538    -1.457882625414     0.265431023431
    H           -0.101505925648    -0.883412472178    -1.344817430493
    H            1.988493689824    -1.883065588091     0.656613733603
    H            1.386843506835    -2.783236086321    -0.721935790050
    H            2.337123866398    -1.331521652666    -0.972291054931

  Mulliken Charges: (a.u.)
   Center  Symbol    Alpha    Beta     Spin     Total
       1     H     0.41215  0.41215  0.00000  0.17570
       2     C     3.07888  3.07888  0.00000 -0.15776
       3     O     4.31548  4.31548  0.00000 -0.63095
       4     H     0.42857  0.42857  0.00000  0.14287
       5     H     0.43170  0.43170  0.00000  0.13660
       6     C     2.97061  2.97061  0.00000  0.05878
       7     C     3.18112  3.18112  0.00000 -0.36224
       8     H     0.42988  0.42988  0.00000  0.14024
       9     H     0.42089  0.42089  0.00000  0.15821
      10     C     3.24520  3.24520  0.00000 -0.49040
      11     H     0.41784  0.41784  0.00000  0.16433
      12     H     0.41543  0.41543  0.00000  0.16915
      13     H     0.41881  0.41881  0.00000  0.16239
      14     H     0.41508  0.41508  0.00000  0.16984
      15     H     0.41838  0.41838  0.00000  0.16324

   Total alpha = 21.00000, Total beta = 21.00000, Total charge = -0.00000
