  ==> Input File <==

--------------------------------------------------------------------------
set {
	reference rhf
	basis cc-pvtz
}

set_num_threads( 4 )
memory 2 gb

molecule MOL {
0 1

O	 2.116945	 1.809225	 -0.188707
C	 0.975855	 1.448955	 -0.241986
C	 -0.129575	 2.463612	 -0.450138
N	 0.622280	 0.144970	 -0.099307
H	 -0.836294	 2.450960	 0.370066
H	 0.331755	 3.435371	 -0.508043
H	 -0.673898	 2.271666	 -1.366567
C	 1.664396	 -0.854993	 0.000772
C	 -0.699754	 -0.366667	 -0.371717
H	 2.462727	 -0.615153	 -0.690869
H	 1.261798	 -1.821849	 -0.240651
H	 2.081615	 -0.891605	 1.003877
H	 -0.903896	 -1.196586	 0.292508
H	 -1.458005	 0.378741	 -0.203434
H	 -0.792856	 -0.727527	 -1.393557

	symmetry c1
}
set optking {
	frozen_dihedral = ("
		2 4 8 10
	")
}

ee = optimize('scf')
oeprop('DIPOLE', 'QUADRUPOLE', 'MULLIKEN_CHARGES')
f=open( 'psi4out.xyz', 'w' )
f.write( "15  " )
f.write( str(ee) + "\n" )
f.write( MOL.save_string_xyz() )
f.close()
--------------------------------------------------------------------------

    Molecular point group: c1
  Charge       = 0
  Multiplicity = 1
  Basis Set: CC-PVTZ
  Basis Set:
  @DF-RHF Final Energy:  -286.13380493346517
    Total Energy =                       -286.1338049334651714
    Molecular point group: c1
  Basis Set: CC-PVTZ
  Basis Set:
  Basis Set: CC-PVTZ
  Basis Set:
  @DF-RHF Final Energy:  -286.13436070552802
    Total Energy =                       -286.1343607055280245
  Basis Set: CC-PVTZ
  Basis Set:
  Basis Set: CC-PVTZ
  Basis Set:
  @DF-RHF Final Energy:  -286.13450918590394
    Total Energy =                       -286.1345091859037097
  Basis Set: CC-PVTZ
  Basis Set:
  Basis Set: CC-PVTZ
  Basis Set:
  @DF-RHF Final Energy:  -286.13459118696227
    Total Energy =                       -286.1345911869622114
  Basis Set: CC-PVTZ
  Basis Set:
  @DF-RHF Final Energy:  -286.13481773390754
    Total Energy =                       -286.1348177339072549
  @DF-RHF Final Energy:  -286.13498373198024
    Total Energy =                       -286.1349837319804692
  @DF-RHF Final Energy:  -286.13512478201392
    Total Energy =                       -286.1351247820141452
  @DF-RHF Final Energy:  -286.13525135220095
    Total Energy =                       -286.1352513522010099
  @DF-RHF Final Energy:  -286.13536946115812
    Total Energy =                       -286.1353694611580067
  @DF-RHF Final Energy:  -286.13544994131075
    Total Energy =                       -286.1354499413106964
  Basis Set: CC-PVTZ
  Basis Set:
  @DF-RHF Final Energy:  -286.13548798359221
    Total Energy =                       -286.1354879835919292
  Basis Set: CC-PVTZ
  Basis Set:
  Basis Set: CC-PVTZ
  Basis Set:
  @DF-RHF Final Energy:  -286.13548777787548
    Total Energy =                       -286.1354877778758805
  Basis Set: CC-PVTZ
  Basis Set:
  Basis Set: CC-PVTZ
  Basis Set:
  @DF-RHF Final Energy:  -286.13549593586970
    Total Energy =                       -286.1354959358700398
  Basis Set: CC-PVTZ
  Basis Set:
  Charge       = 0
  Multiplicity = 1
  Basis Set: CC-PVTZ
  Basis Set:

    Orbital Energies (a.u.)
    -----------------------

    Doubly Occupied:

       1A    -20.504930     2A    -15.577805     3A    -11.334255
       4A    -11.263968     5A    -11.246697     6A    -11.226611
       7A     -1.388360     8A     -1.245370     9A     -1.014892
      10A     -0.973210    11A     -0.919779    12A     -0.738587
      13A     -0.682659    14A     -0.661189    15A     -0.653796
      16A     -0.589762    17A     -0.578245    18A     -0.568977
      19A     -0.563113    20A     -0.547494    21A     -0.530335
      22A     -0.505016    23A     -0.414817    24A     -0.371365

  @DF-RHF Final Energy:  -286.13549602951343

   => Energetics <=

    Nuclear Repulsion Energy =            253.0502884448252701
    One-Electron Energy =                -890.1691123811413036
    Two-Electron Energy =                 350.9833279068028560
    DFT Exchange-Correlation Energy =       0.0000000000000000
    Empirical Dispersion Energy =           0.0000000000000000
    PCM Polarization Energy =               0.0000000000000000
    EFP Energy =                            0.0000000000000000
    Total Energy =                       -286.1354960295132059
    Molecular point group: c1
  Basis Set: CC-PVTZ
  Basis Set:

  -Total Gradient:
     Atom            X                  Y                   Z
    ------   -----------------  -----------------  -----------------
       1       -0.000003244703    -0.000000120157    -0.000003614790
       2       -0.000126311368     0.000000426489     0.000406966824
       3       -0.000000903142     0.000014872520     0.000011745178
       4        0.000130800677    -0.000027497268    -0.000681054278
       5        0.000001147994    -0.000002219052    -0.000006910878
       6       -0.000001764734     0.000000533211    -0.000001817188
       7        0.000000905291     0.000005291562    -0.000004592998
       8        0.000090380302     0.000232398197     0.000699240534
       9        0.000014015408     0.000019617786     0.000008494481
      10       -0.000106297834    -0.000232475861    -0.000437379669
      11        0.000010181395     0.000001348972     0.000009486176
      12       -0.000011441262     0.000006695341     0.000001082487
      13       -0.000003203553    -0.000005332960     0.000004878826
      14       -0.000000785215    -0.000010361550    -0.000000899484
      15        0.000006520745    -0.000003177231    -0.000005625221

  **** Optimization is complete! (in 14 steps) ****
    Final optimized geometry and variables:
    Molecular point group: c1

    Geometry (in Angstrom), charge = 0, multiplicity = 1:

    O            1.343897287719     1.030183961387     0.197306756108
    C            0.215780775382     0.681332394882    -0.001941630229
    C           -0.885016085659     1.710993532076    -0.147659571996
    N           -0.112751612215    -0.631482407449    -0.128731797774
    H           -1.611992331703     1.621786079230     0.650439730361
    H           -0.425332725480     2.684162540145    -0.099231805890
    H           -1.405565428789     1.605107231133    -1.090900794306
    C            0.927169585938    -1.609509990294     0.120755062220
    C           -1.468431951941    -1.125807601719    -0.068535372822
    H            1.860007152093    -1.267343400402    -0.292827176167
    H            0.651116490939    -2.542587566611    -0.351697900011
    H            1.067676392304    -1.788249740402     1.183119242537
    H           -1.757321102886    -1.400823443155     0.943569907431
    H           -2.170891355834    -0.397081994274    -0.435128005315
    H           -1.556523442073    -2.006756005821    -0.690594920924

  Mulliken Charges: (a.u.)
   Center  Symbol    Alpha    Beta     Spin     Total
       1     O     4.21903  4.21903  0.00000 -0.43807
       2     C     2.84490  2.84490  0.00000  0.31021
       3     C     3.16065  3.16065  0.00000 -0.32130
       4     N     3.56447  3.56447  0.00000 -0.12893
       5     H     0.44895  0.44895  0.00000  0.10209
       6     H     0.42873  0.42873  0.00000  0.14254
       7     H     0.44878  0.44878  0.00000  0.10244
       8     C     3.09395  3.09395  0.00000 -0.18789
       9     C     3.09600  3.09600  0.00000 -0.19201
      10     H     0.43131  0.43131  0.00000  0.13738
      11     H     0.45774  0.45774  0.00000  0.08452
      12     H     0.45572  0.45572  0.00000  0.08857
      13     H     0.45572  0.45572  0.00000  0.08856
      14     H     0.44546  0.44546  0.00000  0.10909
      15     H     0.44860  0.44860  0.00000  0.10281

   Total alpha = 24.00000, Total beta = 24.00000, Total charge =  0.00000
