                              Psi4 1.0.54 Driver

  ==> Input File <==

--------------------------------------------------------------------------
set {
	reference rhf
	basis cc-pvtz
}

set_num_threads( 4 )
memory 2 gb

molecule MOL {
0 1

H	 -3.436473	 1.252944	 -1.023892
O	 -3.458596	 0.315260	 -0.960865
C	 -3.176635	 -0.080824	 0.355601
C	 -1.763371	 0.265266	 0.799691
H	 -3.321825	 -1.153438	 0.379502
H	 -3.895468	 0.357385	 1.043382
C	 -1.697178	 0.988260	 2.141787
H	 -1.173486	 -0.648966	 0.845296
H	 -1.308352	 0.881065	 0.027591
C	 -0.270661	 1.298371	 2.587714
H	 -2.191809	 0.386891	 2.896511
H	 -2.262258	 1.914741	 2.072339
C	 -0.211662	 2.026443	 3.929161
H	 0.290109	 0.370363	 2.644512
H	 0.220516	 1.905746	 1.830286
C	 1.192670	 2.431001	 4.380862
H	 -0.668062	 1.403797	 4.695230
H	 -0.823345	 2.922151	 3.864578
C	 2.120590	 1.262454	 4.704289
H	 1.101935	 3.056624	 5.263550
H	 1.650077	 3.052838	 3.615670
H	 1.686266	 0.619251	 5.463057
H	 3.072035	 1.620079	 5.081247
H	 2.325252	 0.653192	 3.832211

	symmetry c1
}
set optking {
	frozen_dihedral = ("
		7 4 3 2
	")
}

ee,wfn = optimize('scf', return_wfn=True)
oeprop( wfn, 'DIPOLE', 'QUADRUPOLE', 'MULLIKEN_CHARGES')
f=open( 'psi4out.xyz', 'w' )
f.write( "24  " )
f.write( str(ee) + "\n" )
f.write( MOL.save_string_xyz() )
f.close()
--------------------------------------------------------------------------

    Molecular point group: c1
  Charge       = 0
  Multiplicity = 1
  Basis Set: CC-PVTZ
  Basis Set:
  @DF-RHF Final Energy:  -349.37429159840843
    Total Energy =                       -349.3742915984086039
    Molecular point group: c1
  Basis Set: CC-PVTZ
  Basis Set:
  Basis Set: CC-PVTZ
  Basis Set:
  @DF-RHF Final Energy:  -349.37455028314486
    Total Energy =                       -349.3745502831443446
  Basis Set: CC-PVTZ
  Basis Set:
  Basis Set: CC-PVTZ
  Basis Set:
  @DF-RHF Final Energy:  -349.37460077973623
    Total Energy =                       -349.3746007797363973
  Basis Set: CC-PVTZ
  Basis Set:
  Charge       = 0
  Multiplicity = 1
  Basis Set: CC-PVTZ
  Basis Set:

    Orbital Energies (a.u.)
    -----------------------

    Doubly Occupied:

       1A    -20.544608     2A    -11.264963     3A    -11.217336
       4A    -11.214782     5A    -11.213898     6A    -11.213831
       7A    -11.213130     8A    -11.207253     9A     -1.362433
      10A     -1.093607    11A     -1.051185    12A     -0.986404
      13A     -0.916158    14A     -0.853267    15A     -0.804697
      16A     -0.780189    17A     -0.689775    18A     -0.657485
      19A     -0.623970    20A     -0.614847    21A     -0.599792
      22A     -0.586771    23A     -0.557913    24A     -0.541840
      25A     -0.532900    26A     -0.508778    27A     -0.492274
      28A     -0.485739    29A     -0.473760    30A     -0.462305
      31A     -0.456758    32A     -0.444596    33A     -0.424398

  @DF-RHF Final Energy:  -349.37460129427103

   => Energetics <=

    Nuclear Repulsion Energy =            380.7350849473627363
    One-Electron Energy =               -1228.0360907440683604
    Two-Electron Energy =                 497.9264045024345364
    DFT Exchange-Correlation Energy =       0.0000000000000000
    Empirical Dispersion Energy =           0.0000000000000000
    PCM Polarization Energy =               0.0000000000000000
    EFP Energy =                            0.0000000000000000
    Total Energy =                       -349.3746012942710308
    Molecular point group: c1
  Basis Set: CC-PVTZ
  Basis Set:

  -Total Gradient:
     Atom            X                  Y                   Z
    ------   -----------------  -----------------  -----------------
       1        0.000005320476    -0.000029102311     0.000054603321
       2       -0.000534506819     0.001473640640     0.000499772838
       3        0.000717136403    -0.001419806503    -0.001035342684
       4       -0.000080608543    -0.001412029424     0.001222773268
       5        0.000000592869     0.000025537843    -0.000043890335
       6        0.000001806787     0.000000164572     0.000015619187
       7       -0.000092177946     0.001361380935    -0.000740289597
       8       -0.000012000957     0.000013083553     0.000014749679
       9       -0.000014264043    -0.000006001785    -0.000005892634
      10        0.000000265613    -0.000004280613    -0.000008905635
      11       -0.000009313678    -0.000019260315     0.000014803899
      12       -0.000011843303    -0.000016341289     0.000006285149
      13        0.000015702570     0.000012479901    -0.000011180729
      14       -0.000024638520     0.000011456360     0.000004431853
      15        0.000022257598    -0.000001830616     0.000003538766
      16       -0.000000164933     0.000011296207    -0.000007216819
      17        0.000007895212    -0.000010177309    -0.000011344949
      18       -0.000006403200     0.000001796455     0.000010826967
      19        0.000004010622    -0.000000553029     0.000003594730
      20        0.000005608385     0.000007009609    -0.000000351820
      21        0.000002430547    -0.000004448446    -0.000000661325
      22       -0.000000457012    -0.000003221394     0.000000819791
      23       -0.000003899915     0.000001053889     0.000002272078
      24        0.000007251780     0.000008153073     0.000010985005

  **** Optimization is complete! (in 4 steps) ****
    Final optimized geometry and variables:
    Molecular point group: c1

    Geometry (in Angstrom), charge = 0, multiplicity = 1:

    H           -2.473772353397     0.201646234041    -3.222245233658
    O           -2.526418180965    -0.733995879648    -3.152355827129
    C           -2.250268518336    -1.128804821664    -1.834209390029
    C           -0.817012235443    -0.803403966782    -1.382185568828
    H           -2.428426652768    -2.194269822556    -1.805802587460
    H           -2.964783287673    -0.669208384612    -1.155704341223
    C           -0.746810679028    -0.076925482195    -0.040977289856
    H           -0.225995837708    -1.712034452027    -1.336673103799
    H           -0.355661389498    -0.186512538048    -2.147156350917
    C            0.678820003652     0.239315508794     0.401962481542
    H           -1.233472393610    -0.678944157192     0.723277539688
    H           -1.318020168711     0.846496078345    -0.105700511765
    C            0.739798565371     0.977218553509     1.738028610866
    H            1.241242780152    -0.686959561785     0.462571672994
    H            1.165287929093     0.841965883732    -0.361930374909
    C            2.144471322049     1.390514433034     2.180894680504
    H            0.289579057861     0.358223221699     2.510852577897
    H            0.124406419161     1.870258919806     1.669846660417
    C            3.078248204045     0.227956269753     2.508912753126
    H            2.054762227205     2.022271259769     3.059265333873
    H            2.595997843933     2.008531043688     1.409229085698
    H            2.649008032453    -0.412417296393     3.272937990678
    H            4.028990000789     0.592257961702     2.880980681899
    H            3.283406046450    -0.385755624794     1.640157876144

  Mulliken Charges: (a.u.)
   Center  Symbol    Alpha    Beta     Spin     Total
       1     H     0.39515  0.39515  0.00000  0.20971
       2     O     4.20178  4.20178  0.00000 -0.40356
       3     C     2.97190  2.97190  0.00000  0.05620
       4     C     3.10229  3.10229  0.00000 -0.20457
       5     H     0.45338  0.45338  0.00000  0.09324
       6     H     0.46999  0.46999  0.00000  0.06002
       7     C     3.09637  3.09637  0.00000 -0.19275
       8     H     0.45112  0.45112  0.00000  0.09776
       9     H     0.45158  0.45158  0.00000  0.09683
      10     C     3.09302  3.09302  0.00000 -0.18605
      11     H     0.45268  0.45268  0.00000  0.09463
      12     H     0.45561  0.45561  0.00000  0.08878
      13     C     3.09446  3.09446  0.00000 -0.18893
      14     H     0.45156  0.45156  0.00000  0.09688
      15     H     0.45419  0.45419  0.00000  0.09162
      16     C     3.09040  3.09040  0.00000 -0.18080
      17     H     0.45393  0.45393  0.00000  0.09214
      18     H     0.45011  0.45011  0.00000  0.09979
      19     C     3.15253  3.15253  0.00000 -0.30506
      20     H     0.44840  0.44840  0.00000  0.10320
      21     H     0.45481  0.45481  0.00000  0.09037
      22     H     0.45488  0.45488  0.00000  0.09024
      23     H     0.44625  0.44625  0.00000  0.10750
      24     H     0.45359  0.45359  0.00000  0.09281

   Total alpha = 33.00000, Total beta = 33.00000, Total charge = -0.00000

*** Psi4 exiting successfully. Buy a developer a beer!
