                              Psi4 1.0.54 Driver

  ==> Input File <==

--------------------------------------------------------------------------
set {
	reference rhf
	basis cc-pvtz
}

set_num_threads( 4 )
memory 2 gb

molecule MOL {
0 1

H	 2.399868	 3.049515	 0.391983
O	 1.460697	 3.018029	 0.411770
C	 1.008063	 1.765776	 0.205732
C	 1.863004	 0.694430	 -0.003970
C	 -0.357495	 1.567618	 0.207949
H	 2.926508	 0.850590	 -0.005377
C	 1.351432	 -0.570690	 -0.210664
H	 -1.020403	 2.393002	 0.369621
C	 -0.861704	 0.296439	 0.000000
H	 2.022496	 -1.391980	 -0.371842
C	 -0.013376	 -0.777377	 -0.209954
C	 -2.330689	 0.069587	 0.000000
H	 -0.414105	 -1.760006	 -0.370404
O	 -2.848621	 -0.993976	 0.000000
H	 -2.934306	 0.982410	 0.000000

	symmetry c1
}
set optking {
	frozen_dihedral = ("
		11 9 12 14
	")
}

ee,wfn = optimize('scf', return_wfn=True)
oeprop( wfn, 'DIPOLE', 'QUADRUPOLE', 'MULLIKEN_CHARGES')
f=open( 'psi4out.xyz', 'w' )
f.write( "15  " )
f.write( str(ee) + "\n" )
f.write( MOL.save_string_xyz() )
f.close()
--------------------------------------------------------------------------

    Molecular point group: c1
  Charge       = 0
  Multiplicity = 1
  Basis Set: CC-PVTZ
  Basis Set:
  @DF-RHF Final Energy:  -418.43850980606646
    Total Energy =                       -418.4385098060664632
    Molecular point group: c1
  Basis Set: CC-PVTZ
  Basis Set:
  Basis Set: CC-PVTZ
  Basis Set:
  @DF-RHF Final Energy:  -418.43850627237595
    Total Energy =                       -418.4385062723760029
  Basis Set: CC-PVTZ
  Basis Set:
  Basis Set: CC-PVTZ
  Basis Set:
  @DF-RHF Final Energy:  -418.43816253313094
    Total Energy =                       -418.4381625331308214
  Basis Set: CC-PVTZ
  Basis Set:
  Basis Set: CC-PVTZ
  Basis Set:
  @DF-RHF Final Energy:  -418.43884557592406
    Total Energy =                       -418.4388455759237786
  Basis Set: CC-PVTZ
  Basis Set:
  Basis Set: CC-PVTZ
  Basis Set:
  @DF-RHF Final Energy:  -418.43885352684561
    Total Energy =                       -418.4388535268456053
  Basis Set: CC-PVTZ
  Basis Set:
  Charge       = 0
  Multiplicity = 1
  Basis Set: CC-PVTZ
  Basis Set:

    Orbital Energies (a.u.)
    -----------------------

    Doubly Occupied:

       1A    -20.598603     2A    -20.555055     3A    -11.327960
       4A    -11.313448     5A    -11.251255     6A    -11.248941
       7A    -11.246209     8A    -11.244810     9A    -11.236234
      10A     -1.429962    11A     -1.410760    12A     -1.174066
      13A     -1.054186    14A     -1.028465    15A     -0.904375
      16A     -0.849787    17A     -0.817710    18A     -0.741857
      19A     -0.705262    20A     -0.679266    21A     -0.665141
      22A     -0.633120    23A     -0.613768    24A     -0.611270
      25A     -0.582682    26A     -0.556648    27A     -0.540651
      28A     -0.519508    29A     -0.492037    30A     -0.426886
      31A     -0.360735    32A     -0.329454

  @DF-RHF Final Energy:  -418.43885536306391

   => Energetics <=

    Nuclear Repulsion Energy =            403.2664360670063388
    One-Electron Energy =               -1369.1103633099160106
    Two-Electron Energy =                 547.4050718798457638
    DFT Exchange-Correlation Energy =       0.0000000000000000
    Empirical Dispersion Energy =           0.0000000000000000
    PCM Polarization Energy =               0.0000000000000000
    EFP Energy =                            0.0000000000000000
    Total Energy =                       -418.4388553630639080
    Molecular point group: c1
  Basis Set: CC-PVTZ
  Basis Set:

  -Total Gradient:
     Atom            X                  Y                   Z
    ------   -----------------  -----------------  -----------------
       1       -0.000002132641     0.000003198152     0.000001742783
       2        0.000015856438    -0.000035665726    -0.000003123768
       3       -0.000125032550     0.000080310721    -0.000002296951
       4        0.000018770861    -0.000126125874    -0.000024289269
       5        0.000068796128     0.000074871815     0.000036387544
       6       -0.000005741388    -0.000009009772    -0.000001656662
       7        0.000084800261     0.000085341184     0.000026892021
       8        0.000011880433    -0.000023699930    -0.000005717754
       9        0.000067327150    -0.000548472897     0.002869423150
      10       -0.000003173342    -0.000003041331     0.000000758967
      11       -0.000126105642     0.000383915200    -0.001422307265
      12       -0.000090423121     0.000141206039    -0.003203076452
      13        0.000003081843    -0.000015255658    -0.000012417603
      14        0.000027815561     0.000057907642     0.001782687617
      15        0.000054280012    -0.000065479570    -0.000043006358

  **** Optimization is complete! (in 6 steps) ****
    Final optimized geometry and variables:
    Molecular point group: c1

    Geometry (in Angstrom), charge = 0, multiplicity = 1:

    H            2.479205345339     2.464408324926     0.344543761699
    O            1.540272145757     2.421264654760     0.365727021387
    C            1.105328799599     1.163204191751     0.153794237217
    C            1.959821707659     0.102374463624    -0.065708488933
    C           -0.263862593797     0.950691883359     0.156404232458
    H            3.022803502077     0.262014966421    -0.073886476847
    C            1.448376041674    -1.168953482774    -0.279250684060
    H           -0.919297795011     1.784690489962     0.319811734360
    C           -0.762939487904    -0.319277269647    -0.045113295588
    H            2.125180024626    -1.983084976405    -0.453419072554
    C            0.091605238294    -1.390557455620    -0.270239029325
    C           -2.236483617419    -0.517156606354    -0.041445656654
    H           -0.316178014098    -2.367699825903    -0.430440870627
    O           -2.771784895769    -1.571897908994    -0.052714246624
    H           -2.823843524439     0.405783898297    -0.012126778767

  Mulliken Charges: (a.u.)
   Center  Symbol    Alpha    Beta     Spin     Total
       1     H     0.38627  0.38627  0.00000  0.22746
       2     O     4.17224  4.17224  0.00000 -0.34447
       3     C     2.84238  2.84238  0.00000  0.31524
       4     C     3.12916  3.12916  0.00000 -0.25831
       5     C     3.12736  3.12736  0.00000 -0.25472
       6     H     0.43131  0.43131  0.00000  0.13737
       7     C     3.06107  3.06107  0.00000 -0.12214
       8     H     0.41852  0.41852  0.00000  0.16296
       9     C     2.96557  2.96557  0.00000  0.06885
      10     H     0.41858  0.41858  0.00000  0.16284
      11     C     3.10263  3.10263  0.00000 -0.20526
      12     C     2.90954  2.90954  0.00000  0.18092
      13     H     0.40963  0.40963  0.00000  0.18074
      14     O     4.16913  4.16913  0.00000 -0.33827
      15     H     0.45661  0.45661  0.00000  0.08679

   Total alpha = 32.00000, Total beta = 32.00000, Total charge =  0.00000

*** Psi4 exiting successfully. Buy a developer a beer!
