  ==> Input File <==

--------------------------------------------------------------------------
set {
	reference rhf
	basis cc-pvtz
}

set_num_threads( 4 )
memory 2 gb

molecule MOL {
0 1

H	 3.095918	 -0.153717	 0.636860
N	 2.433987	 -0.362316	 -0.080024
C	 1.263552	 0.494993	 0.021953
H	 2.181906	 -1.323209	 0.022331
C	 -0.016533	 -0.325589	 -0.026925
H	 1.280915	 1.180773	 -0.818522
H	 1.263064	 1.106893	 0.925038
C	 -1.280353	 0.525521	 0.047747
H	 -0.016686	 -0.912532	 -0.939714
H	 -0.014099	 -1.037598	 0.796369
C	 -2.560681	 -0.301323	 -0.007747
H	 -1.279957	 1.241025	 -0.770189
H	 -1.270445	 1.110526	 0.963468
H	 -2.617064	 -0.872870	 -0.928010
H	 -3.439525	 0.331102	 0.043462
H	 -2.609427	 -1.002736	 0.818585

	symmetry c1
}
set optking {
	frozen_dihedral = ("
		1 2 3 6
	")
}

ee = optimize('scf')
oeprop('DIPOLE', 'QUADRUPOLE', 'MULLIKEN_CHARGES')
f=open( 'psi4out.xyz', 'w' )
f.write( "16  " )
f.write( str(ee) + "\n" )
f.write( MOL.save_string_xyz() )
f.close()
--------------------------------------------------------------------------

    Molecular point group: c1
  Charge       = 0
  Multiplicity = 1
  Basis Set: CC-PVTZ
  Basis Set:
  @DF-RHF Final Energy:  -212.39622523213322
    Total Energy =                       -212.3962252321332471
    Molecular point group: c1
  Basis Set: CC-PVTZ
  Basis Set:
  Basis Set: CC-PVTZ
  Basis Set:
  @DF-RHF Final Energy:  -212.39661064862622
    Total Energy =                       -212.3966106486261083
  Basis Set: CC-PVTZ
  Basis Set:
  Basis Set: CC-PVTZ
  Basis Set:
  @DF-RHF Final Energy:  -212.39667561654440
    Total Energy =                       -212.3966756165444281
  Basis Set: CC-PVTZ
  Basis Set:
  Basis Set: CC-PVTZ
  Basis Set:
  @DF-RHF Final Energy:  -212.39667742139068
    Total Energy =                       -212.3966774213908479
  Basis Set: CC-PVTZ
  Basis Set:
  Charge       = 0
  Multiplicity = 1
  Basis Set: CC-PVTZ
  Basis Set:

    Orbital Energies (a.u.)
    -----------------------

    Doubly Occupied:

       1A    -15.523760     2A    -11.237806     3A    -11.215955
       4A    -11.213915     5A    -11.208524     6A     -1.175701
       7A     -1.063555     8A     -0.961351     9A     -0.847113
      10A     -0.798049    11A     -0.662473    12A     -0.641256
      13A     -0.598422    14A     -0.582831    15A     -0.569651
      16A     -0.519791    17A     -0.512359    18A     -0.473052
      19A     -0.471603    20A     -0.464152    21A     -0.379364

  @DF-RHF Final Energy:  -212.39667779179928

   => Energetics <=

    Nuclear Repulsion Energy =            186.5841235207131490
    One-Electron Energy =                -655.7202370230540964
    Two-Electron Energy =                 256.7394357105415565
    DFT Exchange-Correlation Energy =       0.0000000000000000
    Empirical Dispersion Energy =           0.0000000000000000
    PCM Polarization Energy =               0.0000000000000000
    EFP Energy =                            0.0000000000000000
    Total Energy =                       -212.3966777917993909
    Molecular point group: c1
  Basis Set: CC-PVTZ
  Basis Set:

  -Total Gradient:
     Atom            X                  Y                   Z
    ------   -----------------  -----------------  -----------------
       1       -0.000600273695    -0.000998486896     0.000854911416
       2        0.000624800766     0.001038696797    -0.001288343730
       3        0.000660105282     0.000816861030     0.001162258865
       4       -0.000005294175    -0.000018939670     0.000003001345
       5        0.000020402983     0.000002613258     0.000006902040
       6       -0.000664250745    -0.000862129113    -0.000732205586
       7       -0.000029642684     0.000006986364    -0.000007284322
       8        0.000009936277     0.000000877730     0.000004166928
       9        0.000006523005     0.000002447502     0.000006000403
      10        0.000008953473     0.000003775668    -0.000006298087
      11       -0.000017857680     0.000006133057    -0.000004664942
      12       -0.000002004869     0.000001760898     0.000006703626
      13       -0.000004006657     0.000000841503     0.000001598834
      14        0.000000328156    -0.000003058437     0.000000170901
      15       -0.000009949342    -0.000004565839    -0.000004108905
      16        0.000002229904     0.000006186148    -0.000002808785

  **** Optimization is complete! (in 5 steps) ****
    Final optimized geometry and variables:
    Molecular point group: c1

    Geometry (in Angstrom), charge = 0, multiplicity = 1:

    H            3.128699672115    -0.147248925270     0.614180062185
    N            2.459939580299    -0.339049216133    -0.098703616967
    C            1.267624954751     0.494619721091     0.038149187032
    H            2.232985396126    -1.307558756271    -0.030353360599
    C           -0.016899243500    -0.322213342216    -0.006982614768
    H            1.245299393241     1.215349733710    -0.773610373134
    H            1.294570518572     1.063491302642     0.963493827207
    C           -1.278533016292     0.534118890145     0.033994557722
    H           -0.017441661322    -0.922163749613    -0.914207486465
    H           -0.024890474493    -1.020406493993     0.827294280895
    C           -2.561277893572    -0.289498855889    -0.012787767714
    H           -1.267195311139     1.229582759719    -0.800214327369
    H           -1.273132055224     1.139854483026     0.936089653695
    H           -2.612965933150    -0.881281776894    -0.920558024048
    H           -3.437769436630     0.347396910065     0.016827886704
    H           -2.619628368330    -0.971608977693     0.828879835665

  Mulliken Charges: (a.u.)
   Center  Symbol    Alpha    Beta     Spin     Total
       1     H     0.42889  0.42889  0.00000  0.14222
       2     N     3.69320  3.69320  0.00000 -0.38639
       3     C     3.01640  3.01640  0.00000 -0.03280
       4     H     0.43018  0.43018  0.00000  0.13964
       5     C     3.08829  3.08829  0.00000 -0.17658
       6     H     0.46343  0.46343  0.00000  0.07313
       7     H     0.46459  0.46459  0.00000  0.07082
       8     C     3.08905  3.08905  0.00000 -0.17811
       9     H     0.45223  0.45223  0.00000  0.09555
      10     H     0.45825  0.45825  0.00000  0.08351
      11     C     3.14913  3.14913  0.00000 -0.29826
      12     H     0.45318  0.45318  0.00000  0.09364
      13     H     0.45512  0.45512  0.00000  0.08977
      14     H     0.45453  0.45453  0.00000  0.09094
      15     H     0.44823  0.44823  0.00000  0.10355
      16     H     0.45531  0.45531  0.00000  0.08937

   Total alpha = 21.00000, Total beta = 21.00000, Total charge = -0.00000
