  ==> Input File <==

--------------------------------------------------------------------------
set {
	reference rhf
	basis 6-31G*
}

set_num_threads( 1 )
memory 2 gb

molecule MOL {
0 1

H	 2.618453	 -1.539848	 0.970078
O	 2.826016	 -1.159218	 0.122261
C	 2.077727	 -0.067559	 -0.035091
C	 0.624473	 -0.343591	 0.253101
O	 2.542965	 0.974826	 -0.363729
C	 -0.265902	 0.883932	 0.072916
H	 0.324016	 -1.163849	 -0.390541
H	 0.565024	 -0.726111	 1.268924
C	 -1.728698	 0.646073	 0.462102
H	 -0.209144	 1.219470	 -0.958188
H	 0.135059	 1.692851	 0.673903
C	 -2.482460	 -0.343073	 -0.431425
H	 -2.245265	 1.602650	 0.432430
H	 -1.779332	 0.308348	 1.496285
C	 -3.960546	 -0.461025	 -0.060175
H	 -2.395034	 -0.026811	 -1.468912
H	 -2.024850	 -1.327147	 -0.371646
H	 -4.472726	 -1.168004	 -0.705284
H	 -4.465146	 0.496508	 -0.151489
H	 -4.081218	 -0.800940	 0.964585

	symmetry c1
}
set optking {
	frozen_dihedral = ("
		16 12 9 6,
		7 4 6 10,
		12 9 6 10,
		5 3 4 7
	")
}

ee = energy('scf')
oeprop('DIPOLE', 'QUADRUPOLE', 'MULLIKEN_CHARGES')
f=open( 'psi4out.xyz', 'w' )
f.write( "20  " )
f.write( str(ee) + "\n" )
f.write( MOL.save_string_xyz() )
f.close()
--------------------------------------------------------------------------

    Molecular point group: c1

    Geometry (in Angstrom), charge = 0, multiplicity = 1:

       Center              X                  Y                   Z               Mass
    ------------   -----------------  -----------------  -----------------  -----------------
           H          2.628098873012    -1.534538507843     0.961043192529     1.007825032070
           O          2.835661873012    -1.153908507843     0.113226192529    15.994914619560
           C          2.087372873012    -0.062249507843    -0.044125807471    12.000000000000
           C          0.634118873012    -0.338281507843     0.244066192529    12.000000000000
           O          2.552610873012     0.980135492157    -0.372763807471    15.994914619560
           C         -0.256256126988     0.889241492157     0.063881192529    12.000000000000
           H          0.333661873012    -1.158539507843    -0.399575807471     1.007825032070
           H          0.574669873012    -0.720801507843     1.259889192529     1.007825032070
           C         -1.719052126988     0.651382492157     0.453067192529    12.000000000000
           H         -0.199498126988     1.224779492157    -0.967222807471     1.007825032070
           H          0.144704873012     1.698160492157     0.664868192529     1.007825032070
           C         -2.472814126988    -0.337763507843    -0.440459807471    12.000000000000
           H         -2.235619126988     1.607959492157     0.423395192529     1.007825032070
           H         -1.769686126988     0.313657492157     1.487250192529     1.007825032070
           C         -3.950900126988    -0.455715507843    -0.069209807471    12.000000000000
           H         -2.385388126988    -0.021501507843    -1.477946807471     1.007825032070
           H         -2.015204126988    -1.321837507843    -0.380680807471     1.007825032070
           H         -4.463080126988    -1.162694507843    -0.714318807471     1.007825032070
           H         -4.455500126988     0.501817492157    -0.160523807471     1.007825032070
           H         -4.071572126988    -0.795630507843     0.955550192529     1.007825032070

  Charge       = 0
  Multiplicity = 1
  Basis Set: 6-31G*
  Basis Set:

    Orbital Energies (a.u.)
    -----------------------

    Doubly Occupied:

       1A    -20.605890     2A    -20.555741     3A    -11.380304
       4A    -11.247545     5A    -11.227163     6A    -11.224438
       7A    -11.223827     8A    -11.215517     9A     -1.469192
      10A     -1.370571    11A     -1.100335    12A     -1.043718
      13A     -0.960919    14A     -0.865725    15A     -0.824674
      16A     -0.791339    17A     -0.718934    18A     -0.674228
      19A     -0.661743    20A     -0.637418    21A     -0.621758
      22A     -0.593358    23A     -0.564030    24A     -0.552696
      25A     -0.548918    26A     -0.512277    27A     -0.502202
      28A     -0.484791    29A     -0.472988    30A     -0.468865
      31A     -0.461452    32A     -0.441777

  @DF-RHF Final Energy:  -383.92921192541326

   => Energetics <=

    Nuclear Repulsion Energy =            376.3853200283081151
    One-Electron Energy =               -1268.5803746483538816
    Two-Electron Energy =                 508.2658426946334203
    DFT Exchange-Correlation Energy =       0.0000000000000000
    Empirical Dispersion Energy =           0.0000000000000000
    PCM Polarization Energy =               0.0000000000000000
    EFP Energy =                            0.0000000000000000
    Total Energy =                       -383.9292119254123463

  Mulliken Charges: (a.u.)
   Center  Symbol    Alpha    Beta     Spin     Total
       1     H     0.26881  0.26881  0.00000  0.46238
       2     O     4.35205  4.35205  0.00000 -0.70410
       3     C     2.61938  2.61938  0.00000  0.76124
       4     C     3.22600  3.22600  0.00000 -0.45199
       5     O     4.25835  4.25835  0.00000 -0.51669
       6     C     3.15417  3.15417  0.00000 -0.30834
       7     H     0.39424  0.39424  0.00000  0.21152
       8     H     0.41437  0.41437  0.00000  0.17127
       9     C     3.15581  3.15581  0.00000 -0.31163
      10     H     0.40936  0.40936  0.00000  0.18129
      11     H     0.40748  0.40748  0.00000  0.18505
      12     C     3.15476  3.15476  0.00000 -0.30951
      13     H     0.41694  0.41694  0.00000  0.16612
      14     H     0.42501  0.42501  0.00000  0.14998
      15     C     3.23926  3.23926  0.00000 -0.47853
      16     H     0.42028  0.42028  0.00000  0.15943
      17     H     0.42427  0.42427  0.00000  0.15146
      18     H     0.41781  0.41781  0.00000  0.16439
      19     H     0.41995  0.41995  0.00000  0.16010
      20     H     0.42171  0.42171  0.00000  0.15658

   Total alpha = 32.00000, Total beta = 32.00000, Total charge =  0.00000
