                              Psi4 1.0.54 Driver

  ==> Input File <==

--------------------------------------------------------------------------
set {
	reference rhf
	basis cc-pvtz
}

set_num_threads( 4 )
memory 2 gb

molecule MOL {
0 1

H	 3.083659	 -1.378387	 0.000000
O	 2.179005	 -1.633391	 0.000000
C	 1.366950	 -0.558201	 0.000000
C	 1.856079	 0.739271	 0.000000
C	 0.005259	 -0.781402	 0.000000
H	 2.917129	 0.911325	 0.000000
C	 0.983941	 1.809005	 0.000000
H	 -0.375622	 -1.782288	 0.000000
C	 -0.861704	 0.296439	 0.000000
H	 1.373840	 2.808406	 0.000000
C	 -0.379627	 1.594293	 0.000000
C	 -2.330689	 0.069587	 0.000000
H	 -1.060252	 2.424135	 0.000000
O	 -2.848621	 -0.993976	 0.000000
H	 -2.934306	 0.982410	 0.000000

	symmetry c1
}
set optking {
	frozen_dihedral = ("
		11 9 12 14
	")
}

ee,wfn = optimize('scf', return_wfn=True)
oeprop( wfn, 'DIPOLE', 'QUADRUPOLE', 'MULLIKEN_CHARGES')
f=open( 'psi4out.xyz', 'w' )
f.write( "15  " )
f.write( str(ee) + "\n" )
f.write( MOL.save_string_xyz() )
f.close()
--------------------------------------------------------------------------

    Molecular point group: c1
  Charge       = 0
  Multiplicity = 1
  Basis Set: CC-PVTZ
  Basis Set:

    Orbital Energies (a.u.)
    -----------------------

    Doubly Occupied:

       1A    -20.595743     2A    -20.554350     3A    -11.327431
       4A    -11.311880     5A    -11.251066     6A    -11.250694
       7A    -11.247730     8A    -11.243171     9A    -11.237349
      10A     -1.427454    11A     -1.410039    12A     -1.174347
      13A     -1.052159    14A     -1.031007    15A     -0.902849
      16A     -0.850286    17A     -0.816976    18A     -0.740345
      19A     -0.706305    20A     -0.690048    21A     -0.644531
      22A     -0.640526    23A     -0.614506    24A     -0.608785
      25A     -0.579704    26A     -0.556893    27A     -0.546001
      28A     -0.516406    29A     -0.492706    30A     -0.426838
      31A     -0.358364    32A     -0.330915

  @DF-RHF Final Energy:  -418.43890722469155

   => Energetics <=

    Nuclear Repulsion Energy =            404.1054450167054028
    One-Electron Energy =               -1370.8139015686051607
    Two-Electron Energy =                 548.2695493272080967
    DFT Exchange-Correlation Energy =       0.0000000000000000
    Empirical Dispersion Energy =           0.0000000000000000
    PCM Polarization Energy =               0.0000000000000000
    EFP Energy =                            0.0000000000000000
    Total Energy =                       -418.4389072246916612
    Molecular point group: c1
  Basis Set: CC-PVTZ
  Basis Set:

  -Total Gradient:
     Atom            X                  Y                   Z
    ------   -----------------  -----------------  -----------------
       1       -0.000131237888    -0.000100671330     0.000000005037
       2        0.000280543144    -0.000054070683     0.000000000134
       3        0.000082874750     0.000416504960    -0.000000003785
       4        0.000084407627    -0.000372044274     0.000000020779
       5       -0.000272084768     0.000051082496    -0.000000009358
       6       -0.000050088313     0.000026785275     0.000000009522
       7       -0.000324478034     0.000112027427    -0.000000002365
       8        0.000035914600     0.000052403279    -0.000000001350
       9       -0.000117445202    -0.000294463108     0.000000043960
      10        0.000011772217    -0.000014449863     0.000000001485
      11        0.000317954655     0.000177976086    -0.000000014201
      12        0.000223141512     0.000321848794     0.000000018331
      13        0.000010221079    -0.000033756585    -0.000000006706
      14       -0.000129593443    -0.000144793387     0.000000000267
      15       -0.000021901930    -0.000144379095    -0.000000061749

  **** Optimization is complete! (in 1 steps) ****
    Final optimized geometry and variables:
    Molecular point group: c1

    Geometry (in Angstrom), charge = 0, multiplicity = 1:

    H            3.083658875824    -1.378387205805     0.000000000000
    O            2.179004875824    -1.633391205805     0.000000000000
    C            1.366949875824    -0.558201205805     0.000000000000
    C            1.856078875824     0.739270794195     0.000000000000
    C            0.005258875824    -0.781402205805     0.000000000000
    H            2.917128875824     0.911324794195     0.000000000000
    C            0.983940875824     1.809004794195     0.000000000000
    H           -0.375622124176    -1.782288205805     0.000000000000
    C           -0.861704124176     0.296438794195     0.000000000000
    H            1.373839875824     2.808405794195     0.000000000000
    C           -0.379627124176     1.594292794195     0.000000000000
    C           -2.330689124176     0.069586794195     0.000000000000
    H           -1.060252124176     2.424134794195     0.000000000000
    O           -2.848621124176    -0.993976205805     0.000000000000
    H           -2.934306124176     0.982409794195     0.000000000000

  Mulliken Charges: (a.u.)
   Center  Symbol    Alpha    Beta     Spin     Total
       1     H     0.38737  0.38737  0.00000  0.22525
       2     O     4.16968  4.16968  0.00000 -0.33937
       3     C     2.84170  2.84170  0.00000  0.31659
       4     C     3.12656  3.12656  0.00000 -0.25312
       5     C     3.11854  3.11854  0.00000 -0.23709
       6     H     0.43116  0.43116  0.00000  0.13767
       7     C     3.06285  3.06285  0.00000 -0.12570
       8     H     0.40489  0.40489  0.00000  0.19022
       9     C     2.97065  2.97065  0.00000  0.05870
      10     H     0.41938  0.41938  0.00000  0.16124
      11     C     3.10956  3.10956  0.00000 -0.21912
      12     C     2.90909  2.90909  0.00000  0.18182
      13     H     0.42328  0.42328  0.00000  0.15345
      14     O     4.16888  4.16888  0.00000 -0.33777
      15     H     0.45639  0.45639  0.00000  0.08723

   Total alpha = 32.00000, Total beta = 32.00000, Total charge =  0.00000

*** Psi4 exiting successfully. Buy a developer a beer!
