  ==> Input File <==

--------------------------------------------------------------------------
set {
	reference rhf
	basis 6-31G*
}

set_num_threads( 4 )
memory 2 gb

molecule MOL {
0 1

H	 -2.273092	 1.173159	 0.000295
O	 -1.438904	 1.618192	 0.000114
C	 -0.409536	 0.736003	 0.000030
C	 -0.635717	 -0.483245	 -0.619224
C	 0.819902	 1.024850	 0.588239
H	 -1.598248	 -0.664946	 -1.060255
C	 0.367378	 -1.432848	 -0.658785
C	 1.810207	 0.051564	 0.533482
C	 1.064653	 2.355671	 1.263532
H	 0.185534	 -2.376837	 -1.140771
C	 1.599096	 -1.169910	 -0.081107
H	 2.765650	 0.259298	 0.983283
H	 0.382655	 2.521390	 2.095012
H	 2.070177	 2.403303	 1.661813
H	 0.954018	 3.188880	 0.572503
H	 2.383850	 -1.903825	 -0.108109

	symmetry c1
}
set optking {
	frozen_dihedral = ("
		4 3 2 1
	")
}

ee = optimize('scf')
oeprop('DIPOLE', 'QUADRUPOLE', 'MULLIKEN_CHARGES')
f=open( 'psi4out.xyz', 'w' )
f.write( "16  " )
f.write( str(ee) + "\n" )
f.write( MOL.save_string_xyz() )
f.close()
--------------------------------------------------------------------------

    Molecular point group: c1
  Charge       = 0
  Multiplicity = 1
  Basis Set: 6-31G*
  Basis Set:
  @DF-RHF Final Energy:  -344.59142086794640
    Total Energy =                       -344.5914208679465673
    Molecular point group: c1
  Basis Set: 6-31G*
  Basis Set:
  Basis Set: 6-31G*
  Basis Set:
  @DF-RHF Final Energy:  -344.59369354972313
    Total Energy =                       -344.5936935497229001
  Basis Set: 6-31G*
  Basis Set:
  Basis Set: 6-31G*
  Basis Set:
  @DF-RHF Final Energy:  -344.59388340569973
    Total Energy =                       -344.5938834056997848
  Basis Set: 6-31G*
  Basis Set:
  Basis Set: 6-31G*
  Basis Set:
  @DF-RHF Final Energy:  -344.59390126870295
    Total Energy =                       -344.5939012687028935
  Basis Set: 6-31G*
  Basis Set:
  Basis Set: 6-31G*
  Basis Set:
  @DF-RHF Final Energy:  -344.59390512222598
    Total Energy =                       -344.5939051222256921
  Basis Set: 6-31G*
  Basis Set:
  Charge       = 0
  Multiplicity = 1
  Basis Set: 6-31G*
  Basis Set:

    Orbital Energies (a.u.)
    -----------------------

    Doubly Occupied:

       1A    -20.586140     2A    -11.290480     3A    -11.231093
       4A    -11.230385     5A    -11.227947     6A    -11.225940
       7A    -11.220617     8A    -11.212992     9A     -1.403217
      10A     -1.148011    11A     -1.043374    12A     -1.002614
      13A     -0.928749    14A     -0.841323    15A     -0.799092
      16A     -0.729676    17A     -0.669804    18A     -0.650391
      19A     -0.610532    20A     -0.593818    21A     -0.573837
      22A     -0.558318    23A     -0.541742    24A     -0.536475
      25A     -0.499278    26A     -0.480988    27A     -0.470510
      28A     -0.329044    29A     -0.306351

  @DF-RHF Final Energy:  -344.59390531539759

   => Energetics <=

    Nuclear Repulsion Energy =            350.0665233339797169
    One-Electron Energy =               -1161.4353785110001809
    Two-Electron Energy =                 466.7749498616227584
    DFT Exchange-Correlation Energy =       0.0000000000000000
    Empirical Dispersion Energy =           0.0000000000000000
    PCM Polarization Energy =               0.0000000000000000
    EFP Energy =                            0.0000000000000000
    Total Energy =                       -344.5939053153977056
    Molecular point group: c1
  Basis Set: 6-31G*
  Basis Set:

  -Total Gradient:
     Atom            X                  Y                   Z
    ------   -----------------  -----------------  -----------------
       1        0.000012058638    -0.000068517439     0.002364021837
       2        0.000256524553     0.000472773991    -0.003695324168
       3       -0.000879666384    -0.001036036223     0.002796653597
       4        0.000598035582     0.000675730569    -0.001526511452
       5        0.000005837260    -0.000022393531     0.000037522803
       6        0.000001827575    -0.000003277000     0.000001049733
       7       -0.000003630706    -0.000035107452     0.000024731013
       8       -0.000021732168     0.000012039021     0.000037792637
       9        0.000007429276     0.000000457225    -0.000018891159
      10        0.000006092240    -0.000002248317     0.000003204106
      11        0.000009697785     0.000015317524    -0.000023797843
      12        0.000004516818     0.000004963178    -0.000002387964
      13       -0.000000613486    -0.000009113810    -0.000000689510
      14        0.000006667710     0.000003638074     0.000005471187
      15       -0.000001473805    -0.000006810921     0.000000820448
      16       -0.000001570881    -0.000001414891    -0.000003665265

  **** Optimization is complete! (in 6 steps) ****
    Final optimized geometry and variables:
    Molecular point group: c1

    Geometry (in Angstrom), charge = 0, multiplicity = 1:

    H           -2.589011125054     0.885090126702    -0.105848597350
    O           -1.726096528062     1.274641057647    -0.097275797847
    C           -0.767321827999     0.309961437790    -0.135083058920
    C           -0.985506042579    -0.902026658368    -0.764875608196
    C            0.465794433530     0.611228599303     0.442012494555
    H           -1.940306488610    -1.100078258086    -1.222145184054
    C            0.023190113367    -1.852886452227    -0.807504764996
    C            1.459816518975    -0.351908544218     0.376370431717
    C            0.686224405649     1.947186021461     1.107879706747
    H           -0.155212922187    -2.795828689009    -1.292639902310
    C            1.251054584945    -1.579744435245    -0.237409567909
    H            2.417574747398    -0.139396099630     0.818697504831
    H           -0.030913384392     2.110210052631     1.905170395902
    H            1.683225508925     2.005259540896     1.528810477755
    H            0.567779872702     2.762271494294     0.401729370593
    H            2.040999972458    -2.308129517349    -0.268346110588

  Mulliken Charges: (a.u.)
   Center  Symbol    Alpha    Beta     Spin     Total
       1     H     0.27206  0.27206  0.00000  0.45589
       2     O     4.38210  4.38210  0.00000 -0.76420
       3     C     2.81249  2.81249  0.00000  0.37501
       4     C     3.13366  3.13366  0.00000 -0.26732
       5     C     3.00695  3.00695  0.00000 -0.01390
       6     H     0.40347  0.40347  0.00000  0.19306
       7     C     3.09693  3.09693  0.00000 -0.19386
       8     C     3.10852  3.10852  0.00000 -0.21703
       9     C     3.24124  3.24124  0.00000 -0.48248
      10     H     0.39929  0.39929  0.00000  0.20141
      11     C     3.10636  3.10636  0.00000 -0.21272
      12     H     0.40095  0.40095  0.00000  0.19809
      13     H     0.40959  0.40959  0.00000  0.18081
      14     H     0.41801  0.41801  0.00000  0.16398
      15     H     0.40740  0.40740  0.00000  0.18520
      16     H     0.40098  0.40098  0.00000  0.19805

   Total alpha = 29.00000, Total beta = 29.00000, Total charge =  0.00000
