  ==> Input File <==

--------------------------------------------------------------------------
set {
	reference rhf
	basis 6-31G*
}

set_num_threads( 4 )
memory 2 gb

molecule MOL {
0 1

H	 1.949384	 -1.423148	 -2.056902
O	 1.473214	 -1.470980	 -1.233640
C	 0.491960	 -0.570187	 -1.270288
C	 -0.318135	 -0.576402	 0.000164
O	 0.313413	 0.132431	 -2.211268
C	 -1.454360	 0.441875	 -0.000474
H	 -0.693916	 -1.586459	 0.140084
H	 0.368893	 -0.400006	 0.823498
C	 -2.826123	 -0.230780	 0.000056
H	 -1.357605	 1.085198	 -0.868380
H	 -1.357504	 1.086451	 0.866496
H	 -2.959731	 -0.858053	 -0.876869
H	 -3.619374	 0.509403	 -0.000080
H	 -2.959371	 -0.857318	 0.877556

	symmetry c1
}
set optking {
	frozen_dihedral = ("
		7 4 6 10
	")
}

ee = optimize('scf')
oeprop('DIPOLE', 'QUADRUPOLE', 'MULLIKEN_CHARGES')
f=open( 'psi4out.xyz', 'w' )
f.write( "14  " )
f.write( str(ee) + "\n" )
f.write( MOL.save_string_xyz() )
f.close()
--------------------------------------------------------------------------

    Molecular point group: c1
  Charge       = 0
  Multiplicity = 1
  Basis Set: 6-31G*
  Basis Set:
  @DF-RHF Final Energy:  -305.87594166015123
    Total Energy =                       -305.8759416601515113
    Molecular point group: c1
  Basis Set: 6-31G*
  Basis Set:
  Basis Set: 6-31G*
  Basis Set:
  @DF-RHF Final Energy:  -305.87626405030215
    Total Energy =                       -305.8762640503019270
  Basis Set: 6-31G*
  Basis Set:
  Basis Set: 6-31G*
  Basis Set:
  @DF-RHF Final Energy:  -305.87611430022122
    Total Energy =                       -305.8761143002210474
  Basis Set: 6-31G*
  Basis Set:
  Basis Set: 6-31G*
  Basis Set:
  @DF-RHF Final Energy:  -305.87637086824003
    Total Energy =                       -305.8763708682399169
  Basis Set: 6-31G*
  Basis Set:
  Basis Set: 6-31G*
  Basis Set:
  @DF-RHF Final Energy:  -305.87637439592265
    Total Energy =                       -305.8763743959226531
  Basis Set: 6-31G*
  Basis Set:
  Basis Set: 6-31G*
  Basis Set:
  @DF-RHF Final Energy:  -305.87637572934580
    Total Energy =                       -305.8763757293456820
  Basis Set: 6-31G*
  Basis Set:
  Charge       = 0
  Multiplicity = 1
  Basis Set: 6-31G*
  Basis Set:

    Orbital Energies (a.u.)
    -----------------------

    Doubly Occupied:

       1A    -20.613421     2A    -20.553029     3A    -11.382550
       4A    -11.241250     5A    -11.223726     6A    -11.214791
       7A     -1.475815     8A     -1.366805     9A     -1.079586
      10A     -0.978581    11A     -0.858077    12A     -0.789361
      13A     -0.701582    14A     -0.692958    15A     -0.658679
      16A     -0.612390    17A     -0.596838    18A     -0.565672
      19A     -0.557936    20A     -0.493120    21A     -0.489406
      22A     -0.484965    23A     -0.476774    24A     -0.446493

  @DF-RHF Final Energy:  -305.87637663106420

   => Energetics <=

    Nuclear Repulsion Energy =            241.3627901944930443
    One-Electron Energy =                -895.3707222547581068
    Two-Electron Energy =                 348.1315554292007164
    DFT Exchange-Correlation Energy =       0.0000000000000000
    Empirical Dispersion Energy =           0.0000000000000000
    PCM Polarization Energy =               0.0000000000000000
    EFP Energy =                            0.0000000000000000
    Total Energy =                       -305.8763766310643177
    Molecular point group: c1
  Basis Set: 6-31G*
  Basis Set:

  -Total Gradient:
     Atom            X                  Y                   Z
    ------   -----------------  -----------------  -----------------
       1       -0.000043240309     0.000028245209     0.000025509662
       2        0.000094698291    -0.000119774490     0.000046128861
       3       -0.000020749564     0.000130238588    -0.000220321432
       4       -0.000090482785    -0.000114375397     0.002274794326
       5       -0.000015969351    -0.000015924874     0.000077338217
       6        0.001413463848     0.001477997200     0.000760074029
       7       -0.000183972386    -0.000167553273    -0.001915730849
       8       -0.000000221606     0.000041998161    -0.000011681248
       9       -0.000051612538    -0.000044106987     0.000000805176
      10       -0.001086894456    -0.001197578835    -0.001002002991
      11       -0.000010893193    -0.000028384938    -0.000025523653
      12        0.000001930722    -0.000005323886     0.000008230649
      13       -0.000002516709     0.000005089520    -0.000006494250
      14       -0.000003539973     0.000009454004    -0.000011126495

  **** Optimization is complete! (in 7 steps) ****
    Final optimized geometry and variables:
    Molecular point group: c1

    Geometry (in Angstrom), charge = 0, multiplicity = 1:

    H            2.314685008580    -1.029050187095    -1.236116248462
    O            1.849863981455    -1.053165474009    -0.405464779334
    C            0.848895972268    -0.175261157245    -0.466171108237
    C            0.054624993800    -0.163047129016     0.818226982277
    O            0.646590508444     0.482693275474    -1.434166974754
    C           -1.102132700300     0.849750230344     0.833973461159
    H           -0.304585883191    -1.179761952533     0.950891862163
    H            0.761892715846     0.008628063577     1.622725152223
    C           -2.477651675213     0.181072544960     0.809911444287
    H           -1.014945277830     1.498397128090    -0.027693695271
    H           -1.022121017143     1.475427125829     1.716543239856
    H           -2.597511284095    -0.428430954471    -0.081131110912
    H           -3.269358574515     0.923250441731     0.810991443583
    H           -2.622790146035    -0.460303274899     1.674755357930

  Mulliken Charges: (a.u.)
   Center  Symbol    Alpha    Beta     Spin     Total
       1     H     0.26756  0.26756  0.00000  0.46487
       2     O     4.34957  4.34957  0.00000 -0.69915
       3     C     2.63013  2.63013  0.00000  0.73974
       4     C     3.21190  3.21190  0.00000 -0.42379
       5     O     4.27844  4.27844  0.00000 -0.55687
       6     C     3.16176  3.16176  0.00000 -0.32352
       7     H     0.39594  0.39594  0.00000  0.20811
       8     H     0.39492  0.39492  0.00000  0.21016
       9     C     3.24284  3.24284  0.00000 -0.48569
      10     H     0.39373  0.39373  0.00000  0.21255
      11     H     0.41705  0.41705  0.00000  0.16591
      12     H     0.41776  0.41776  0.00000  0.16448
      13     H     0.41639  0.41639  0.00000  0.16721
      14     H     0.42201  0.42201  0.00000  0.15598

   Total alpha = 24.00000, Total beta = 24.00000, Total charge = -0.00000
