  ==> Input File <==

--------------------------------------------------------------------------
set {
	reference rhf
	basis 6-31G*
}

set_num_threads( 1 )
memory 2 gb

molecule MOL {
0 1

H	 -1.379817	 0.914818	 -2.502390
O	 -1.738676	 1.598777	 -1.953506
C	 -0.896787	 1.789681	 -0.854078
C	 -0.793441	 0.596080	 0.058728
H	 -1.301395	 2.633104	 -0.306233
H	 0.102426	 2.079482	 -1.177517
C	 -1.530462	 -0.493172	 -0.025500
H	 -0.046664	 0.678815	 0.833300
H	 -1.092586	 -1.461565	 -0.186463
H	 -2.602122	 -0.450675	 0.050101

	symmetry c1
}
set optking {
	frozen_dihedral = ("
		5 3 2 1,
		5 3 4 7
	")
}

ee = energy('scf')
oeprop('DIPOLE', 'QUADRUPOLE', 'MULLIKEN_CHARGES')
f=open( 'psi4out.xyz', 'w' )
f.write( "10  " )
f.write( str(ee) + "\n" )
f.write( MOL.save_string_xyz() )
f.close()
--------------------------------------------------------------------------

    Molecular point group: c1

    Geometry (in Angstrom), charge = 0, multiplicity = 1:

       Center              X                  Y                   Z               Mass
    ------------   -----------------  -----------------  -----------------  -----------------
           H         -0.125069795615     0.006650562443    -1.737230197954     1.007825032070
           O         -0.483928795615     0.690609562443    -1.188346197954    15.994914619560
           C          0.357960204385     0.881513562443    -0.088918197954    12.000000000000
           C          0.461306204385    -0.312087437557     0.823887802046    12.000000000000
           H         -0.046647795615     1.724936562443     0.458926802046     1.007825032070
           H          1.357173204385     1.171314562443    -0.412357197954     1.007825032070
           C         -0.275714795615    -1.401339437557     0.739659802046    12.000000000000
           H          1.208083204385    -0.229352437557     1.598459802046     1.007825032070
           H          0.162161204385    -2.369732437557     0.578696802046     1.007825032070
           H         -1.347374795615    -1.358842437557     0.815260802046     1.007825032070

  Charge       = 0
  Multiplicity = 1
  Basis Set: 6-31G*
  Basis Set:

    Orbital Energies (a.u.)
    -----------------------

    Doubly Occupied:

       1A    -20.557169     2A    -11.278907     3A    -11.236778
       4A    -11.218111     5A     -1.366140     6A     -1.059579
       7A     -0.928175     8A     -0.769493     9A     -0.686390
      10A     -0.645438    11A     -0.617546    12A     -0.576648
      13A     -0.555491    14A     -0.504191    15A     -0.448241
      16A     -0.300918

  @DF-RHF Final Energy:  -191.83523976866741

   => Energetics <=

    Nuclear Repulsion Energy =            119.1888667173673895
    One-Electron Energy =                -496.5497672406625043
    Two-Electron Energy =                 185.5256607546276086
    DFT Exchange-Correlation Energy =       0.0000000000000000
    Empirical Dispersion Energy =           0.0000000000000000
    PCM Polarization Energy =               0.0000000000000000
    EFP Energy =                            0.0000000000000000
    Total Energy =                       -191.8352397686675204

  Mulliken Charges: (a.u.)
   Center  Symbol    Alpha    Beta     Spin     Total
       1     H     0.28319  0.28319  0.00000  0.43362
       2     O     4.36334  4.36334  0.00000 -0.72668
       3     C     2.99866  2.99866  0.00000  0.00268
       4     C     3.09578  3.09578  0.00000 -0.19156
       5     H     0.41320  0.41320  0.00000  0.17360
       6     H     0.41944  0.41944  0.00000  0.16111
       7     C     3.20686  3.20686  0.00000 -0.41372
       8     H     0.40771  0.40771  0.00000  0.18458
       9     H     0.40830  0.40830  0.00000  0.18339
      10     H     0.40351  0.40351  0.00000  0.19298

   Total alpha = 16.00000, Total beta = 16.00000, Total charge =  0.00000
