                              Psi4 1.0.54 Driver

  ==> Input File <==

--------------------------------------------------------------------------
set {
	reference rhf
	basis cc-pvtz
}

set_num_threads( 4 )
memory 2 gb

molecule MOL {
0 1

H	 1.896851	 2.871821	 2.857975
N	 1.066644	 2.320015	 2.814583
C	 0.826809	 1.839815	 1.462789
H	 0.313266	 2.896425	 3.126868
C	 -0.392969	 0.931611	 1.417697
H	 1.701609	 1.279576	 1.150116
H	 0.698945	 2.648373	 0.741791
C	 -0.678115	 0.376691	 0.025731
H	 -0.243826	 0.118167	 2.120172
H	 -1.261130	 1.486076	 1.768906
C	 -1.900706	 -0.535531	 -0.022488
H	 0.191116	 -0.173860	 -0.326811
H	 -0.819544	 1.199198	 -0.671658
C	 -3.220513	 0.226854	 0.028039
H	 -1.865036	 -1.134397	 -0.928236
H	 -1.857948	 -1.236381	 0.806820
H	 -3.309098	 0.911849	 -0.808725
H	 -4.066838	 -0.449485	 -0.008086
H	 -3.301685	 0.809374	 0.939860

	symmetry c1
}
set optking {
	frozen_dihedral = ("
		12 8 11 15
	")
}

ee,wfn = optimize('scf', return_wfn=True)
oeprop( wfn, 'DIPOLE', 'QUADRUPOLE', 'MULLIKEN_CHARGES')
f=open( 'psi4out.xyz', 'w' )
f.write( "19  " )
f.write( str(ee) + "\n" )
f.write( MOL.save_string_xyz() )
f.close()
--------------------------------------------------------------------------

    Molecular point group: c1
  Charge       = 0
  Multiplicity = 1
  Basis Set: CC-PVTZ
  Basis Set:
  @DF-RHF Final Energy:  -251.44590216300350
    Total Energy =                       -251.4459021630033249
    Molecular point group: c1
  Basis Set: CC-PVTZ
  Basis Set:
  Basis Set: CC-PVTZ
  Basis Set:
  @DF-RHF Final Energy:  -251.44609119701673
    Total Energy =                       -251.4460911970166421
  Basis Set: CC-PVTZ
  Basis Set:
  Basis Set: CC-PVTZ
  Basis Set:
  @DF-RHF Final Energy:  -251.44612173157103
    Total Energy =                       -251.4461217315708836
  Basis Set: CC-PVTZ
  Basis Set:
  Charge       = 0
  Multiplicity = 1
  Basis Set: CC-PVTZ
  Basis Set:

    Orbital Energies (a.u.)
    -----------------------

    Doubly Occupied:

       1A    -15.526404     2A    -11.237898     3A    -11.212122
       4A    -11.210621     5A    -11.207452     6A    -11.205451
       7A     -1.178129     8A     -1.073534     9A     -0.997092
      10A     -0.903938    11A     -0.821781    12A     -0.780346
      13A     -0.665394    14A     -0.634780    15A     -0.614681
      16A     -0.605052    17A     -0.564349    18A     -0.554559
      19A     -0.520957    20A     -0.498727    21A     -0.491398
      22A     -0.462260    23A     -0.454418    24A     -0.451907
      25A     -0.383761

  @DF-RHF Final Energy:  -251.44612252453504

   => Energetics <=

    Nuclear Repulsion Energy =            248.7838392454067389
    One-Electron Energy =                -831.9459045325172610
    Two-Electron Energy =                 331.7159427625754233
    DFT Exchange-Correlation Energy =       0.0000000000000000
    Empirical Dispersion Energy =           0.0000000000000000
    PCM Polarization Energy =               0.0000000000000000
    EFP Energy =                            0.0000000000000000
    Total Energy =                       -251.4461225245350988
    Molecular point group: c1
  Basis Set: CC-PVTZ
  Basis Set:

  -Total Gradient:
     Atom            X                  Y                   Z
    ------   -----------------  -----------------  -----------------
       1        0.000009016707     0.000013170898     0.000021898889
       2        0.000035287635     0.000001476117     0.000017208541
       3       -0.000024832307    -0.000014068735    -0.000018179684
       4       -0.000001479464    -0.000000150465    -0.000004940776
       5       -0.000019429840    -0.000002073910    -0.000011751460
       6        0.000011117046     0.000010625340    -0.000004155132
       7        0.000001310775    -0.000006108138    -0.000000901817
       8        0.000520482339    -0.000856710539     0.002058674065
       9       -0.000012942067    -0.000011960693    -0.000003619037
      10        0.000018738432    -0.000011888081    -0.000018982005
      11       -0.001091674433     0.001522875461    -0.001300731479
      12       -0.000300716911     0.000515139726    -0.001521725249
      13       -0.000001178044     0.000008098940    -0.000003767819
      14       -0.000001083999     0.000028114361     0.000003375361
      15        0.000813167347    -0.001149932067     0.000824029332
      16       -0.000004483794    -0.000002850217     0.000003097535
      17        0.000014000895    -0.000000481450     0.000001404964
      18        0.000027944422    -0.000003313914     0.000003726718
      19        0.000006755260    -0.000039962635    -0.000044660949

  **** Optimization is complete! (in 4 steps) ****
    Final optimized geometry and variables:
    Molecular point group: c1

    Geometry (in Angstrom), charge = 0, multiplicity = 1:

    H            2.630530880488     1.975032728205     1.870669730907
    N            1.792601718448     1.434451962309     1.833927436738
    C            1.541370716343     0.948036886244     0.486378923274
    H            1.048585796895     2.023849750394     2.144456424821
    C            0.310035733740     0.054559591838     0.452169778811
    H            2.407888354602     0.374889266504     0.173990644926
    H            1.420587168969     1.753145496779    -0.239668894018
    C            0.025279254304    -0.512741549752    -0.935951984790
    H            0.451688587244    -0.755319235622     1.160368712847
    H           -0.545874847755     0.625291082933     0.802984262577
    C           -1.199661121075    -1.428564049609    -1.007615751050
    H            0.895698708109    -1.064457801597    -1.279921996501
    H           -0.102917233651     0.304392552283    -1.642837626544
    C           -2.538202732343    -0.696763121645    -0.967188799273
    H           -1.143724419771    -2.017705290177    -1.917506005128
    H           -1.156179443677    -2.144438233645    -0.190953706351
    H           -2.624095073686     0.001693875933    -1.793231162569
    H           -3.363474895943    -1.395944181464    -1.039368250054
    H           -2.665020379207    -0.137920204503    -0.047471511167

  Mulliken Charges: (a.u.)
   Center  Symbol    Alpha    Beta     Spin     Total
       1     H     0.43026  0.43026  0.00000  0.13949
       2     N     3.68902  3.68902  0.00000 -0.37803
       3     C     3.02647  3.02647  0.00000 -0.05295
       4     H     0.43103  0.43103  0.00000  0.13793
       5     C     3.08295  3.08295  0.00000 -0.16591
       6     H     0.45682  0.45682  0.00000  0.08635
       7     H     0.46823  0.46823  0.00000  0.06354
       8     C     3.09967  3.09967  0.00000 -0.19934
       9     H     0.44893  0.44893  0.00000  0.10215
      10     H     0.45956  0.45956  0.00000  0.08089
      11     C     3.08978  3.08978  0.00000 -0.17956
      12     H     0.44914  0.44914  0.00000  0.10173
      13     H     0.45751  0.45751  0.00000  0.08499
      14     C     3.14971  3.14971  0.00000 -0.29942
      15     H     0.44843  0.44843  0.00000  0.10315
      16     H     0.45496  0.45496  0.00000  0.09008
      17     H     0.45569  0.45569  0.00000  0.08862
      18     H     0.44720  0.44720  0.00000  0.10559
      19     H     0.45465  0.45465  0.00000  0.09069

   Total alpha = 25.00000, Total beta = 25.00000, Total charge = -0.00000

*** Psi4 exiting successfully. Buy a developer a beer!
