  ==> Input File <==

--------------------------------------------------------------------------
set {
	reference rhf
	basis 6-31G*
}

set_num_threads( 1 )
memory 2 gb

molecule MOL {
0 1

H	 -3.063905	 0.158652	 -0.345835
O	 -2.347518	 -0.290803	 0.079804
C	 -1.184022	 0.487508	 -0.006784
C	 0.062599	 -0.378592	 0.031606
H	 -1.176523	 1.099369	 -0.904519
H	 -1.187323	 1.153111	 0.844927
O	 1.171513	 0.459272	 -0.058250
H	 0.050699	 -1.089204	 -0.797170
H	 0.078739	 -0.954914	 0.954740
C	 2.397842	 -0.198080	 -0.002151
H	 2.508049	 -0.905315	 -0.822092
H	 3.173794	 0.550865	 -0.078850
H	 2.517602	 -0.735921	 0.936026

	symmetry c1
}
set optking {
	frozen_dihedral = ("
		8 4 3 5,
		10 7 4 8,
		4 7 10 13
	")
}

ee = energy('scf')
oeprop('DIPOLE', 'QUADRUPOLE', 'MULLIKEN_CHARGES')
f=open( 'psi4out.xyz', 'w' )
f.write( "13  " )
f.write( str(ee) + "\n" )
f.write( MOL.save_string_xyz() )
f.close()
--------------------------------------------------------------------------

    Molecular point group: c1

    Geometry (in Angstrom), charge = 0, multiplicity = 1:

       Center              X                  Y                   Z               Mass
    ------------   -----------------  -----------------  -----------------  -----------------
           H         -3.056420188272     0.146875098391    -0.351125671670     1.007825032070
           O         -2.340033188272    -0.302579901609     0.074513328330    15.994914619560
           C         -1.176537188272     0.475731098391    -0.012074671670    12.000000000000
           C          0.070083811728    -0.390368901609     0.026315328330    12.000000000000
           H         -1.169038188272     1.087592098391    -0.909809671670     1.007825032070
           H         -1.179838188272     1.141334098391     0.839636328330     1.007825032070
           O          1.178997811728     0.447495098391    -0.063540671670    15.994914619560
           H          0.058183811728    -1.100980901609    -0.802460671670     1.007825032070
           H          0.086223811728    -0.966690901609     0.949449328330     1.007825032070
           C          2.405326811728    -0.209856901609    -0.007441671670    12.000000000000
           H          2.515533811728    -0.917091901609    -0.827382671670     1.007825032070
           H          3.181278811728     0.539088098391    -0.084140671670     1.007825032070
           H          2.525086811728    -0.747697901609     0.930735328330     1.007825032070

  Charge       = 0
  Multiplicity = 1
  Basis Set: 6-31G*
  Basis Set:

    Orbital Energies (a.u.)
    -----------------------

    Doubly Occupied:

       1A    -20.560368     2A    -20.556716     3A    -11.269229
       4A    -11.268436     5A    -11.268174     6A     -1.386517
       7A     -1.362891     8A     -1.017724     9A     -0.911744
      10A     -0.832568    11A     -0.708279    12A     -0.681384
      13A     -0.643349    14A     -0.639488    15A     -0.615524
      16A     -0.551584    17A     -0.541437    18A     -0.495572
      19A     -0.471665    20A     -0.436990    21A     -0.418708

  @DF-RHF Final Energy:  -267.94902229999127

   => Energetics <=

    Nuclear Repulsion Energy =            189.8570688229060295
    One-Electron Energy =                -742.3354043397499709
    Two-Electron Energy =                 284.5293132168527563
    DFT Exchange-Correlation Energy =       0.0000000000000000
    Empirical Dispersion Energy =           0.0000000000000000
    PCM Polarization Energy =               0.0000000000000000
    EFP Energy =                            0.0000000000000000
    Total Energy =                       -267.9490222999911566

  Mulliken Charges: (a.u.)
   Center  Symbol    Alpha    Beta     Spin     Total
       1     H     0.27755  0.27755  0.00000  0.44489
       2     O     4.37571  4.37571  0.00000 -0.75142
       3     C     3.00120  3.00120  0.00000 -0.00240
       4     C     2.99375  2.99375  0.00000  0.01251
       5     H     0.42446  0.42446  0.00000  0.15107
       6     H     0.42147  0.42147  0.00000  0.15705
       7     O     4.30831  4.30831  0.00000 -0.61661
       8     H     0.42654  0.42654  0.00000  0.14692
       9     H     0.42390  0.42390  0.00000  0.15221
      10     C     3.07962  3.07962  0.00000 -0.15924
      11     H     0.42844  0.42844  0.00000  0.14312
      12     H     0.41121  0.41121  0.00000  0.17757
      13     H     0.42784  0.42784  0.00000  0.14433

   Total alpha = 21.00000, Total beta = 21.00000, Total charge = -0.00000
