  ==> Input File <==

--------------------------------------------------------------------------
set {
	reference rhf
	basis 6-31G*
}

set_num_threads( 4 )
memory 2 gb

molecule MOL {
0 1

O	 2.862325	 1.357334	 0.000267
C	 2.843464	 0.164689	 -0.000222
C	 1.546494	 -0.624492	 -0.000609
C	 4.124123	 -0.644674	 -0.000428
C	 0.291004	 0.242674	 0.000989
H	 1.557904	 -1.283758	 -0.867573
H	 1.558622	 -1.285963	 0.864672
C	 -0.274134	 0.453500	 1.406668
H	 -0.459831	 -0.217286	 -0.633686
H	 0.520521	 1.201797	 -0.452389
C	 -1.534169	 1.320596	 1.420389
H	 -0.498832	 -0.512405	 1.856764
H	 0.484471	 0.913565	 2.038273
C	 -2.105586	 1.535976	 2.822925
H	 -2.293449	 0.861279	 0.789882
H	 -1.310509	 2.286744	 0.971468
C	 -3.364216	 2.402870	 2.828405
H	 -2.330664	 0.570944	 3.272234
H	 -1.348007	 1.996451	 3.453714
H	 -4.153249	 1.952036	 2.233152
H	 -3.745729	 2.536862	 3.835974
H	 -3.163383	 3.388038	 2.416999
H	 4.165367	 -1.288615	 -0.874074
H	 4.976217	 0.020734	 -0.001915
H	 4.166763	 -1.286207	 0.874930

	symmetry c1
}
set optking {
	frozen_dihedral = ("
		9 5 3 6
	")
}

ee = optimize('scf')
oeprop('DIPOLE', 'QUADRUPOLE', 'MULLIKEN_CHARGES')
f=open( 'psi4out.xyz', 'w' )
f.write( "25  " )
f.write( str(ee) + "\n" )
f.write( MOL.save_string_xyz() )
f.close()
--------------------------------------------------------------------------

    Molecular point group: c1
  Charge       = 0
  Multiplicity = 1
  Basis Set: 6-31G*
  Basis Set:
  @DF-RHF Final Energy:  -387.13368848873637
    Total Energy =                       -387.1336884887369933
    Molecular point group: c1
  Basis Set: 6-31G*
  Basis Set:
  Basis Set: 6-31G*
  Basis Set:
  @DF-RHF Final Energy:  -387.13394911546919
    Total Energy =                       -387.1339491154693633
  Basis Set: 6-31G*
  Basis Set:
  Basis Set: 6-31G*
  Basis Set:
  @DF-RHF Final Energy:  -387.13389148090283
    Total Energy =                       -387.1338914809023208
  Basis Set: 6-31G*
  Basis Set:
  Basis Set: 6-31G*
  Basis Set:
  @DF-RHF Final Energy:  -387.13402919392399
    Total Energy =                       -387.1340291939242206
  Basis Set: 6-31G*
  Basis Set:
  Basis Set: 6-31G*
  Basis Set:
  @DF-RHF Final Energy:  -387.13403746035073
    Total Energy =                       -387.1340374603507826
  Basis Set: 6-31G*
  Basis Set:
  Basis Set: 6-31G*
  Basis Set:
  @DF-RHF Final Energy:  -387.13404065229992
    Total Energy =                       -387.1340406522990634
  Basis Set: 6-31G*
  Basis Set:
  Basis Set: 6-31G*
  Basis Set:
  @DF-RHF Final Energy:  -387.13404384527735
    Total Energy =                       -387.1340438452774606
  Basis Set: 6-31G*
  Basis Set:
  Charge       = 0
  Multiplicity = 1
  Basis Set: 6-31G*
  Basis Set:

    Orbital Energies (a.u.)
    -----------------------

    Doubly Occupied:

       1A    -20.551549     2A    -11.327578     3A    -11.231840
       4A    -11.228951     5A    -11.215778     6A    -11.212479
       7A    -11.212314     8A    -11.210210     9A    -11.205953
      10A     -1.396886    11A     -1.090520    12A     -1.054417
      13A     -1.013915    14A     -0.967242    15A     -0.889198
      16A     -0.814722    17A     -0.788029    18A     -0.729553
      19A     -0.668095    20A     -0.638218    21A     -0.632584
      22A     -0.621278    23A     -0.591193    24A     -0.583859
      25A     -0.574596    26A     -0.556868    27A     -0.532501
      28A     -0.525211    29A     -0.515554    30A     -0.496959
      31A     -0.481187    32A     -0.472526    33A     -0.460896
      34A     -0.458438    35A     -0.441197    36A     -0.402264

  @DF-RHF Final Energy:  -387.13404454185019

   => Energetics <=

    Nuclear Repulsion Energy =            444.9765588365106055
    One-Electron Energy =               -1406.6320808679365655
    Two-Electron Energy =                 574.5214774895763412
    DFT Exchange-Correlation Energy =       0.0000000000000000
    Empirical Dispersion Energy =           0.0000000000000000
    PCM Polarization Energy =               0.0000000000000000
    EFP Energy =                            0.0000000000000000
    Total Energy =                       -387.1340445418496756
    Molecular point group: c1
  Basis Set: 6-31G*
  Basis Set:

  -Total Gradient:
     Atom            X                  Y                   Z
    ------   -----------------  -----------------  -----------------
       1        0.000018016044     0.000011561162     0.000023303609
       2        0.000017898572    -0.000037158664     0.000025231813
       3        0.002431713666     0.003784702517    -0.003166063776
       4        0.000007956577     0.000021834857    -0.000074128063
       5       -0.001928230429    -0.003048241159     0.004060922976
       6       -0.001697881503    -0.002646274248     0.001944946532
       7        0.000008072745     0.000005778229    -0.000016845639
       8       -0.000002432167     0.000027614656    -0.000024576441
       9        0.001193736316     0.001904810568    -0.002864484709
      10       -0.000029182345    -0.000012725542     0.000009751083
      11        0.000004355181     0.000021868519     0.000018149455
      12       -0.000017343760    -0.000005465864    -0.000020316655
      13        0.000001124671    -0.000023061640     0.000017526311
      14       -0.000001063135     0.000008542993    -0.000002650083
      15       -0.000001428082    -0.000007383960     0.000008611282
      16       -0.000003669641    -0.000003339917    -0.000008702799
      17       -0.000000713062    -0.000001685649     0.000001869237
      18        0.000001308361    -0.000000880854     0.000001832842
      19       -0.000000370443     0.000001552248    -0.000002188185
      20        0.000000102492     0.000000666434    -0.000000746520
      21       -0.000001809861     0.000000005536     0.000000417145
      22        0.000000602708    -0.000000340495     0.000000700990
      23       -0.000007205826    -0.000025723062     0.000034670645
      24        0.000003319373    -0.000000037481    -0.000007577911
      25        0.000003123549     0.000023380814     0.000040346864

  **** Optimization is complete! (in 8 steps) ****
    Final optimized geometry and variables:
    Molecular point group: c1

    Geometry (in Angstrom), charge = 0, multiplicity = 1:

    O            2.366671222108     0.659042585112    -0.815303421140
    C            2.359483658689    -0.529135275671    -0.920190439926
    C            1.073768805348    -1.336095807893    -0.975057440682
    C            3.648839074479    -1.320944399474    -0.993016476877
    C           -0.212417622054    -0.501631353085    -0.961037722556
    H            1.109561889248    -1.995790582703    -1.839106609054
    H            1.094094462102    -2.015479009538    -0.122770657181
    C           -0.772174062827    -0.267437492301     0.442176822840
    H           -0.956669672901    -0.980210337512    -1.591958955707
    H           -0.004949454480     0.457042914803    -1.422896041103
    C           -2.023121256848     0.611614179670     0.448928395615
    H           -1.003103661904    -1.226173968177     0.904893077483
    H           -0.002804801377     0.196167412104     1.055518623760
    C           -2.588078422366     0.848527459752     1.850645052608
    H           -2.789929145683     0.152957461143    -0.173885098932
    H           -1.789512490777     1.570084188172    -0.010550465582
    C           -3.836859306828     1.729558370471     1.850273290284
    H           -2.822645370935    -0.108879988338     2.311523337879
    H           -1.823170030662     1.307598379089     2.473125523585
    H           -4.633160061417     1.281038970666     1.262755260144
    H           -4.213548319294     1.879438709182     2.857454103403
    H           -3.625962762114     2.707580626533     1.427117813660
    H            3.697732443046    -1.879303708735    -1.923199398863
    H            4.493438751831    -0.649049670674    -0.930394136451
    H            3.697543379918    -2.041300426627    -0.181626870046

  Mulliken Charges: (a.u.)
   Center  Symbol    Alpha    Beta     Spin     Total
       1     O     4.26149  4.26149  0.00000 -0.52298
       2     C     2.73642  2.73642  0.00000  0.52717
       3     C     3.21447  3.21447  0.00000 -0.42893
       4     C     3.28711  3.28711  0.00000 -0.57423
       5     C     3.15387  3.15387  0.00000 -0.30773
       6     H     0.40694  0.40694  0.00000  0.18613
       7     H     0.40842  0.40842  0.00000  0.18316
       8     C     3.15477  3.15477  0.00000 -0.30955
       9     H     0.42096  0.42096  0.00000  0.15807
      10     H     0.40220  0.40220  0.00000  0.19559
      11     C     3.15199  3.15199  0.00000 -0.30397
      12     H     0.42679  0.42679  0.00000  0.14642
      13     H     0.41549  0.41549  0.00000  0.16902
      14     C     3.15160  3.15160  0.00000 -0.30320
      15     H     0.42540  0.42540  0.00000  0.14920
      16     H     0.42005  0.42005  0.00000  0.15989
      17     C     3.23930  3.23930  0.00000 -0.47859
      18     H     0.42441  0.42441  0.00000  0.15117
      19     H     0.42181  0.42181  0.00000  0.15638
      20     H     0.42249  0.42249  0.00000  0.15502
      21     H     0.41981  0.41981  0.00000  0.16037
      22     H     0.42100  0.42100  0.00000  0.15800
      23     H     0.40841  0.40841  0.00000  0.18319
      24     H     0.39635  0.39635  0.00000  0.20731
      25     H     0.40846  0.40846  0.00000  0.18308

   Total alpha = 36.00000, Total beta = 36.00000, Total charge =  0.00000
