  ==> Input File <==

--------------------------------------------------------------------------
set {
	reference rhf
	basis 6-31G*
}

set_num_threads( 1 )
memory 2 gb

molecule MOL {
0 1

H	 2.140556	 1.137100	 -1.052874
O	 1.266027	 0.764136	 -1.106570
C	 1.050492	 0.053836	 0.000068
C	 -0.318135	 -0.576402	 0.000164
O	 1.866583	 -0.043976	 0.857637
C	 -1.454360	 0.441875	 -0.000474
H	 -0.374042	 -1.230163	 -0.866135
H	 -0.374274	 -1.229227	 0.867154
C	 -2.826123	 -0.230780	 0.000056
H	 -1.357605	 1.085198	 -0.868380
H	 -1.357504	 1.086451	 0.866496
H	 -2.959731	 -0.858053	 -0.876869
H	 -3.619374	 0.509403	 -0.000080
H	 -2.959371	 -0.857318	 0.877556

	symmetry c1
}
set optking {
	frozen_dihedral = ("
		7 4 6 10,
		1 2 3 5
	")
}

ee = energy('scf')
oeprop('DIPOLE', 'QUADRUPOLE', 'MULLIKEN_CHARGES')
f=open( 'psi4out.xyz', 'w' )
f.write( "14  " )
f.write( str(ee) + "\n" )
f.write( MOL.save_string_xyz() )
f.close()
--------------------------------------------------------------------------

    Molecular point group: c1

    Geometry (in Angstrom), charge = 0, multiplicity = 1:

       Center              X                  Y                   Z               Mass
    ------------   -----------------  -----------------  -----------------  -----------------
           H          2.179373984991     1.052811056718    -0.995575559723     1.007825032070
           O          1.304844984991     0.679847056718    -1.049271559723    15.994914619560
           C          1.089309984991    -0.030452943282     0.057366440277    12.000000000000
           C         -0.279317015009    -0.660690943282     0.057462440277    12.000000000000
           O          1.905400984991    -0.128264943282     0.914935440277    15.994914619560
           C         -1.415542015009     0.357586056718     0.056824440277    12.000000000000
           H         -0.335224015009    -1.314451943282    -0.808836559723     1.007825032070
           H         -0.335456015009    -1.313515943282     0.924452440277     1.007825032070
           C         -2.787305015009    -0.315068943282     0.057354440277    12.000000000000
           H         -1.318787015009     1.000909056718    -0.811081559723     1.007825032070
           H         -1.318686015009     1.002162056718     0.923794440277     1.007825032070
           H         -2.920913015009    -0.942341943282    -0.819570559723     1.007825032070
           H         -3.580556015009     0.425114056718     0.057218440277     1.007825032070
           H         -2.920553015009    -0.941606943282     0.934854440277     1.007825032070

  Charge       = 0
  Multiplicity = 1
  Basis Set: 6-31G*
  Basis Set:

    Orbital Energies (a.u.)
    -----------------------

    Doubly Occupied:

       1A    -20.613407     2A    -20.550790     3A    -11.380529
       4A    -11.239626     5A    -11.234224     6A    -11.221179
       7A     -1.474732     8A     -1.365131     9A     -1.087391
      10A     -0.979489    11A     -0.850342    12A     -0.813235
      13A     -0.701444    14A     -0.684835    15A     -0.646195
      16A     -0.630268    17A     -0.593577    18A     -0.566616
      19A     -0.549641    20A     -0.520593    21A     -0.501444
      22A     -0.486678    23A     -0.474167    24A     -0.437864

  @DF-RHF Final Energy:  -305.87913707216626

   => Energetics <=

    Nuclear Repulsion Energy =            240.5121604498767454
    One-Electron Energy =                -893.5758747062786824
    Two-Electron Energy =                 347.1845771842350814
    DFT Exchange-Correlation Energy =       0.0000000000000000
    Empirical Dispersion Energy =           0.0000000000000000
    PCM Polarization Energy =               0.0000000000000000
    EFP Energy =                            0.0000000000000000
    Total Energy =                       -305.8791370721668272

  Mulliken Charges: (a.u.)
   Center  Symbol    Alpha    Beta     Spin     Total
       1     H     0.26761  0.26761  0.00000  0.46479
       2     O     4.34677  4.34677  0.00000 -0.69355
       3     C     2.63236  2.63236  0.00000  0.73528
       4     C     3.19933  3.19933  0.00000 -0.39866
       5     O     4.27828  4.27828  0.00000 -0.55656
       6     C     3.16386  3.16386  0.00000 -0.32772
       7     H     0.40269  0.40269  0.00000  0.19462
       8     H     0.39819  0.39819  0.00000  0.20362
       9     C     3.24190  3.24190  0.00000 -0.48380
      10     H     0.40569  0.40569  0.00000  0.18862
      11     H     0.41224  0.41224  0.00000  0.17552
      12     H     0.41859  0.41859  0.00000  0.16281
      13     H     0.41445  0.41445  0.00000  0.17110
      14     H     0.41804  0.41804  0.00000  0.16393

   Total alpha = 24.00000, Total beta = 24.00000, Total charge = -0.00000
