  ==> Input File <==

--------------------------------------------------------------------------
set {
	reference rhf
	basis 6-31G*
}

set_num_threads( 4 )
memory 2 gb

molecule MOL {
0 1

H	 -3.420663	 1.227371	 -1.044276
O	 -3.452007	 0.283848	 -0.965577
C	 -3.181085	 -0.079926	 0.364119
C	 -1.765924	 0.277073	 0.805136
H	 -3.327791	 -1.152017	 0.410903
H	 -3.905698	 0.375695	 1.036898
C	 -0.677594	 -0.417312	 -0.014550
H	 -1.637766	 1.358238	 0.744969
H	 -1.659588	 0.017670	 1.857098
C	 0.738335	 -0.034840	 0.421385
H	 -0.814977	 -0.178223	 -1.064632
H	 -0.802730	 -1.495410	 0.071702
C	 1.822265	 -0.738362	 -0.399735
H	 0.853533	 1.043532	 0.342250
H	 0.871597	 -0.279636	 1.474438
C	 2.656829	 0.189906	 -1.289666
H	 1.362602	 -1.508682	 -1.016997
H	 2.493005	 -1.257367	 0.281850
C	 1.875389	 0.854710	 -2.424475
H	 3.471997	 -0.386952	 -1.719813
H	 3.121339	 0.957063	 -0.673304
H	 1.389133	 0.111448	 -3.050778
H	 2.536853	 1.437548	 -3.058197
H	 1.108739	 1.525745	 -2.051482

	symmetry c1
}
set optking {
	frozen_dihedral = ("
		17 13 10 7
	")
}

ee = optimize('scf')
oeprop('DIPOLE', 'QUADRUPOLE', 'MULLIKEN_CHARGES')
f=open( 'psi4out.xyz', 'w' )
f.write( "24  " )
f.write( str(ee) + "\n" )
f.write( MOL.save_string_xyz() )
f.close()
--------------------------------------------------------------------------

    Molecular point group: c1
  Charge       = 0
  Multiplicity = 1
  Basis Set: 6-31G*
  Basis Set:
  @DF-RHF Final Energy:  -349.24231818657449
    Total Energy =                       -349.2423181865746074
    Molecular point group: c1
  Basis Set: 6-31G*
  Basis Set:
  Basis Set: 6-31G*
  Basis Set:
  @DF-RHF Final Energy:  -349.24260582147355
    Total Energy =                       -349.2426058214733757
  Basis Set: 6-31G*
  Basis Set:
  Basis Set: 6-31G*
  Basis Set:
  @DF-RHF Final Energy:  -349.24267871862060
    Total Energy =                       -349.2426787186205956
  Basis Set: 6-31G*
  Basis Set:
  Basis Set: 6-31G*
  Basis Set:
  @DF-RHF Final Energy:  -349.24268791331161
    Total Energy =                       -349.2426879133118973
  Basis Set: 6-31G*
  Basis Set:
  Basis Set: 6-31G*
  Basis Set:
  @DF-RHF Final Energy:  -349.24269132283922
    Total Energy =                       -349.2426913228391641
  Basis Set: 6-31G*
  Basis Set:
  Charge       = 0
  Multiplicity = 1
  Basis Set: 6-31G*
  Basis Set:

    Orbital Energies (a.u.)
    -----------------------

    Doubly Occupied:

       1A    -20.553537     2A    -11.267689     3A    -11.217204
       4A    -11.213853     5A    -11.212501     6A    -11.211322
       7A    -11.211052     8A    -11.206907     9A     -1.360133
      10A     -1.087157    11A     -1.047349    12A     -0.983523
      13A     -0.916606    14A     -0.849665    15A     -0.800897
      16A     -0.776289    17A     -0.679273    18A     -0.652931
      19A     -0.624168    20A     -0.616633    21A     -0.599349
      22A     -0.579276    23A     -0.564894    24A     -0.532419
      25A     -0.522770    26A     -0.509030    27A     -0.493100
      28A     -0.477713    29A     -0.467408    30A     -0.459569
      31A     -0.453728    32A     -0.445760    33A     -0.418552

  @DF-RHF Final Energy:  -349.24269168668860

   => Energetics <=

    Nuclear Repulsion Energy =            391.2151351360715239
    One-Electron Energy =               -1248.8911371484305164
    Two-Electron Energy =                 508.4333103256703907
    DFT Exchange-Correlation Energy =       0.0000000000000000
    Empirical Dispersion Energy =           0.0000000000000000
    PCM Polarization Energy =               0.0000000000000000
    EFP Energy =                            0.0000000000000000
    Total Energy =                       -349.2426916866886586
    Molecular point group: c1
  Basis Set: 6-31G*
  Basis Set:

  -Total Gradient:
     Atom            X                  Y                   Z
    ------   -----------------  -----------------  -----------------
       1        0.000001411315    -0.000006512951     0.000012603281
       2        0.000011777079    -0.000033758791    -0.000012765635
       3       -0.000028759289     0.000078420765     0.000023181490
       4       -0.000016585579    -0.000011495998    -0.000002858469
       5        0.000004840872     0.000008030432    -0.000015067232
       6       -0.000019397948    -0.000007369827     0.000005640659
       7        0.000065764719    -0.000459365690     0.000425856447
       8       -0.000003985443    -0.000007451718     0.000003435968
       9       -0.000000153130    -0.000006769815    -0.000009181636
      10        0.000003824406     0.000768109661    -0.000719280446
      11        0.000009199426     0.000000737386    -0.000005663414
      12        0.000007874207    -0.000001233382     0.000002641570
      13        0.000099408893    -0.000763302219     0.000894422770
      14       -0.000039253041    -0.000014361590    -0.000013513704
      15       -0.000002169482    -0.000019552031     0.000017371018
      16        0.000000034695    -0.000081911885    -0.000047237928
      17       -0.000093728242     0.000572781709    -0.000619106496
      18        0.000016653042    -0.000014163998     0.000020787783
      19       -0.000011931461     0.000024940322     0.000014666971
      20        0.000033737059     0.000003037291     0.000003467192
      21       -0.000039889475    -0.000024335494     0.000014638458
      22        0.000004387662    -0.000005572869     0.000007706593
      23       -0.000000230113    -0.000012438165     0.000007343396
      24       -0.000002830159     0.000013538857    -0.000009088636

  **** Optimization is complete! (in 6 steps) ****
    Final optimized geometry and variables:
    Molecular point group: c1

    Geometry (in Angstrom), charge = 0, multiplicity = 1:

    H           -3.113408010980     1.165177691317    -0.593165808733
    O           -3.150348493447     0.222976035481    -0.502447631586
    C           -2.876620356925    -0.125692389478     0.830734090148
    C           -1.457347658236     0.227451333932     1.261801100343
    H           -3.029705368597    -1.196104021056     0.891211652534
    H           -3.595833570677     0.342570442345     1.500549038030
    C           -0.376706070774    -0.479900105107     0.443650925074
    H           -1.323543198289     1.307394355389     1.191393897057
    H           -1.347440288369    -0.022837027168     2.315701472142
    C            1.043809549754    -0.108861340175     0.878233354635
    H           -0.515580674412    -0.249049446032    -0.607739133119
    H           -0.507620969590    -1.556607474217     0.538014319893
    C            2.152359354097    -0.805524997971     0.056137440318
    H            1.165070297016     0.970733681886     0.820807721533
    H            1.159917249037    -0.360710365091     1.929605579106
    C            2.977296893326     0.135289940584    -0.830720553337
    H            1.710816711831    -1.574790969927    -0.573992408070
    H            2.832126884341    -1.321747187557     0.727902130020
    C            2.181775026017     0.788355327747    -1.961775232501
    H            3.802549643632    -0.426402223537    -1.262032398514
    H            3.427101977215     0.908404498407    -0.211021726274
    H            1.745932001428     0.037895035780    -2.615369429858
    H            2.819980075933     1.424112346807    -2.567913632630
    H            1.372722216223     1.405386692498    -1.583300391241

  Mulliken Charges: (a.u.)
   Center  Symbol    Alpha    Beta     Spin     Total
       1     H     0.28339  0.28339  0.00000  0.43322
       2     O     4.36825  4.36825  0.00000 -0.73650
       3     C     2.99607  2.99607  0.00000  0.00786
       4     C     3.16972  3.16972  0.00000 -0.33944
       5     H     0.41633  0.41633  0.00000  0.16734
       6     H     0.42820  0.42820  0.00000  0.14360
       7     C     3.15449  3.15449  0.00000 -0.30899
       8     H     0.42844  0.42844  0.00000  0.14311
       9     H     0.42237  0.42237  0.00000  0.15525
      10     C     3.15684  3.15684  0.00000 -0.31369
      11     H     0.41042  0.41042  0.00000  0.17916
      12     H     0.42302  0.42302  0.00000  0.15395
      13     C     3.15604  3.15604  0.00000 -0.31209
      14     H     0.42259  0.42259  0.00000  0.15482
      15     H     0.42192  0.42192  0.00000  0.15615
      16     C     3.15289  3.15289  0.00000 -0.30577
      17     H     0.42041  0.42041  0.00000  0.15917
      18     H     0.41985  0.41985  0.00000  0.16031
      19     C     3.24044  3.24044  0.00000 -0.48088
      20     H     0.42206  0.42206  0.00000  0.15588
      21     H     0.42394  0.42394  0.00000  0.15212
      22     H     0.42075  0.42075  0.00000  0.15851
      23     H     0.41980  0.41980  0.00000  0.16040
      24     H     0.42174  0.42174  0.00000  0.15652

   Total alpha = 33.00000, Total beta = 33.00000, Total charge = -0.00000
