  ==> Input File <==

--------------------------------------------------------------------------
set {
	reference rhf
	basis 6-31G*
}

set_num_threads( 1 )
memory 2 gb

molecule MOL {
0 1

O	 3.225979	 0.970355	 -0.599647
C	 2.701189	 0.057885	 -0.047330
C	 1.245376	 -0.013843	 0.345420
O	 3.347903	 -1.046386	 0.304773
C	 0.455112	 1.231400	 -0.050772
H	 0.838542	 -0.913825	 -0.103701
H	 1.208210	 -0.175333	 1.419774
C	 -0.998893	 1.219485	 0.433193
H	 0.482531	 1.345121	 -1.130325
H	 0.957290	 2.103070	 0.354729
C	 -2.008461	 0.654718	 -0.570262
H	 -1.282354	 2.241629	 0.673179
H	 -1.065991	 0.661301	 1.365898
C	 -3.455286	 0.765873	 -0.085140
H	 -1.905227	 1.182613	 -1.517093
H	 -1.786850	 -0.389823	 -0.777130
C	 -4.472525	 0.199853	 -1.077600
H	 -3.689487	 1.810707	 0.111600
H	 -3.556691	 0.247300	 0.866963
C	 -5.915190	 0.318184	 -0.587278
H	 -4.371880	 0.716256	 -2.029882
H	 -4.242678	 -0.845657	 -1.272175
H	 -6.612201	 -0.091348	 -1.311892
H	 -6.187353	 1.355974	 -0.416643
H	 -6.056894	 -0.217482	 0.347203
C	 4.728119	 -1.109107	 -0.004993
H	 4.882018	 -1.033965	 -1.071845
H	 5.068212	 -2.067527	 0.355250
H	 5.265056	 -0.311663	 0.488280

	symmetry c1
}
set optking {
	frozen_dihedral = ("
		21 17 14 11,
		17 14 11 15,
		15 11 8 5,
		6 3 5 9,
		2 4 26 27,
		1 2 4 26,
		6 3 2 1
	")
}

ee = energy('scf')
oeprop('DIPOLE', 'QUADRUPOLE', 'MULLIKEN_CHARGES')
f=open( 'psi4out.xyz', 'w' )
f.write( "29  " )
f.write( str(ee) + "\n" )
f.write( MOL.save_string_xyz() )
f.close()
--------------------------------------------------------------------------

    Molecular point group: c1

    Geometry (in Angstrom), charge = 0, multiplicity = 1:

       Center              X                  Y                   Z               Mass
    ------------   -----------------  -----------------  -----------------  -----------------
           O          3.287487371619     0.689963044269    -0.421756266106    15.994914619560
           C          2.762697371619    -0.222506955731     0.130560733894    12.000000000000
           C          1.306884371619    -0.294234955731     0.523310733894    12.000000000000
           O          3.409411371619    -1.326777955731     0.482663733894    15.994914619560
           C          0.516620371619     0.951008044269     0.127118733894    12.000000000000
           H          0.900050371619    -1.194216955731     0.074189733894     1.007825032070
           H          1.269718371619    -0.455724955731     1.597664733894     1.007825032070
           C         -0.937384628381     0.939093044269     0.611083733894    12.000000000000
           H          0.544039371619     1.064729044269    -0.952434266106     1.007825032070
           H          1.018798371619     1.822678044269     0.532619733894     1.007825032070
           C         -1.946952628381     0.374326044269    -0.392371266106    12.000000000000
           H         -1.220845628381     1.961237044269     0.851069733894     1.007825032070
           H         -1.004482628381     0.380909044269     1.543788733894     1.007825032070
           C         -3.393777628381     0.485481044269     0.092750733894    12.000000000000
           H         -1.843718628381     0.902221044269    -1.339202266106     1.007825032070
           H         -1.725341628381    -0.670214955731    -0.599239266106     1.007825032070
           C         -4.411016628381    -0.080538955731    -0.899709266106    12.000000000000
           H         -3.627978628381     1.530315044269     0.289490733894     1.007825032070
           H         -3.495182628381    -0.033091955731     1.044853733894     1.007825032070
           C         -5.853681628381     0.037792044269    -0.409387266106    12.000000000000
           H         -4.310371628381     0.435864044269    -1.851991266106     1.007825032070
           H         -4.181169628381    -1.126048955731    -1.094284266106     1.007825032070
           H         -6.550692628381    -0.371739955731    -1.134001266106     1.007825032070
           H         -6.125844628381     1.075582044269    -0.238752266106     1.007825032070
           H         -5.995385628381    -0.497873955731     0.525093733894     1.007825032070
           C          4.789627371619    -1.389498955731     0.172897733894    12.000000000000
           H          4.943526371619    -1.314356955731    -0.893954266106     1.007825032070
           H          5.129720371619    -2.347918955731     0.533140733894     1.007825032070
           H          5.326564371619    -0.592054955731     0.666170733894     1.007825032070

  Charge       = 0
  Multiplicity = 1
  Basis Set: 6-31G*
  Basis Set:

    Orbital Energies (a.u.)
    -----------------------

    Doubly Occupied:

       1A    -20.603364     2A    -20.545298     3A    -11.371910
       4A    -11.280674     5A    -11.235285     6A    -11.218238
       7A    -11.216766     8A    -11.215512     9A    -11.215358
      10A    -11.213794    11A    -11.208664    12A     -1.469095
      13A     -1.362550    14A     -1.097072    15A     -1.066935
      16A     -1.019836    17A     -0.977337    18A     -0.927910
      19A     -0.859210    20A     -0.799692    21A     -0.790181
      22A     -0.765929    23A     -0.700328    24A     -0.682142
      25A     -0.672482    26A     -0.649321    27A     -0.628011
      28A     -0.604638    29A     -0.595655    30A     -0.581606
      31A     -0.566240    32A     -0.547251    33A     -0.533622
      34A     -0.530137    35A     -0.515127    36A     -0.506827
      37A     -0.499711    38A     -0.477625    39A     -0.469411
      40A     -0.462294    41A     -0.458794    42A     -0.455780
      43A     -0.441560    44A     -0.433495

  @DF-RHF Final Energy:  -501.04179990540274

   => Energetics <=

    Nuclear Repulsion Energy =            606.6217080243839064
    One-Electron Energy =               -1884.3816665704030129
    Two-Electron Energy =                 776.7181586406173892
    DFT Exchange-Correlation Energy =       0.0000000000000000
    Empirical Dispersion Energy =           0.0000000000000000
    PCM Polarization Energy =               0.0000000000000000
    EFP Energy =                            0.0000000000000000
    Total Energy =                       -501.0417999054017173

  Mulliken Charges: (a.u.)
   Center  Symbol    Alpha    Beta     Spin     Total
       1     O     4.28589  4.28589  0.00000 -0.57179
       2     C     2.60558  2.60558  0.00000  0.78885
       3     C     3.20846  3.20846  0.00000 -0.41693
       4     O     4.30756  4.30756  0.00000 -0.61512
       5     C     3.15530  3.15530  0.00000 -0.31061
       6     H     0.40005  0.40005  0.00000  0.19991
       7     H     0.40065  0.40065  0.00000  0.19871
       8     C     3.15798  3.15798  0.00000 -0.31597
       9     H     0.41164  0.41164  0.00000  0.17672
      10     H     0.40842  0.40842  0.00000  0.18316
      11     C     3.15289  3.15289  0.00000 -0.30577
      12     H     0.41830  0.41830  0.00000  0.16340
      13     H     0.42354  0.42354  0.00000  0.15292
      14     C     3.15109  3.15109  0.00000 -0.30218
      15     H     0.42164  0.42164  0.00000  0.15671
      16     H     0.42459  0.42459  0.00000  0.15081
      17     C     3.15146  3.15146  0.00000 -0.30292
      18     H     0.42338  0.42338  0.00000  0.15324
      19     H     0.42421  0.42421  0.00000  0.15158
      20     C     3.23929  3.23929  0.00000 -0.47858
      21     H     0.42268  0.42268  0.00000  0.15465
      22     H     0.42341  0.42341  0.00000  0.15317
      23     H     0.41927  0.41927  0.00000  0.16146
      24     H     0.42162  0.42162  0.00000  0.15677
      25     H     0.42194  0.42194  0.00000  0.15612
      26     C     3.09241  3.09241  0.00000 -0.18482
      27     H     0.40909  0.40909  0.00000  0.18182
      28     H     0.40852  0.40852  0.00000  0.18295
      29     H     0.40913  0.40913  0.00000  0.18173

   Total alpha = 44.00000, Total beta = 44.00000, Total charge = -0.00000
