  ==> Input File <==

--------------------------------------------------------------------------
set {
	reference rhf
	basis cc-pvtz
}

set_num_threads( 4 )
memory 2 gb

molecule MOL {
0 1

H	 2.867672	 -0.456275	 0.875795
C	 2.403497	 -0.020426	 0.000000
N	 0.989899	 -0.304564	 0.000000
H	 2.867672	 -0.456275	 -0.875795
H	 2.620366	 1.051270	 0.000000
C	 0.493171	 -0.641469	 1.318076
C	 0.631530	 -1.329812	 -0.958127
H	 0.982212	 -1.537563	 1.712535
H	 0.705912	 0.174765	 1.998686
C	 -1.004452	 -0.875190	 1.265697
H	 0.945790	 -1.018637	 -1.947641
H	 1.130978	 -2.277680	 -0.734872
C	 -0.869647	 -1.545847	 -0.952021
H	 -1.368863	 -1.216455	 2.224535
H	 -1.509265	 0.055962	 1.016263
O	 -1.329168	 -1.859447	 0.329245
H	 -1.136617	 -2.371888	 -1.596234
H	 -1.367485	 -0.649399	 -1.316215

	symmetry c1
}
set optking {
	frozen_dihedral = ("
		6 3 2 5
	")
}

ee = optimize('scf')
oeprop('DIPOLE', 'QUADRUPOLE', 'MULLIKEN_CHARGES')
f=open( 'psi4out.xyz', 'w' )
f.write( "18  " )
f.write( str(ee) + "\n" )
f.write( MOL.save_string_xyz() )
f.close()
--------------------------------------------------------------------------

    Molecular point group: c1
  Charge       = 0
  Multiplicity = 1
  Basis Set: CC-PVTZ
  Basis Set:
  @DF-RHF Final Energy:  -325.14021518557797
    Total Energy =                       -325.1402151855780289
    Molecular point group: c1
  Basis Set: CC-PVTZ
  Basis Set:
  Basis Set: CC-PVTZ
  Basis Set:
  @DF-RHF Final Energy:  -325.14081514114116
    Total Energy =                       -325.1408151411415020
  Basis Set: CC-PVTZ
  Basis Set:
  Basis Set: CC-PVTZ
  Basis Set:
  @DF-RHF Final Energy:  -325.14091452095136
    Total Energy =                       -325.1409145209513554
  Basis Set: CC-PVTZ
  Basis Set:
  Basis Set: CC-PVTZ
  Basis Set:
  @DF-RHF Final Energy:  -325.14091732379757
    Total Energy =                       -325.1409173237973391
  Basis Set: CC-PVTZ
  Basis Set:
  Charge       = 0
  Multiplicity = 1
  Basis Set: CC-PVTZ
  Basis Set:

    Orbital Energies (a.u.)
    -----------------------

    Doubly Occupied:

       1A    -20.547065     2A    -15.542973     3A    -11.263715
       4A    -11.263665     5A    -11.242427     6A    -11.242334
       7A    -11.238762     8A     -1.386052     9A     -1.230430
      10A     -1.038500    11A     -0.981147    12A     -0.883132
      13A     -0.870358    14A     -0.774743    15A     -0.684528
      16A     -0.645641    17A     -0.644039    18A     -0.631809
      19A     -0.629424    20A     -0.573114    21A     -0.557298
      22A     -0.547135    23A     -0.526315    24A     -0.500323
      25A     -0.483122    26A     -0.453327    27A     -0.409904
      28A     -0.353337

  @DF-RHF Final Energy:  -325.14091762428541

   => Energetics <=

    Nuclear Repulsion Energy =            341.5445239627703131
    One-Electron Energy =               -1119.0816411610112482
    Two-Electron Energy =                 452.3961995739554709
    DFT Exchange-Correlation Energy =       0.0000000000000000
    Empirical Dispersion Energy =           0.0000000000000000
    PCM Polarization Energy =               0.0000000000000000
    EFP Energy =                            0.0000000000000000
    Total Energy =                       -325.1409176242854642
    Molecular point group: c1
  Basis Set: CC-PVTZ
  Basis Set:

  -Total Gradient:
     Atom            X                  Y                   Z
    ------   -----------------  -----------------  -----------------
       1       -0.000003122856    -0.000011454967    -0.000004330269
       2        0.000176474089    -0.001088389745     0.004986071495
       3       -0.000845791943     0.004070503436    -0.000356278143
       4        0.000008939084    -0.000014469662    -0.000006230084
       5        0.000021298945    -0.000025400859    -0.004095595051
       6        0.000639723855    -0.002954317647    -0.000569650452
       7        0.000014753884     0.000044660016     0.000027566545
       8        0.000008258480    -0.000006086312     0.000003581622
       9       -0.000003480498    -0.000004852524     0.000005926720
      10       -0.000016139382    -0.000001232386     0.000016420480
      11       -0.000002539523    -0.000005438456     0.000001483217
      12        0.000007252880    -0.000004879156     0.000001461181
      13       -0.000019906582     0.000014201190    -0.000015466857
      14       -0.000003807493    -0.000003575620    -0.000000840717
      15        0.000003892852     0.000002662020     0.000000282546
      16        0.000012318596    -0.000011677721     0.000004063922
      17        0.000000097054    -0.000002124261     0.000006070245
      18        0.000001778553     0.000001872653    -0.000004536399

  **** Optimization is complete! (in 5 steps) ****
    Final optimized geometry and variables:
    Molecular point group: c1

    Geometry (in Angstrom), charge = 0, multiplicity = 1:

    H            2.741433079286     0.499380185732     0.714387962268
    C            2.226358491661     0.936147456441    -0.137909848092
    N            0.806023433559     0.632897622926    -0.145803514145
    H            2.697911943384     0.546719331024    -1.031948957454
    H            2.393599517147     2.007390996162    -0.141928682476
    C            0.301259897537     0.295744828885     1.169950724458
    C            0.442464637135    -0.398376484880    -1.098369423773
    H            0.780674425838    -0.606895076770     1.560158738904
    H            0.520748707772     1.105726878873     1.856685608174
    C           -1.198680643742     0.079178464135     1.116889336438
    H            0.758894342667    -0.097277787750    -2.089829481507
    H            0.928514222591    -1.351616507011    -0.869127131153
    C           -1.061440859573    -0.596465604491    -1.098296034363
    H           -1.566845577956    -0.258237219310     2.075832615466
    H           -1.692895631467     1.016153631789     0.867830476111
    O           -1.533318368333    -0.901384194544     0.180378901384
    H           -1.334617898502    -1.420425751291    -1.742824551640
    H           -1.545104060515     0.305720866866    -1.467760175180

  Mulliken Charges: (a.u.)
   Center  Symbol    Alpha    Beta     Spin     Total
       1     H     0.46314  0.46314  0.00000  0.07372
       2     C     3.09141  3.09141  0.00000 -0.18282
       3     N     3.61999  3.61999  0.00000 -0.23998
       4     H     0.45741  0.45741  0.00000  0.08517
       5     H     0.44886  0.44886  0.00000  0.10227
       6     C     3.04259  3.04259  0.00000 -0.08519
       7     C     3.04054  3.04054  0.00000 -0.08109
       8     H     0.46832  0.46832  0.00000  0.06335
       9     H     0.45349  0.45349  0.00000  0.09302
      10     C     2.98430  2.98430  0.00000  0.03139
      11     H     0.45389  0.45389  0.00000  0.09223
      12     H     0.46881  0.46881  0.00000  0.06239
      13     C     2.98459  2.98459  0.00000  0.03082
      14     H     0.45011  0.45011  0.00000  0.09979
      15     H     0.46798  0.46798  0.00000  0.06404
      16     O     4.18644  4.18644  0.00000 -0.37288
      17     H     0.45000  0.45000  0.00000  0.10000
      18     H     0.46812  0.46812  0.00000  0.06375

   Total alpha = 28.00000, Total beta = 28.00000, Total charge = -0.00000
