  ==> Input File <==

--------------------------------------------------------------------------
set {
	reference rhf
	basis 6-31G*
}

set_num_threads( 1 )
memory 2 gb

molecule MOL {
0 1

O	 2.757044	 -0.363179	 -0.275592
C	 1.705091	 0.115954	 0.001797
C	 0.381791	 -0.609817	 0.001258
O	 1.557211	 1.384816	 0.361322
C	 -0.823008	 0.326187	 0.001381
H	 0.371250	 -1.265087	 -0.865474
H	 0.370908	 -1.265746	 0.867490
C	 -2.149452	 -0.435131	 -0.000098
H	 -0.770201	 0.977095	 -0.865636
H	 -0.771220	 0.975655	 0.869608
C	 -3.368779	 0.488503	 -0.000883
H	 -2.193746	 -1.087250	 -0.871175
H	 -2.195311	 -1.087803	 0.870418
C	 -4.693822	 -0.272754	 -0.001129
H	 -3.325798	 1.139422	 -0.871284
H	 -3.326423	 1.139959	 0.869145
H	 -4.781274	 -0.907928	 -0.878124
H	 -5.538651	 0.408946	 -0.001420
H	 -4.781694	 -0.907783	 0.875984
C	 2.727348	 2.180949	 0.404991
H	 3.434506	 1.778480	 1.115958
H	 2.404719	 3.163099	 0.713483
H	 3.191510	 2.228188	 -0.569601

	symmetry c1
}
set optking {
	frozen_dihedral = ("
		15 11 8 12,
		9 5 8 12,
		9 5 3 6,
		1 2 4 20
	")
}

ee = energy('scf')
oeprop('DIPOLE', 'QUADRUPOLE', 'MULLIKEN_CHARGES')
f=open( 'psi4out.xyz', 'w' )
f.write( "23  " )
f.write( str(ee) + "\n" )
f.write( MOL.save_string_xyz() )
f.close()
--------------------------------------------------------------------------

    Molecular point group: c1

    Geometry (in Angstrom), charge = 0, multiplicity = 1:

       Center              X                  Y                   Z               Mass
    ------------   -----------------  -----------------  -----------------  -----------------
           O          2.939177182801    -0.695219969128    -0.333457569188    15.994914619560
           C          1.887224182801    -0.216086969128    -0.056068569188    12.000000000000
           C          0.563924182801    -0.941857969128    -0.056607569188    12.000000000000
           O          1.739344182801     1.052775030872     0.303456430812    15.994914619560
           C         -0.640874817199    -0.005853969128    -0.056484569188    12.000000000000
           H          0.553383182801    -1.597127969128    -0.923339569188     1.007825032070
           H          0.553041182801    -1.597786969128     0.809624430812     1.007825032070
           C         -1.967318817199    -0.767171969128    -0.057963569188    12.000000000000
           H         -0.588067817199     0.645054030872    -0.923501569188     1.007825032070
           H         -0.589086817199     0.643614030872     0.811742430812     1.007825032070
           C         -3.186645817199     0.156462030872    -0.058748569188    12.000000000000
           H         -2.011612817199    -1.419290969128    -0.929040569188     1.007825032070
           H         -2.013177817199    -1.419843969128     0.812552430812     1.007825032070
           C         -4.511688817199    -0.604794969128    -0.058994569188    12.000000000000
           H         -3.143664817199     0.807381030872    -0.929149569188     1.007825032070
           H         -3.144289817199     0.807918030872     0.811279430812     1.007825032070
           H         -4.599140817199    -1.239968969128    -0.935989569188     1.007825032070
           H         -5.356517817199     0.076905030872    -0.059285569188     1.007825032070
           H         -4.599560817199    -1.239823969128     0.818118430812     1.007825032070
           C          2.909481182801     1.848908030872     0.347125430812    12.000000000000
           H          3.616639182801     1.446439030872     1.058092430812     1.007825032070
           H          2.586852182801     2.831058030872     0.655617430812     1.007825032070
           H          3.373643182801     1.896147030872    -0.627466569188     1.007825032070

  Charge       = 0
  Multiplicity = 1
  Basis Set: 6-31G*
  Basis Set:

    Orbital Energies (a.u.)
    -----------------------

    Doubly Occupied:

       1A    -20.605228     2A    -20.542617     3A    -11.372491
       4A    -11.281278     5A    -11.235382     6A    -11.221418
       7A    -11.219099     8A    -11.218372     9A    -11.211103
      10A     -1.469952    11A     -1.361883    12A     -1.096451
      13A     -1.046069    14A     -0.981740    15A     -0.935250
      16A     -0.847199    17A     -0.796777    18A     -0.774159
      19A     -0.694613    20A     -0.684713    21A     -0.670735
      22A     -0.651945    23A     -0.609830    24A     -0.590802
      25A     -0.576613    26A     -0.562987    27A     -0.555257
      28A     -0.524594    29A     -0.522428    30A     -0.507703
      31A     -0.487771    32A     -0.480423    33A     -0.469630
      34A     -0.467379    35A     -0.452154    36A     -0.425261

  @DF-RHF Final Energy:  -422.97260672451551

   => Energetics <=

    Nuclear Repulsion Energy =            457.4562603736168853
    One-Electron Energy =               -1482.5550587889094913
    Two-Electron Energy =                 602.1261916907765226
    DFT Exchange-Correlation Energy =       0.0000000000000000
    Empirical Dispersion Energy =           0.0000000000000000
    PCM Polarization Energy =               0.0000000000000000
    EFP Energy =                            0.0000000000000000
    Total Energy =                       -422.9726067245160266

  Mulliken Charges: (a.u.)
   Center  Symbol    Alpha    Beta     Spin     Total
       1     O     4.28843  4.28843  0.00000 -0.57687
       2     C     2.60204  2.60204  0.00000  0.79592
       3     C     3.21395  3.21395  0.00000 -0.42790
       4     O     4.30483  4.30483  0.00000 -0.60966
       5     C     3.15246  3.15246  0.00000 -0.30492
       6     H     0.39813  0.39813  0.00000  0.20374
       7     H     0.39889  0.39889  0.00000  0.20222
       8     C     3.15330  3.15330  0.00000 -0.30660
       9     H     0.41664  0.41664  0.00000  0.16672
      10     H     0.40947  0.40947  0.00000  0.18106
      11     C     3.15145  3.15145  0.00000 -0.30291
      12     H     0.42329  0.42329  0.00000  0.15341
      13     H     0.42355  0.42355  0.00000  0.15291
      14     C     3.23958  3.23958  0.00000 -0.47915
      15     H     0.42218  0.42218  0.00000  0.15564
      16     H     0.42211  0.42211  0.00000  0.15579
      17     H     0.42134  0.42134  0.00000  0.15732
      18     H     0.41862  0.41862  0.00000  0.16277
      19     H     0.42149  0.42149  0.00000  0.15701
      20     C     3.09210  3.09210  0.00000 -0.18420
      21     H     0.40870  0.40870  0.00000  0.18259
      22     H     0.40886  0.40886  0.00000  0.18228
      23     H     0.40859  0.40859  0.00000  0.18282

   Total alpha = 36.00000, Total beta = 36.00000, Total charge = -0.00000
