  ==> Input File <==

--------------------------------------------------------------------------
set {
	reference rhf
	basis 6-31G*
}

set_num_threads( 4 )
memory 2 gb

molecule MOL {
0 1

H	 3.580699	 -0.881506	 -0.776002
O	 2.669654	 -1.109473	 -0.618573
C	 2.077727	 -0.067559	 -0.035091
C	 0.624473	 -0.343591	 0.253101
O	 2.663873	 0.936341	 0.209109
C	 -0.265902	 0.883932	 0.072916
H	 0.324016	 -1.163849	 -0.390541
H	 0.565024	 -0.726111	 1.268924
C	 -1.728698	 0.646073	 0.462102
H	 -0.209144	 1.219470	 -0.958188
H	 0.135059	 1.692851	 0.673903
C	 -2.482460	 -0.343073	 -0.431425
H	 -2.245265	 1.602650	 0.432430
H	 -1.779332	 0.308348	 1.496285
C	 -3.960546	 -0.461025	 -0.060175
H	 -2.395034	 -0.026811	 -1.468912
H	 -2.024850	 -1.327147	 -0.371646
H	 -4.472726	 -1.168004	 -0.705284
H	 -4.465146	 0.496508	 -0.151489
H	 -4.081218	 -0.800940	 0.964585

	symmetry c1
}
set optking {
	frozen_dihedral = ("
		5 3 4 7
	")
}

ee = optimize('scf')
oeprop('DIPOLE', 'QUADRUPOLE', 'MULLIKEN_CHARGES')
f=open( 'psi4out.xyz', 'w' )
f.write( "20  " )
f.write( str(ee) + "\n" )
f.write( MOL.save_string_xyz() )
f.close()
--------------------------------------------------------------------------

    Molecular point group: c1
  Charge       = 0
  Multiplicity = 1
  Basis Set: 6-31G*
  Basis Set:
  @DF-RHF Final Energy:  -383.94757061514275
    Total Energy =                       -383.9475706151423537
    Molecular point group: c1
  Basis Set: 6-31G*
  Basis Set:
  Basis Set: 6-31G*
  Basis Set:
  @DF-RHF Final Energy:  -383.94692099980574
    Total Energy =                       -383.9469209998056840
  Basis Set: 6-31G*
  Basis Set:
  Basis Set: 6-31G*
  Basis Set:
  @DF-RHF Final Energy:  -383.94776531497683
    Total Energy =                       -383.9477653149766638
  Basis Set: 6-31G*
  Basis Set:
  Basis Set: 6-31G*
  Basis Set:
  @DF-RHF Final Energy:  -383.94793570945859
    Total Energy =                       -383.9479357094587044
  Basis Set: 6-31G*
  Basis Set:
  Basis Set: 6-31G*
  Basis Set:
  @DF-RHF Final Energy:  -383.94791336813023
    Total Energy =                       -383.9479133681304575
  Basis Set: 6-31G*
  Basis Set:
  Basis Set: 6-31G*
  Basis Set:
  @DF-RHF Final Energy:  -383.94793760442548
    Total Energy =                       -383.9479376044250785
  Basis Set: 6-31G*
  Basis Set:
  Charge       = 0
  Multiplicity = 1
  Basis Set: 6-31G*
  Basis Set:

    Orbital Energies (a.u.)
    -----------------------

    Doubly Occupied:

       1A    -20.614164     2A    -20.549974     3A    -11.381269
       4A    -11.239661     5A    -11.225282     6A    -11.221317
       7A    -11.220582     8A    -11.212690     9A     -1.475150
      10A     -1.365169    11A     -1.096674    12A     -1.040897
      13A     -0.961059    14A     -0.868626    15A     -0.817152
      16A     -0.780639    17A     -0.701329    18A     -0.689565
      19A     -0.653994    20A     -0.639542    21A     -0.606622
      22A     -0.593751    23A     -0.575500    24A     -0.554382
      25A     -0.543820    26A     -0.512966    27A     -0.497560
      28A     -0.477514    29A     -0.471409    30A     -0.467476
      31A     -0.457562    32A     -0.442197

  @DF-RHF Final Energy:  -383.94793766727992

   => Energetics <=

    Nuclear Repulsion Energy =            375.8074229099545391
    One-Electron Energy =               -1267.5997369373544643
    Two-Electron Energy =                 507.8443763601199521
    DFT Exchange-Correlation Energy =       0.0000000000000000
    Empirical Dispersion Energy =           0.0000000000000000
    PCM Polarization Energy =               0.0000000000000000
    EFP Energy =                            0.0000000000000000
    Total Energy =                       -383.9479376672799731
    Molecular point group: c1
  Basis Set: 6-31G*
  Basis Set:

  -Total Gradient:
     Atom            X                  Y                   Z
    ------   -----------------  -----------------  -----------------
       1        0.000002344801     0.000001239034    -0.000005080228
       2        0.000004294514    -0.000019841941    -0.000000941106
       3       -0.000347188627     0.000533307204    -0.001387505388
       4       -0.000223745835     0.000726188627    -0.000510332237
       5        0.000261727260    -0.000475638812     0.001090311326
       6        0.000011286826    -0.000001951853    -0.000024059927
       7        0.000294807464    -0.000758514839     0.000813966958
       8        0.000001277358    -0.000001223014     0.000001670120
       9       -0.000005523595    -0.000001924365     0.000008859872
      10        0.000005873949     0.000006324106     0.000003293465
      11        0.000003837805    -0.000001209627    -0.000002667816
      12        0.000005519036    -0.000011667469     0.000010507167
      13       -0.000005689217    -0.000003018803     0.000002237288
      14       -0.000005241729    -0.000001606891     0.000000658978
      15       -0.000001288856     0.000008587557    -0.000004684635
      16        0.000003518596    -0.000002439636     0.000004057828
      17       -0.000006033689     0.000001046799     0.000001001388
      18       -0.000000027385     0.000003844659    -0.000002650396
      19       -0.000001214657     0.000001375082     0.000003658683
      20        0.000001465989    -0.000002875818    -0.000002301340

  **** Optimization is complete! (in 7 steps) ****
    Final optimized geometry and variables:
    Molecular point group: c1

    Geometry (in Angstrom), charge = 0, multiplicity = 1:

    H            3.649935419963    -0.858036829231    -0.639877237706
    O            2.732450253229    -1.099150292112    -0.554187696124
    C            2.084271970596    -0.068862631619    -0.015041368567
    C            0.625112882827    -0.368710956508     0.223030477656
    O            2.636145534662     0.944934241192     0.268443446393
    C           -0.261353774648     0.869370553359     0.073440089029
    H            0.326597823720    -1.179211011189    -0.428304879704
    H            0.560223771727    -0.750610385438     1.240495236915
    C           -1.719314024852     0.638422964429     0.482779936950
    H           -0.223615255413     1.215219380359    -0.956885371667
    H            0.159638342053     1.663602003798     0.678323804861
    C           -2.492120457826    -0.342451482845    -0.403329242602
    H           -2.230288005974     1.598343603853     0.465964145048
    H           -1.754307683107     0.296164683365     1.516030887281
    C           -3.964916760762    -0.454009959357    -0.009887797198
    H           -2.418987904521    -0.022084623580    -1.440709019234
    H           -2.038423287376    -1.328869701901    -0.355058089794
    H           -4.490915996668    -1.154771499720    -0.650615358737
    H           -4.465524176188     0.506766500191    -0.088443248032
    H           -4.071717250012    -0.798586891463     1.014844985799

  Mulliken Charges: (a.u.)
   Center  Symbol    Alpha    Beta     Spin     Total
       1     H     0.26821  0.26821  0.00000  0.46358
       2     O     4.35017  4.35017  0.00000 -0.70035
       3     C     2.62089  2.62089  0.00000  0.75821
       4     C     3.21425  3.21425  0.00000 -0.42850
       5     O     4.28001  4.28001  0.00000 -0.56003
       6     C     3.15958  3.15958  0.00000 -0.31915
       7     H     0.39679  0.39679  0.00000  0.20642
       8     H     0.39877  0.39877  0.00000  0.20246
       9     C     3.15524  3.15524  0.00000 -0.31047
      10     H     0.41678  0.41678  0.00000  0.16645
      11     H     0.40050  0.40050  0.00000  0.19899
      12     C     3.15468  3.15468  0.00000 -0.30936
      13     H     0.41784  0.41784  0.00000  0.16432
      14     H     0.42283  0.42283  0.00000  0.15433
      15     C     3.23933  3.23933  0.00000 -0.47867
      16     H     0.42189  0.42189  0.00000  0.15621
      17     H     0.42209  0.42209  0.00000  0.15582
      18     H     0.41825  0.41825  0.00000  0.16351
      19     H     0.42069  0.42069  0.00000  0.15862
      20     H     0.42119  0.42119  0.00000  0.15761

   Total alpha = 32.00000, Total beta = 32.00000, Total charge = -0.00000
