  ==> Input File <==

--------------------------------------------------------------------------
set {
	reference rhf
	basis cc-pvtz
}

set_num_threads( 4 )
memory 2 gb

molecule MOL {
0 1

H	 -1.835082	 1.385983	 0.000069
C	 -1.300516	 0.441153	 -0.000028
O	 -0.006604	 0.654344	 -0.000106
O	 -1.828920	 -0.612308	 0.000113
C	 0.576849	 1.187572	 -1.185464
C	 2.059186	 1.341165	 -0.940943
H	 0.108866	 2.135704	 -1.409060
H	 0.375436	 0.514900	 -2.006992
H	 2.245750	 2.014000	 -0.113624
H	 2.534399	 1.745988	 -1.826462
H	 2.513660	 0.385047	 -0.714533

	symmetry c1
}
set optking {
	frozen_dihedral = ("
		5 3 2 4
	")
}

ee = optimize('scf')
oeprop('DIPOLE', 'QUADRUPOLE', 'MULLIKEN_CHARGES')
f=open( 'psi4out.xyz', 'w' )
f.write( "11  " )
f.write( str(ee) + "\n" )
f.write( MOL.save_string_xyz() )
f.close()
--------------------------------------------------------------------------

    Molecular point group: c1
  Charge       = 0
  Multiplicity = 1
  Basis Set: CC-PVTZ
  Basis Set:
  @DF-RHF Final Energy:  -266.91305219983974
    Total Energy =                       -266.9130521998396262
    Molecular point group: c1
  Basis Set: CC-PVTZ
  Basis Set:
  Basis Set: CC-PVTZ
  Basis Set:
  @DF-RHF Final Energy:  -266.91427388625260
    Total Energy =                       -266.9142738862526016
  Basis Set: CC-PVTZ
  Basis Set:
  Basis Set: CC-PVTZ
  Basis Set:
  @DF-RHF Final Energy:  -266.91421522990606
    Total Energy =                       -266.9142152299062332
  Basis Set: CC-PVTZ
  Basis Set:
  Basis Set: CC-PVTZ
  Basis Set:
  @DF-RHF Final Energy:  -266.91439745329990
    Total Energy =                       -266.9143974532996708
  Basis Set: CC-PVTZ
  Basis Set:
  Basis Set: CC-PVTZ
  Basis Set:
  @DF-RHF Final Energy:  -266.91442569335959
    Total Energy =                       -266.9144256933593056
  Basis Set: CC-PVTZ
  Basis Set:
  Basis Set: CC-PVTZ
  Basis Set:
  @DF-RHF Final Energy:  -266.91442636450722
    Total Energy =                       -266.9144263645069373
  Basis Set: CC-PVTZ
  Basis Set:
  Charge       = 0
  Multiplicity = 1
  Basis Set: CC-PVTZ
  Basis Set:

    Orbital Energies (a.u.)
    -----------------------

    Doubly Occupied:

       1A    -20.589313     2A    -20.558784     3A    -11.373745
       4A    -11.302001     5A    -11.228779     6A     -1.471488
       7A     -1.384271     8A     -1.051211     9A     -0.887255
      10A     -0.836278    11A     -0.743772    12A     -0.693908
      13A     -0.654211    14A     -0.637646    15A     -0.566568
      16A     -0.544878    17A     -0.538525    18A     -0.508791
      19A     -0.468066    20A     -0.457252

  @DF-RHF Final Energy:  -266.91442781695906

   => Energetics <=

    Nuclear Repulsion Energy =            177.0800419525876919
    One-Electron Energy =                -714.9954580867565710
    Two-Electron Energy =                 271.0009883172099308
    DFT Exchange-Correlation Energy =       0.0000000000000000
    Empirical Dispersion Energy =           0.0000000000000000
    PCM Polarization Energy =               0.0000000000000000
    EFP Energy =                            0.0000000000000000
    Total Energy =                       -266.9144278169590052
    Molecular point group: c1
  Basis Set: CC-PVTZ
  Basis Set:

  -Total Gradient:
     Atom            X                  Y                   Z
    ------   -----------------  -----------------  -----------------
       1       -0.000013089908    -0.000006227711     0.000004604523
       2        0.000238713523    -0.001794721693     0.005714424043
       3       -0.000399090987     0.004457548087    -0.000167126036
       4       -0.000069674183     0.000287736951    -0.004245633210
       5        0.000240049400    -0.002934242776    -0.001305044968
       6        0.000004376341    -0.000007545993    -0.000001357453
       7       -0.000000867215     0.000002076809    -0.000006591469
       8        0.000002755107    -0.000003124764     0.000010261203
       9       -0.000004930860    -0.000001953641    -0.000002068710
      10        0.000000102684     0.000000157968    -0.000002450070
      11        0.000001656102     0.000000296762     0.000000982145

  **** Optimization is complete! (in 7 steps) ****
    Final optimized geometry and variables:
    Molecular point group: c1

    Geometry (in Angstrom), charge = 0, multiplicity = 1:

    H           -1.720044951086     0.825426620514     0.511701411800
    C           -1.205435259795    -0.133736209404     0.443073529304
    O            0.123402919465    -0.018127174394     0.429801042096
    O           -1.775575312229    -1.154557032839     0.384077787513
    C            0.688892037416     0.548786758098    -0.741661699202
    C            2.164932985557     0.759517694005    -0.503532452709
    H            0.196050824044     1.491146800580    -0.964901000589
    H            0.520336999977    -0.127355131545    -1.571172855038
    H            2.324785942588     1.439339431665     0.323328350231
    H            2.624730680173     1.178362925733    -1.390740818083
    H            2.648220815305    -0.180954125322    -0.274349894494

  Mulliken Charges: (a.u.)
   Center  Symbol    Alpha    Beta     Spin     Total
       1     H     0.47019  0.47019  0.00000  0.05963
       2     C     2.83944  2.83944  0.00000  0.32111
       3     O     4.15116  4.15116  0.00000 -0.30231
       4     O     4.16299  4.16299  0.00000 -0.32599
       5     C     2.97000  2.97000  0.00000  0.06000
       6     C     3.13336  3.13336  0.00000 -0.26673
       7     H     0.46625  0.46625  0.00000  0.06750
       8     H     0.45607  0.45607  0.00000  0.08787
       9     H     0.44948  0.44948  0.00000  0.10103
      10     H     0.45571  0.45571  0.00000  0.08857
      11     H     0.44534  0.44534  0.00000  0.10931

   Total alpha = 20.00000, Total beta = 20.00000, Total charge =  0.00000
