  ==> Input File <==

--------------------------------------------------------------------------
set {
	reference rhf
	basis 6-31G*
}

set_num_threads( 1 )
memory 2 gb

molecule MOL {
0 1

O	 0.448130	 1.153082	 -0.665756
C	 0.486307	 0.169203	 0.000779
C	 1.608116	 -0.841643	 0.000302
O	 -0.473052	 -0.176598	 0.847926
C	 2.990107	 -0.200498	 -0.000684
H	 1.468623	 -1.481519	 -0.865924
H	 1.469683	 -1.481289	 0.866878
H	 3.129736	 0.423364	 -0.875135
H	 3.757882	 -0.966877	 -0.001197
H	 3.130964	 0.423383	 0.873533
C	 -1.600225	 0.686968	 0.953454
C	 -2.543248	 0.080045	 1.970638
H	 -2.065906	 0.779104	 -0.018264
H	 -1.264548	 1.669568	 1.255794
H	 -2.865949	 -0.905833	 1.655891
H	 -3.420409	 0.709088	 2.082631
H	 -2.060315	 -0.010486	 2.936991

	symmetry c1
}
set optking {
	frozen_dihedral = ("
		2 4 11 13,
		11 4 2 3
	")
}

ee = energy('scf')
oeprop('DIPOLE', 'QUADRUPOLE', 'MULLIKEN_CHARGES')
f=open( 'psi4out.xyz', 'w' )
f.write( "17  " )
f.write( str(ee) + "\n" )
f.write( MOL.save_string_xyz() )
f.close()
--------------------------------------------------------------------------

    Molecular point group: c1

    Geometry (in Angstrom), charge = 0, multiplicity = 1:

       Center              X                  Y                   Z               Mass
    ------------   -----------------  -----------------  -----------------  -----------------
           O          0.328760320848     1.020821292004    -1.116247134668    15.994914619560
           C          0.366937320848     0.036942292004    -0.449712134668    12.000000000000
           C          1.488746320848    -0.973903707996    -0.450189134668    12.000000000000
           O         -0.592421679152    -0.308858707996     0.397434865332    15.994914619560
           C          2.870737320848    -0.332758707996    -0.451175134668    12.000000000000
           H          1.349253320848    -1.613779707996    -1.316415134668     1.007825032070
           H          1.350313320848    -1.613549707996     0.416386865332     1.007825032070
           H          3.010366320848     0.291103292004    -1.325626134668     1.007825032070
           H          3.638512320848    -1.099137707996    -0.451688134668     1.007825032070
           H          3.011594320848     0.291122292004     0.423041865332     1.007825032070
           C         -1.719594679152     0.554707292004     0.502962865332    12.000000000000
           C         -2.662617679152    -0.052215707996     1.520146865332    12.000000000000
           H         -2.185275679152     0.646843292004    -0.468755134668     1.007825032070
           H         -1.383917679152     1.537307292004     0.805302865332     1.007825032070
           H         -2.985318679152    -1.038093707996     1.205399865332     1.007825032070
           H         -3.539778679152     0.576827292004     1.632139865332     1.007825032070
           H         -2.179684679152    -0.142746707996     2.486499865332     1.007825032070

  Charge       = 0
  Multiplicity = 1
  Basis Set: 6-31G*
  Basis Set:

    Orbital Energies (a.u.)
    -----------------------

    Doubly Occupied:

       1A    -20.602336     2A    -20.542760     3A    -11.371086
       4A    -11.284530     5A    -11.236246     6A    -11.222357
       7A    -11.220398     8A     -1.467662     9A     -1.361395
      10A     -1.070933    11A     -1.032097    12A     -0.911157
      13A     -0.849264    14A     -0.774668    15A     -0.694249
      16A     -0.687318    17A     -0.665658    18A     -0.622814
      19A     -0.589679    20A     -0.574337    21A     -0.556675
      22A     -0.529366    23A     -0.526405    24A     -0.510363
      25A     -0.503089    26A     -0.491505    27A     -0.452182
      28A     -0.433725

  @DF-RHF Final Energy:  -344.91032080918393

   => Energetics <=

    Nuclear Repulsion Energy =            314.8582314972751988
    One-Electron Energy =               -1093.9685831656561277
    Two-Electron Energy =                 434.2000308591964881
    DFT Exchange-Correlation Energy =       0.0000000000000000
    Empirical Dispersion Energy =           0.0000000000000000
    PCM Polarization Energy =               0.0000000000000000
    EFP Energy =                            0.0000000000000000
    Total Energy =                       -344.9103208091843840

  Mulliken Charges: (a.u.)
   Center  Symbol    Alpha    Beta     Spin     Total
       1     O     4.28641  4.28641  0.00000 -0.57282
       2     C     2.60465  2.60465  0.00000  0.79069
       3     C     3.20705  3.20705  0.00000 -0.41411
       4     O     4.31159  4.31159  0.00000 -0.62319
       5     C     3.24412  3.24412  0.00000 -0.48824
       6     H     0.40009  0.40009  0.00000  0.19982
       7     H     0.40051  0.40051  0.00000  0.19899
       8     H     0.40381  0.40381  0.00000  0.19237
       9     H     0.41528  0.41528  0.00000  0.16944
      10     H     0.41475  0.41475  0.00000  0.17051
      11     C     3.00313  3.00313  0.00000 -0.00626
      12     C     3.24847  3.24847  0.00000 -0.49693
      13     H     0.41011  0.41011  0.00000  0.17979
      14     H     0.41003  0.41003  0.00000  0.17993
      15     H     0.41181  0.41181  0.00000  0.17637
      16     H     0.41625  0.41625  0.00000  0.16749
      17     H     0.41193  0.41193  0.00000  0.17613

   Total alpha = 28.00000, Total beta = 28.00000, Total charge = -0.00000
