  ==> Input File <==

--------------------------------------------------------------------------
set {
	reference rhf
	basis 6-31G*
}

set_num_threads( 4 )
memory 2 gb

molecule MOL {
0 1

O	 -3.110064	 0.724894	 0.929968
C	 -2.668563	 0.129746	 -0.000350
C	 -3.396089	 -0.042625	 -1.308884
O	 -1.481751	 -0.454642	 0.000584
H	 -3.615734	 0.936896	 -1.716506
H	 -2.817695	 -0.614772	 -2.019199
H	 -4.340818	 -0.537940	 -1.119069
C	 -0.334255	 0.388708	 0.000906
C	 0.891947	 -0.504646	 0.000751
H	 -0.365390	 1.025305	 -0.873475
H	 -0.365484	 1.024911	 0.875569
C	 2.191998	 0.301789	 0.000897
H	 0.855148	 -1.151283	 -0.871571
H	 0.855132	 -1.151660	 0.872805
C	 3.441114	 -0.581407	 0.000108
H	 2.215074	 0.954890	 -0.869742
H	 2.215465	 0.953923	 0.872248
C	 4.739576	 0.224112	 -0.001102
H	 3.419457	 -1.233487	 -0.870178
H	 3.420834	 -1.233096	 0.870717
H	 4.804918	 0.861552	 -0.878265
H	 5.606527	 -0.429058	 -0.001824
H	 4.806469	 0.861674	 0.875853

	symmetry c1
}
set optking {
	frozen_dihedral = ("
		1 2 4 8
	")
}

ee = optimize('scf')
oeprop('DIPOLE', 'QUADRUPOLE', 'MULLIKEN_CHARGES')
f=open( 'psi4out.xyz', 'w' )
f.write( "23  " )
f.write( str(ee) + "\n" )
f.write( MOL.save_string_xyz() )
f.close()
--------------------------------------------------------------------------

    Molecular point group: c1
  Charge       = 0
  Multiplicity = 1
  Basis Set: 6-31G*
  Basis Set:
  @DF-RHF Final Energy:  -422.96063298478816
    Total Energy =                       -422.9606329847883899
    Molecular point group: c1
  Basis Set: 6-31G*
  Basis Set:
  Basis Set: 6-31G*
  Basis Set:
  @DF-RHF Final Energy:  -422.95913361254105
    Total Energy =                       -422.9591336125412226
  Basis Set: 6-31G*
  Basis Set:
  Basis Set: 6-31G*
  Basis Set:
  @DF-RHF Final Energy:  -422.96168696120316
    Total Energy =                       -422.9616869612030996
  Basis Set: 6-31G*
  Basis Set:
  Basis Set: 6-31G*
  Basis Set:
  @DF-RHF Final Energy:  -422.96189228683198
    Total Energy =                       -422.9618922868321533
  Basis Set: 6-31G*
  Basis Set:
  @DF-RHF Final Energy:  -422.96190105672150
    Total Energy =                       -422.9619010567213309
  @DF-RHF Final Energy:  -422.96190663900546
    Total Energy =                       -422.9619066390057469
  @DF-RHF Final Energy:  -422.96190883154367
    Total Energy =                       -422.9619088315436102
  @DF-RHF Final Energy:  -422.96193091955394
    Total Energy =                       -422.9619309195544474
  @DF-RHF Final Energy:  -422.96193496938452
    Total Energy =                       -422.9619349693848562
  @DF-RHF Final Energy:  -422.95515859309671
    Total Energy =                       -422.9551585930970532
  @DF-RHF Final Energy:  -422.96154852973700
    Total Energy =                       -422.9615485297372288
  @DF-RHF Final Energy:  -422.96195292210274
    Total Energy =                       -422.9619529221029097
  @DF-RHF Final Energy:  -422.96197166348287
    Total Energy =                       -422.9619716634836095
  @DF-RHF Final Energy:  -422.96200638801554
    Total Energy =                       -422.9620063880156522
  @DF-RHF Final Energy:  -422.96217061614226
    Total Energy =                       -422.9621706161418615
  @DF-RHF Final Energy:  -422.96227270607267
    Total Energy =                       -422.9622727060726675
  @DF-RHF Final Energy:  -422.96237964312206
    Total Energy =                       -422.9623796431220626
  @DF-RHF Final Energy:  -422.96210106781979
    Total Energy =                       -422.9621010678197308
  @DF-RHF Final Energy:  -422.96236088194229
    Total Energy =                       -422.9623608819424589
  @DF-RHF Final Energy:  -422.96251799118130
    Total Energy =                       -422.9625179911811301
  @DF-RHF Final Energy:  -422.96246514629939
    Total Energy =                       -422.9624651463001328
  @DF-RHF Final Energy:  -422.96243066584719
    Total Energy =                       -422.9624306658469095
  @DF-RHF Final Energy:  -422.96256381988297
    Total Energy =                       -422.9625638198829165
  @DF-RHF Final Energy:  -422.96256811437127
    Total Energy =                       -422.9625681143708107
  @DF-RHF Final Energy:  -422.96256700221778
    Total Energy =                       -422.9625670022173836
  @DF-RHF Final Energy:  -422.96256515480866
    Total Energy =                       -422.9625651548086580
  @DF-RHF Final Energy:  -422.96256105031085
    Total Energy =                       -422.9625610503110238
  @DF-RHF Final Energy:  -422.90087120694909
    Total Energy =                       -422.9008712069494322
  @DF-RHF Final Energy:  -422.83002057039226
    Total Energy =                       -422.8300205703924348
  @DF-RHF Final Energy:  -422.82195116298163
    Total Energy =                       -422.8219511629815770
  @DF-RHF Final Energy:  -422.73717669654792
    Total Energy =                       -422.7371766965474080
  @DF-RHF Final Energy:  -422.71440491120762
    Total Energy =                       -422.7144049112074526
  @DF-RHF Final Energy:  -422.72849834816651
    Total Energy =                       -422.7284983481665677
  @DF-RHF Final Energy:  -422.77399771718353
    Total Energy =                       -422.7739977171830787
  @DF-RHF Final Energy:  -422.73688238051591
    Total Energy =                       -422.7368823805154534
  @DF-RHF Final Energy:  -422.79326437759403
    Total Energy =                       -422.7932643775947099
  Basis Set: 6-31G*
  Basis Set:
  @DF-RHF Final Energy:  -422.75933195897494
    Total Energy =                       -422.7593319589744851
  Basis Set: 6-31G*
  Basis Set:
  Basis Set: 6-31G*
  Basis Set:
  @DF-RHF Final Energy:  -422.78110253794785
    Total Energy =                       -422.7811025379481862
  Basis Set: 6-31G*
  Basis Set:
  Basis Set: 6-31G*
  Basis Set:
  @DF-RHF Final Energy:  -422.84869722410815
    Total Energy =                       -422.8486972241076955
  Basis Set: 6-31G*
  Basis Set:
  Charge       = 0
  Multiplicity = 1
  Basis Set: 6-31G*
  Basis Set:

    Orbital Energies (a.u.)
    -----------------------

    Doubly Occupied:

       1A    -20.577641     2A    -20.573403     3A    -11.385067
       4A    -11.288697     5A    -11.265685     6A    -11.234068
       7A    -11.231390     8A    -11.220637     9A    -11.211434
      10A     -1.490117    11A     -1.386862    12A     -1.072799
      13A     -1.027350    14A     -0.996940    15A     -0.934544
      16A     -0.843204    17A     -0.780307    18A     -0.774865
      19A     -0.702279    20A     -0.695895    21A     -0.662013
      22A     -0.643288    23A     -0.621560    24A     -0.590536
      25A     -0.580372    26A     -0.576517    27A     -0.550668
      28A     -0.536903    29A     -0.515001    30A     -0.500368
      31A     -0.490700    32A     -0.484454    33A     -0.451232
      34A     -0.445050    35A     -0.424169    36A     -0.417852

  @DF-RHF Final Energy:  -422.81479442572146

   => Energetics <=

    Nuclear Repulsion Energy =            441.3880846601013559
    One-Electron Energy =               -1450.0380214972487920
    Two-Electron Energy =                 585.8351424114257497
    DFT Exchange-Correlation Energy =       0.0000000000000000
    Empirical Dispersion Energy =           0.0000000000000000
    PCM Polarization Energy =               0.0000000000000000
    EFP Energy =                            0.0000000000000000
    Total Energy =                       -422.8147944257216295
    Molecular point group: c1
  Basis Set: 6-31G*
  Basis Set:

  -Total Gradient:
     Atom            X                  Y                   Z
    ------   -----------------  -----------------  -----------------
       1        0.026280670532    -0.087734058895    -0.074297978180
       2       -0.018838232718     0.187975299192     0.066377177302
       3        0.002799885746     0.059848521972    -0.065349533231
       4        0.001002553615     0.004850752375     0.042089972379
       5        0.049161382731    -0.071789165689     0.085822811113
       6       -0.025509411521    -0.044682557145    -0.028114910871
       7       -0.006253884664    -0.007655066230     0.001479936717
       8       -0.030617077966     0.010506791915     0.006488229976
       9       -0.011034769389     0.096937797704    -0.068326721509
      10       -0.008663806240    -0.002850733922    -0.000414392615
      11       -0.034784844454    -0.027469667687    -0.016723665651
      12       -0.008240373715    -0.038950275857    -0.010409065075
      13        0.016146496772    -0.031680035960    -0.037893508347
      14        0.031333461840    -0.042618777969     0.065736408066
      15        0.011072708665     0.008924264689     0.042973041065
      16       -0.021351943641    -0.008692968622    -0.008401414741
      17       -0.003297522369    -0.002578561049     0.016095299709
      18        0.027508370236     0.016634296995    -0.012868998821
      19        0.004855297871     0.003031403768     0.007046210915
      20        0.012291344825     0.022004261948    -0.016636660708
      21       -0.017634852058    -0.040040859792     0.020720697032
      22        0.006670361984    -0.000674713896    -0.005763610589
      23       -0.002895816079    -0.003295947848    -0.009629323936

    Molecular point group: c1

    Geometry (in Angstrom), charge = 0, multiplicity = 1:

    O           -3.042737707139     0.524819544415     0.959811514576
    C           -2.683365382188     0.181640251153    -0.065301397791
    C           -3.764420715068    -0.616726692998    -0.920771188401
    O           -1.446591726117    -0.329533343451    -0.330719398815
    H           -4.127071719282     0.062304098719    -1.547361403535
    H           -3.579126193288    -1.561082236901    -1.416043285615
    H           -4.486444003075    -0.776156681613    -0.049731929840
    C           -0.383643348651     0.665129690904    -0.239048033669
    C            0.888051573635    -0.085353739228    -0.337037268053
    H           -0.680888517107     1.354124734233    -1.020551621501
    H           -0.619818726885     1.093020568189     0.777745721717
    C            2.195931710643     0.552348729328     0.147226613216
    H            1.065632729356    -0.659757325715    -1.278032120710
    H            0.955886917493    -0.735392393162     0.540770438027
    C            3.470158627011    -0.435018596834     0.201058031437
    H            2.346299816821     1.338993833773    -0.584301515663
    H            1.834596582092     1.060630132044     1.076971390469
    C            4.964757457317    -0.352816249342     0.529729204435
    H            3.614211208388    -0.921098000929    -0.756320036215
    H            3.033855536534    -1.210743222419     0.749679514020
    H            5.428051635433     0.350790758498    -0.177487136316
    H            5.405108035808    -1.305888492261     0.276475699830
    H            5.245721300022    -0.107979852671     1.570023752567

  Mulliken Charges: (a.u.)
   Center  Symbol    Alpha    Beta     Spin     Total
       1     O     4.21350  4.21350  0.00000 -0.42700
       2     C     2.65936  2.65936  0.00000  0.68128
       3     C     3.28460  3.28460  0.00000 -0.56920
       4     O     4.30678  4.30678  0.00000 -0.61356
       5     H     0.40092  0.40092  0.00000  0.19817
       6     H     0.39760  0.39760  0.00000  0.20481
       7     H     0.40408  0.40408  0.00000  0.19185
       8     C     2.99058  2.99058  0.00000  0.01884
       9     C     3.16566  3.16566  0.00000 -0.33132
      10     H     0.42631  0.42631  0.00000  0.14739
      11     H     0.40561  0.40561  0.00000  0.18878
      12     C     3.14685  3.14685  0.00000 -0.29370
      13     H     0.41268  0.41268  0.00000  0.17465
      14     H     0.45017  0.45017  0.00000  0.09966
      15     C     3.15696  3.15696  0.00000 -0.31392
      16     H     0.42494  0.42494  0.00000  0.15013
      17     H     0.42111  0.42111  0.00000  0.15779
      18     C     3.23738  3.23738  0.00000 -0.47476
      19     H     0.42646  0.42646  0.00000  0.14709
      20     H     0.41734  0.41734  0.00000  0.16531
      21     H     0.41351  0.41351  0.00000  0.17298
      22     H     0.41898  0.41898  0.00000  0.16204
      23     H     0.41864  0.41864  0.00000  0.16271

   Total alpha = 36.00000, Total beta = 36.00000, Total charge =  0.00000
