  ==> Input File <==

--------------------------------------------------------------------------
set {
	reference rhf
	basis 6-31G*
}

set_num_threads( 4 )
memory 2 gb

molecule MOL {
0 1

H	 2.933193	 -0.398230	 0.787027
N	 2.434251	 -0.367735	 -0.081097
C	 1.267428	 0.496480	 0.024474
H	 2.156861	 -1.308411	 -0.288698
C	 -0.016086	 -0.325158	 -0.029487
H	 1.288818	 1.183521	 -0.816092
H	 1.267576	 1.109062	 0.929528
C	 -1.282277	 0.529072	 0.046735
H	 -0.012495	 -0.908639	 -0.945788
H	 -0.015903	 -1.041248	 0.791956
C	 -2.563920	 -0.301775	 -0.006060
H	 -1.284084	 1.244622	 -0.773004
H	 -1.271387	 1.115393	 0.963286
H	 -2.621848	 -0.873522	 -0.927727
H	 -3.445135	 0.329952	 0.047812
H	 -2.609542	 -1.004582	 0.821105

	symmetry c1
}
set optking {
	frozen_dihedral = ("
		1 2 3 6
	")
}

ee = optimize('scf')
oeprop('DIPOLE', 'QUADRUPOLE', 'MULLIKEN_CHARGES')
f=open( 'psi4out.xyz', 'w' )
f.write( "16  " )
f.write( str(ee) + "\n" )
f.write( MOL.save_string_xyz() )
f.close()
--------------------------------------------------------------------------

    Molecular point group: c1
  Charge       = 0
  Multiplicity = 1
  Basis Set: 6-31G*
  Basis Set:
  @DF-RHF Final Energy:  -212.31173974911812
    Total Energy =                       -212.3117397491182601
    Molecular point group: c1
  Basis Set: 6-31G*
  Basis Set:
  Basis Set: 6-31G*
  Basis Set:
  @DF-RHF Final Energy:  -212.31299208657626
    Total Energy =                       -212.3129920865760027
  Basis Set: 6-31G*
  Basis Set:
  Basis Set: 6-31G*
  Basis Set:
  @DF-RHF Final Energy:  -212.31320335323969
    Total Energy =                       -212.3132033532396008
  Basis Set: 6-31G*
  Basis Set:
  Basis Set: 6-31G*
  Basis Set:
  @DF-RHF Final Energy:  -212.31321670902645
    Total Energy =                       -212.3132167090263351
  Basis Set: 6-31G*
  Basis Set:
  Basis Set: 6-31G*
  Basis Set:
  @DF-RHF Final Energy:  -212.31322674132855
    Total Energy =                       -212.3132267413286058
  Basis Set: 6-31G*
  Basis Set:
  Basis Set: 6-31G*
  Basis Set:
  @DF-RHF Final Energy:  -212.31322797049813
    Total Energy =                       -212.3132279704983034
  Basis Set: 6-31G*
  Basis Set:
  Charge       = 0
  Multiplicity = 1
  Basis Set: 6-31G*
  Basis Set:

    Orbital Energies (a.u.)
    -----------------------

    Doubly Occupied:

       1A    -15.528465     2A    -11.239429     3A    -11.218373
       4A    -11.215696     5A    -11.210973     6A     -1.172906
       7A     -1.062446     8A     -0.960161     9A     -0.847559
      10A     -0.798103    11A     -0.669912    12A     -0.633106
      13A     -0.595986    14A     -0.586280    15A     -0.563259
      16A     -0.522301    17A     -0.509042    18A     -0.477395
      19A     -0.472971    20A     -0.465420    21A     -0.371106

  @DF-RHF Final Energy:  -212.31322823109417

   => Energetics <=

    Nuclear Repulsion Energy =            186.0823143244343782
    One-Electron Energy =                -654.5493073817522145
    Two-Electron Energy =                 256.1537648262237781
    DFT Exchange-Correlation Energy =       0.0000000000000000
    Empirical Dispersion Energy =           0.0000000000000000
    PCM Polarization Energy =               0.0000000000000000
    EFP Energy =                            0.0000000000000000
    Total Energy =                       -212.3132282310940582
    Molecular point group: c1
  Basis Set: 6-31G*
  Basis Set:

  -Total Gradient:
     Atom            X                  Y                   Z
    ------   -----------------  -----------------  -----------------
       1        0.001392880774     0.002164131844    -0.000636890794
       2       -0.001484669072    -0.002311521218     0.001138818870
       3       -0.001055819955    -0.001378913159    -0.001919807739
       4       -0.000007667035     0.000007912508     0.000011043913
       5       -0.000023556899    -0.000013817207    -0.000002331506
       6        0.001162267476     0.001565733686     0.001400205861
       7        0.000021956598    -0.000013015960     0.000001964590
       8       -0.000025099561    -0.000002405664     0.000012612351
       9       -0.000009342419    -0.000000733967    -0.000003720316
      10       -0.000016496340    -0.000006884042     0.000007782766
      11        0.000020434893    -0.000008430633    -0.000011855018
      12       -0.000000159075     0.000000081750    -0.000004944404
      13        0.000011581802    -0.000003695624     0.000005207550
      14       -0.000001690125    -0.000006921589    -0.000001438441
      15        0.000017574372     0.000007298029    -0.000004158181
      16       -0.000002195434     0.000001181247     0.000007510498

  **** Optimization is complete! (in 7 steps) ****
    Final optimized geometry and variables:
    Molecular point group: c1

    Geometry (in Angstrom), charge = 0, multiplicity = 1:

    H            2.962729410195    -0.378848804044     0.806965424404
    N            2.483782306000    -0.326141360275    -0.067637853193
    C            1.271179505604     0.481178978885     0.019019145922
    H            2.296956328367    -1.257405862950    -0.380074016833
    C           -0.023594598163    -0.329273162773    -0.014301153653
    H            1.268894080579     1.210321175476    -0.787416498504
    H            1.304329049345     1.061437890286     0.937436685449
    C           -1.281213355763     0.539417444843     0.036327770864
    H           -0.040189446189    -0.931619097844    -0.922166425857
    H           -0.027154292702    -1.028604873379     0.820395759792
    C           -2.572452261910    -0.276792732805    -0.009110895848
    H           -1.268118771075     1.240079947101    -0.795487646602
    H           -1.267254830452     1.141230977455     0.942659581925
    H           -2.632763813630    -0.864204262563    -0.920897751024
    H           -3.445659755349     0.367024967124     0.027702613096
    H           -2.632152756337    -0.963633742860     0.830423304018

  Mulliken Charges: (a.u.)
   Center  Symbol    Alpha    Beta     Spin     Total
       1     H     0.33093  0.33093  0.00000  0.33814
       2     N     3.93254  3.93254  0.00000 -0.86507
       3     C     3.04761  3.04761  0.00000 -0.09521
       4     H     0.33135  0.33135  0.00000  0.33729
       5     C     3.16397  3.16397  0.00000 -0.32795
       6     H     0.42040  0.42040  0.00000  0.15921
       7     H     0.42606  0.42606  0.00000  0.14788
       8     C     3.15519  3.15519  0.00000 -0.31039
       9     H     0.42363  0.42363  0.00000  0.15274
      10     H     0.42484  0.42484  0.00000  0.15032
      11     C     3.23897  3.23897  0.00000 -0.47794
      12     H     0.42054  0.42054  0.00000  0.15891
      13     H     0.42252  0.42252  0.00000  0.15496
      14     H     0.42115  0.42115  0.00000  0.15769
      15     H     0.41858  0.41858  0.00000  0.16284
      16     H     0.42171  0.42171  0.00000  0.15657

   Total alpha = 21.00000, Total beta = 21.00000, Total charge =  0.00000
