                              Psi4 1.0.54 Driver

  ==> Input File <==

--------------------------------------------------------------------------
set {
	reference rhf
	basis cc-pvtz
}

set_num_threads( 4 )
memory 2 gb

molecule MOL {
0 1

H	 -1.835082	 1.385983	 0.000069
C	 -1.300516	 0.441153	 -0.000028
O	 -0.006604	 0.654344	 -0.000106
O	 -1.828920	 -0.612308	 0.000113
C	 0.647086	 0.762183	 1.261196
C	 2.114790	 1.004397	 1.000660
H	 0.485714	 -0.150303	 1.817331
H	 0.201100	 1.574395	 1.817408
H	 2.547061	 0.185466	 0.439890
H	 2.642472	 1.091445	 1.942907
H	 2.261017	 1.918826	 0.439940

	symmetry c1
}
set optking {
	frozen_dihedral = ("
		5 3 2 4
	")
}

ee,wfn = optimize('scf', return_wfn=True)
oeprop( wfn, 'DIPOLE', 'QUADRUPOLE', 'MULLIKEN_CHARGES')
f=open( 'psi4out.xyz', 'w' )
f.write( "11  " )
f.write( str(ee) + "\n" )
f.write( MOL.save_string_xyz() )
f.close()
--------------------------------------------------------------------------

    Molecular point group: c1
  Charge       = 0
  Multiplicity = 1
  Basis Set: CC-PVTZ
  Basis Set:
  @DF-RHF Final Energy:  -266.91184978776278
    Total Energy =                       -266.9118497877629466
    Molecular point group: c1
  Basis Set: CC-PVTZ
  Basis Set:
  Basis Set: CC-PVTZ
  Basis Set:
  @DF-RHF Final Energy:  -266.91192156136083
    Total Energy =                       -266.9119215613608276
  Basis Set: CC-PVTZ
  Basis Set:
  Basis Set: CC-PVTZ
  Basis Set:
  @DF-RHF Final Energy:  -266.91289760253471
    Total Energy =                       -266.9128976025344286
  Basis Set: CC-PVTZ
  Basis Set:
  Basis Set: CC-PVTZ
  Basis Set:
  @DF-RHF Final Energy:  -266.91313285198498
    Total Energy =                       -266.9131328519849831
  Basis Set: CC-PVTZ
  Basis Set:
  Basis Set: CC-PVTZ
  Basis Set:
  @DF-RHF Final Energy:  -266.91314042846938
    Total Energy =                       -266.9131404284693190
  Basis Set: CC-PVTZ
  Basis Set:
  Charge       = 0
  Multiplicity = 1
  Basis Set: CC-PVTZ
  Basis Set:

    Orbital Energies (a.u.)
    -----------------------

    Doubly Occupied:

       1A    -20.585450     2A    -20.560680     3A    -11.373823
       4A    -11.299738     5A    -11.227029     6A     -1.470161
       7A     -1.382097     8A     -1.049839     9A     -0.888649
      10A     -0.828360    11A     -0.743467    12A     -0.693210
      13A     -0.649601    14A     -0.641743    15A     -0.564404
      16A     -0.542631    17A     -0.536412    18A     -0.507605
      19A     -0.467527    20A     -0.456781

  @DF-RHF Final Energy:  -266.91314130663147

   => Energetics <=

    Nuclear Repulsion Energy =            177.4089726244995973
    One-Electron Energy =                -715.7058152588606390
    Two-Electron Energy =                 271.3837013277296819
    DFT Exchange-Correlation Energy =       0.0000000000000000
    Empirical Dispersion Energy =           0.0000000000000000
    PCM Polarization Energy =               0.0000000000000000
    EFP Energy =                            0.0000000000000000
    Total Energy =                       -266.9131413066313598
    Molecular point group: c1
  Basis Set: CC-PVTZ
  Basis Set:

  -Total Gradient:
     Atom            X                  Y                   Z
    ------   -----------------  -----------------  -----------------
       1       -0.000003610690    -0.000024478409    -0.000009068196
       2        0.000067987664     0.000267745958     0.001041233639
       3        0.000089308857    -0.000723050734    -0.000299764894
       4       -0.000079354776    -0.000046444582    -0.000690079964
       5       -0.000074762572     0.000518348386    -0.000042095924
       6        0.000019044267     0.000003616171     0.000001002357
       7       -0.000030448513     0.000005631410    -0.000007847519
       8        0.000005033060     0.000006987147     0.000014132355
       9        0.000006804162    -0.000004852341    -0.000003664217
      10        0.000000075267    -0.000007344863    -0.000002312880
      11       -0.000000076730     0.000003841854    -0.000001534756

  **** Optimization is complete! (in 6 steps) ****
    Final optimized geometry and variables:
    Molecular point group: c1

    Geometry (in Angstrom), charge = 0, multiplicity = 1:

    H           -1.787590947502     0.981329900985    -0.482573322168
    C           -1.246036896532     0.036932294241    -0.443902043350
    O            0.081126645448     0.194385669418    -0.472769470645
    O           -1.786687708604    -1.001594029638    -0.415217229975
    C            0.735196252025     0.291108722602     0.785654680531
    C            2.211123957395     0.487478731230     0.536277694401
    H            0.550312884078    -0.616231454052     1.347037931939
    H            0.323777230133     1.128402799497     1.341647484560
    H            2.614420397590    -0.347935521229    -0.020651078690
    H            2.736750884093     0.560757122244     1.480976562253
    H            2.385839198756     1.394405677453    -0.028000980226

  Mulliken Charges: (a.u.)
   Center  Symbol    Alpha    Beta     Spin     Total
       1     H     0.46492  0.46492  0.00000  0.07016
       2     C     2.83830  2.83830  0.00000  0.32340
       3     O     4.15957  4.15957  0.00000 -0.31914
       4     O     4.16367  4.16367  0.00000 -0.32735
       5     C     2.96757  2.96757  0.00000  0.06486
       6     C     3.13400  3.13400  0.00000 -0.26800
       7     H     0.45442  0.45442  0.00000  0.09117
       8     H     0.46607  0.46607  0.00000  0.06786
       9     H     0.44597  0.44597  0.00000  0.10807
      10     H     0.45589  0.45589  0.00000  0.08822
      11     H     0.44963  0.44963  0.00000  0.10074

   Total alpha = 20.00000, Total beta = 20.00000, Total charge = -0.00000

*** Psi4 exiting successfully. Buy a developer a beer!
