  ==> Input File <==

--------------------------------------------------------------------------
set {
	reference rhf
	basis 6-31G*
}

set_num_threads( 1 )
memory 2 gb

molecule MOL {
0 1

H	 -3.407059	 -1.043082	 0.000000
O	 -3.119761	 -0.140267	 0.000000
C	 -1.777559	 -0.059267	 0.000000
C	 -1.001972	 -0.602438	 1.020015
C	 -1.177450	 0.595014	 -1.068575
H	 -1.475035	 -1.107944	 1.844627
C	 0.371411	 -0.489047	 0.967267
H	 -1.797112	 1.005551	 -1.843010
C	 0.197274	 0.700287	 -1.107148
H	 0.982072	 -0.903389	 1.747339
C	 0.987519	 0.163089	 -0.095932
H	 0.662821	 1.207216	 -1.935007
C	 2.457714	 0.283586	 -0.150864
O	 3.205644	 -0.146860	 0.671373
H	 2.845197	 0.813816	 -1.027152

	symmetry c1
}
set optking {
	frozen_dihedral = ("
		7 11 13 14
	")
}

ee = energy('scf')
oeprop('DIPOLE', 'QUADRUPOLE', 'MULLIKEN_CHARGES')
f=open( 'psi4out.xyz', 'w' )
f.write( "15  " )
f.write( str(ee) + "\n" )
f.write( MOL.save_string_xyz() )
f.close()
--------------------------------------------------------------------------

    Molecular point group: c1

    Geometry (in Angstrom), charge = 0, multiplicity = 1:

       Center              X                  Y                   Z               Mass
    ------------   -----------------  -----------------  -----------------  -----------------
           H         -3.405835511054    -1.063355120737    -0.035178029775     1.007825032070
           O         -3.118537511054    -0.160540120737    -0.035178029775    15.994914619560
           C         -1.776335511054    -0.079540120737    -0.035178029775    12.000000000000
           C         -1.000748511054    -0.622711120737     0.984836970225    12.000000000000
           C         -1.176226511054     0.574740879263    -1.103753029775    12.000000000000
           H         -1.473811511054    -1.128217120737     1.809448970225     1.007825032070
           C          0.372634488946    -0.509320120737     0.932088970225    12.000000000000
           H         -1.795888511054     0.985277879263    -1.878188029775     1.007825032070
           C          0.198497488946     0.680013879263    -1.142326029775    12.000000000000
           H          0.983295488946    -0.923662120737     1.712160970225     1.007825032070
           C          0.988742488946     0.142815879263    -0.131110029775    12.000000000000
           H          0.664044488946     1.186942879263    -1.970185029775     1.007825032070
           C          2.458937488946     0.263312879263    -0.186042029775    12.000000000000
           O          3.206867488946    -0.167133120737     0.636194970225    15.994914619560
           H          2.846420488946     0.793542879263    -1.062330029775     1.007825032070

  Charge       = 0
  Multiplicity = 1
  Basis Set: 6-31G*
  Basis Set:

    Orbital Energies (a.u.)
    -----------------------

    Doubly Occupied:

       1A    -20.598405     2A    -20.558823     3A    -11.329946
       4A    -11.315786     5A    -11.259149     6A    -11.254139
       7A    -11.242875     8A    -11.242423     9A    -11.239880
      10A     -1.423342    11A     -1.399538    12A     -1.169744
      13A     -1.040482    14A     -1.036990    15A     -0.888191
      16A     -0.860459    17A     -0.795958    18A     -0.755419
      19A     -0.709927    20A     -0.667297    21A     -0.648570
      22A     -0.629499    23A     -0.618888    24A     -0.606460
      25A     -0.561361    26A     -0.552872    27A     -0.541883
      28A     -0.497600    29A     -0.482148    30A     -0.420823
      31A     -0.355681    32A     -0.335321

  @DF-RHF Final Energy:  -418.28502654769761

   => Energetics <=

    Nuclear Repulsion Energy =            401.3024150085973361
    One-Electron Energy =               -1365.0952340263459064
    Two-Electron Energy =                 545.5077924700515268
    DFT Exchange-Correlation Energy =       0.0000000000000000
    Empirical Dispersion Energy =           0.0000000000000000
    PCM Polarization Energy =               0.0000000000000000
    EFP Energy =                            0.0000000000000000
    Total Energy =                       -418.2850265476970435

  Mulliken Charges: (a.u.)
   Center  Symbol    Alpha    Beta     Spin     Total
       1     H     0.26792  0.26792  0.00000  0.46416
       2     O     4.38001  4.38001  0.00000 -0.76001
       3     C     2.80222  2.80222  0.00000  0.39555
       4     C     3.13160  3.13160  0.00000 -0.26320
       5     C     3.12319  3.12319  0.00000 -0.24638
       6     H     0.39220  0.39220  0.00000  0.21559
       7     C     3.08260  3.08260  0.00000 -0.16520
       8     H     0.38751  0.38751  0.00000  0.22498
       9     C     3.09660  3.09660  0.00000 -0.19319
      10     H     0.37514  0.37514  0.00000  0.24972
      11     C     3.06301  3.06301  0.00000 -0.12601
      12     H     0.39066  0.39066  0.00000  0.21867
      13     C     2.83066  2.83066  0.00000  0.33869
      14     O     4.25270  4.25270  0.00000 -0.50539
      15     H     0.42398  0.42398  0.00000  0.15203

   Total alpha = 32.00000, Total beta = 32.00000, Total charge =  0.00000
