  ==> Input File <==

--------------------------------------------------------------------------
set {
	reference rhf
	basis cc-pvtz
}

set_num_threads( 4 )
memory 2 gb

molecule MOL {
0 1

H	 -3.401682	 -1.036167	 0.000000
O	 -3.113760	 -0.140926	 0.000000
C	 -1.775087	 -0.058754	 0.000000
C	 -1.038446	 -0.013536	 -1.177179
C	 -1.136225	 -0.019538	 1.228210
H	 -1.541255	 -0.044400	 -2.126209
C	 0.332450	 0.070614	 -1.120116
H	 -1.723000	 -0.055556	 2.123987
C	 0.237213	 0.064768	 1.268058
H	 0.912155	 0.106198	 -2.021107
C	 0.987427	 0.110818	 0.102937
H	 0.733894	 0.095255	 2.220369
C	 2.457851	 0.201077	 0.170546
O	 3.180329	 0.245425	 -0.768716
H	 2.869166	 0.226325	 1.185427

	symmetry c1
}
set optking {
	frozen_dihedral = ("
		5 3 2 1
	")
}

ee = optimize('scf')
oeprop('DIPOLE', 'QUADRUPOLE', 'MULLIKEN_CHARGES')
f=open( 'psi4out.xyz', 'w' )
f.write( "15  " )
f.write( str(ee) + "\n" )
f.write( MOL.save_string_xyz() )
f.close()
--------------------------------------------------------------------------

    Molecular point group: c1
  Charge       = 0
  Multiplicity = 1
  Basis Set: CC-PVTZ
  Basis Set:
  @DF-RHF Final Energy:  -418.43573357579913
    Total Energy =                       -418.4357335757990768
    Molecular point group: c1
  Basis Set: CC-PVTZ
  Basis Set:
  Basis Set: CC-PVTZ
  Basis Set:
  @DF-RHF Final Energy:  -418.43667528561809
    Total Energy =                       -418.4366752856185485
  Basis Set: CC-PVTZ
  Basis Set:
  Basis Set: CC-PVTZ
  Basis Set:
  @DF-RHF Final Energy:  -418.43662233656204
    Total Energy =                       -418.4366223365618680
  Basis Set: CC-PVTZ
  Basis Set:
  Basis Set: CC-PVTZ
  Basis Set:
  @DF-RHF Final Energy:  -418.43652463955686
    Total Energy =                       -418.4365246395567510
  Basis Set: CC-PVTZ
  Basis Set:
  Basis Set: CC-PVTZ
  Basis Set:
  @DF-RHF Final Energy:  -418.43676026127980
    Total Energy =                       -418.4367602612795736
  Basis Set: CC-PVTZ
  Basis Set:
  Charge       = 0
  Multiplicity = 1
  Basis Set: CC-PVTZ
  Basis Set:

    Orbital Energies (a.u.)
    -----------------------

    Doubly Occupied:

       1A    -20.587262     2A    -20.550967     3A    -11.326541
       4A    -11.312208     5A    -11.257993     6A    -11.251617
       7A    -11.243605     8A    -11.241525     9A    -11.240448
      10A     -1.416272    11A     -1.407092    12A     -1.175729
      13A     -1.045264    14A     -1.040696    15A     -0.890928
      16A     -0.861134    17A     -0.800526    18A     -0.755815
      19A     -0.709769    20A     -0.678258    21A     -0.650336
      22A     -0.636776    23A     -0.622523    24A     -0.609916
      25A     -0.564851    26A     -0.558616    27A     -0.540323
      28A     -0.502260    29A     -0.487363    30A     -0.425418
      31A     -0.359817    32A     -0.346548

  @DF-RHF Final Energy:  -418.43676142601947

   => Energetics <=

    Nuclear Repulsion Energy =            401.6794447664593122
    One-Electron Energy =               -1366.0356207881368391
    Two-Electron Energy =                 545.9194145956575994
    DFT Exchange-Correlation Energy =       0.0000000000000000
    Empirical Dispersion Energy =           0.0000000000000000
    PCM Polarization Energy =               0.0000000000000000
    EFP Energy =                            0.0000000000000000
    Total Energy =                       -418.4367614260199844
    Molecular point group: c1
  Basis Set: CC-PVTZ
  Basis Set:

  -Total Gradient:
     Atom            X                  Y                   Z
    ------   -----------------  -----------------  -----------------
       1       -0.000028808874    -0.000012850607    -0.000037719645
       2       -0.000048925405    -0.000034083267     0.000045487004
       3        0.000057636822     0.000080640158    -0.000262013461
       4       -0.000205217779    -0.000052664303     0.000102403885
       5        0.000177542158     0.000039328492     0.000114194015
       6        0.000001448680     0.000009027039    -0.000003495085
       7        0.000180531554    -0.000016065631     0.000131827378
       8        0.000002898391     0.000009548860    -0.000018048834
       9       -0.000131231230    -0.000097635519     0.000097024993
      10       -0.000017047787     0.000005796644    -0.000004462378
      11       -0.000003227988     0.000033790124    -0.000189612244
      12        0.000023512429     0.000018032101    -0.000004416852
      13        0.000017699216     0.000053200996     0.000034828871
      14       -0.000018706587    -0.000020739555    -0.000008397516
      15       -0.000008103596    -0.000015325532     0.000002399870

  **** Optimization is complete! (in 6 steps) ****
    Final optimized geometry and variables:
    Molecular point group: c1

    Geometry (in Angstrom), charge = 0, multiplicity = 1:

    H           -3.429726428917    -1.060782681837     0.009629897678
    O           -3.126343848516    -0.169303455210     0.004629324923
    C           -1.765700436199    -0.118535722035     0.056769798596
    C           -1.037789653375    -0.066047997535    -1.122681935640
    C           -1.126570320246    -0.070350213490     1.279240700820
    H           -1.559646227856    -0.088844060289    -2.059106616393
    C            0.333401554944     0.025095203700    -1.073861716612
    H           -1.708720494203    -0.095019561464     2.179181321892
    C            0.251264623708     0.021394660179     1.319080560045
    H            0.911459973320     0.066819129839    -1.975526676655
    C            0.989300490121     0.067726357767     0.150203055061
    H            0.752699488669     0.059911343686     2.268485699625
    C            2.463973711478     0.166609238323     0.214960321750
    O            3.181325495302     0.207685214109    -0.726666469988
    H            2.876826728971     0.200483488114     1.228806645227

  Mulliken Charges: (a.u.)
   Center  Symbol    Alpha    Beta     Spin     Total
       1     H     0.38662  0.38662  0.00000  0.22675
       2     O     4.18661  4.18661  0.00000 -0.37322
       3     C     2.86591  2.86591  0.00000  0.26818
       4     C     3.10822  3.10822  0.00000 -0.21643
       5     C     3.10922  3.10922  0.00000 -0.21844
       6     H     0.41316  0.41316  0.00000  0.17368
       7     C     3.07087  3.07087  0.00000 -0.14174
       8     H     0.41437  0.41437  0.00000  0.17126
       9     C     3.07840  3.07840  0.00000 -0.15679
      10     H     0.40670  0.40670  0.00000  0.18660
      11     C     2.99515  2.99515  0.00000  0.00970
      12     H     0.42078  0.42078  0.00000  0.15844
      13     C     2.91009  2.91009  0.00000  0.17981
      14     O     4.17481  4.17481  0.00000 -0.34961
      15     H     0.45909  0.45909  0.00000  0.08181

   Total alpha = 32.00000, Total beta = 32.00000, Total charge = -0.00000
