  ==> Input File <==

--------------------------------------------------------------------------
set {
	reference rhf
	basis 6-31G*
}

set_num_threads( 4 )
memory 2 gb

molecule MOL {
0 1

H	 2.036589	 3.563716	 -4.201827
C	 1.882916	 2.913979	 -3.358612
C	 0.970490	 3.262919	 -2.374301
C	 2.597647	 1.730645	 -3.259559
H	 0.416839	 4.180932	 -2.452338
C	 0.773444	 2.426976	 -1.290394
H	 3.304514	 1.461815	 -4.023546
C	 2.402046	 0.892305	 -2.175446
H	 0.071554	 2.680870	 -0.519317
C	 1.488303	 1.239179	 -1.187259
H	 2.952965	 -0.024371	 -2.094738
C	 1.239129	 0.373821	 0.000060
O	 1.970282	 -0.730723	 0.000018
O	 0.464781	 0.638337	 0.865666
C	 3.377318	 -0.566646	 -0.000065
H	 3.695437	 -0.028981	 -0.881264
H	 3.789299	 -1.563704	 0.000236
H	 3.695516	 -0.028316	 0.880770

	symmetry c1
}
set optking {
	frozen_dihedral = ("
		10 12 13 15
	")
}

ee = optimize('scf')
oeprop('DIPOLE', 'QUADRUPOLE', 'MULLIKEN_CHARGES')
f=open( 'psi4out.xyz', 'w' )
f.write( "18  " )
f.write( str(ee) + "\n" )
f.write( MOL.save_string_xyz() )
f.close()
--------------------------------------------------------------------------

    Molecular point group: c1
  Charge       = 0
  Multiplicity = 1
  Basis Set: 6-31G*
  Basis Set:
  @DF-RHF Final Energy:  -457.30432369551596
    Total Energy =                       -457.3043236955153361
    Molecular point group: c1
  Basis Set: 6-31G*
  Basis Set:
  Basis Set: 6-31G*
  Basis Set:
  @DF-RHF Final Energy:  -457.32151215347722
    Total Energy =                       -457.3215121534772152
  Basis Set: 6-31G*
  Basis Set:
  Basis Set: 6-31G*
  Basis Set:
  @DF-RHF Final Energy:  -457.32754841971416
    Total Energy =                       -457.3275484197140486
  Basis Set: 6-31G*
  Basis Set:
  Basis Set: 6-31G*
  Basis Set:
  @DF-RHF Final Energy:  -457.32811056175348
    Total Energy =                       -457.3281105617536468
  Basis Set: 6-31G*
  Basis Set:
  @DF-RHF Final Energy:  -457.32881193332059
    Total Energy =                       -457.3288119333202530
  Basis Set: 6-31G*
  Basis Set:
  @DF-RHF Final Energy:  -457.32936175361328
    Total Energy =                       -457.3293617536132842
  Basis Set: 6-31G*
  Basis Set:
  Basis Set: 6-31G*
  Basis Set:
  @DF-RHF Final Energy:  -457.32948700941051
    Total Energy =                       -457.3294870094107409
  Basis Set: 6-31G*
  Basis Set:
  Basis Set: 6-31G*
  Basis Set:
  @DF-RHF Final Energy:  -457.32950447023495
    Total Energy =                       -457.3295044702354062
  Basis Set: 6-31G*
  Basis Set:
  Charge       = 0
  Multiplicity = 1
  Basis Set: 6-31G*
  Basis Set:

    Orbital Energies (a.u.)
    -----------------------

    Doubly Occupied:

       1A    -20.594073     2A    -20.551331     3A    -11.379443
       4A    -11.291935     5A    -11.253132     6A    -11.251941
       7A    -11.250528     8A    -11.248198     9A    -11.245254
      10A    -11.243577    11A     -1.461072    12A     -1.368090
      13A     -1.171539    14A     -1.046675    15A     -1.031761
      16A     -0.979416    17A     -0.874306    18A     -0.843232
      19A     -0.781843    20A     -0.736948    21A     -0.687290
      22A     -0.676637    23A     -0.667046    24A     -0.639073
      25A     -0.627730    26A     -0.608665    27A     -0.600077
      28A     -0.564163    29A     -0.535242    30A     -0.517395
      31A     -0.508137    32A     -0.493466    33A     -0.461192
      34A     -0.440885    35A     -0.350378    36A     -0.347821

  @DF-RHF Final Energy:  -457.32950645274832

   => Energetics <=

    Nuclear Repulsion Energy =            497.2746643665889223
    One-Electron Energy =               -1608.5493606746852038
    Two-Electron Energy =                 653.9451898553484170
    DFT Exchange-Correlation Energy =       0.0000000000000000
    Empirical Dispersion Energy =           0.0000000000000000
    PCM Polarization Energy =               0.0000000000000000
    EFP Energy =                            0.0000000000000000
    Total Energy =                       -457.3295064527478644
    Molecular point group: c1
  Basis Set: 6-31G*
  Basis Set:

  -Total Gradient:
     Atom            X                  Y                   Z
    ------   -----------------  -----------------  -----------------
       1       -0.000008389750    -0.000013465835    -0.000006186045
       2       -0.000002219955     0.000054975708     0.000022845137
       3        0.000073566237     0.000036873415    -0.000009983149
       4       -0.000025335229    -0.000065234132     0.000010629032
       5       -0.000014952858    -0.000012863739    -0.000000363365
       6       -0.000064643130    -0.000096437286    -0.000023767203
       7       -0.000007614605    -0.000005369868    -0.000010609835
       8        0.000021598061     0.000085005056     0.000001293231
       9        0.000017714718     0.000003298749     0.000017465603
      10        0.000649495258     0.000795017227     0.000768756195
      11        0.000018185715    -0.000037639350     0.000003515084
      12       -0.000957292379    -0.001024186811    -0.001902909872
      13       -0.000031275018     0.000321805562     0.002444744024
      14        0.000059920152    -0.000014292672     0.000009498363
      15        0.000238314981    -0.000031204192    -0.001354037664
      16        0.000014922457    -0.000001940760    -0.000000228132
      17        0.000021356677     0.000009053298     0.000006983657
      18       -0.000003351328    -0.000003394370     0.000022354939

  **** Optimization is complete! (in 9 steps) ****
    Final optimized geometry and variables:
    Molecular point group: c1

    Geometry (in Angstrom), charge = 0, multiplicity = 1:

    H            0.283337088500     2.559808925064    -2.929517186785
    C            0.137969547794     1.865189967309    -2.121635433181
    C           -0.593846994100     2.244190618544    -1.006338912782
    C            0.675794399163     0.590393820072    -2.201408924809
    H           -1.016411756900     3.230809087992    -0.948269870966
    C           -0.789831050892     1.347460801429     0.028562632528
    H            1.230105901611     0.291453703297    -3.072536478446
    C            0.495911618822    -0.301314083749    -1.157852640714
    H           -1.372128211698     1.620434299010     0.888158411010
    C           -0.233424568212     0.075575186125    -0.036339553265
    H            0.902692045076    -1.293564731005    -1.222710633695
    C           -0.504814569361    -0.880352398376     1.082553281505
    O            0.392358294124    -1.862737749860     1.275925839561
    O           -1.480246300575    -0.816487790196     1.750178595941
    C            1.735738552246    -1.536770095289     1.573358121961
    H            2.152183489211    -0.835260449214     0.864674493481
    H            2.286940083383    -2.463330716410     1.532332677895
    H            1.802933683616    -1.124392335121     2.572918217747

  Mulliken Charges: (a.u.)
   Center  Symbol    Alpha    Beta     Spin     Total
       1     H     0.39420  0.39420  0.00000  0.21160
       2     C     3.09195  3.09195  0.00000 -0.18391
       3     C     3.10506  3.10506  0.00000 -0.21012
       4     C     3.10443  3.10443  0.00000 -0.20886
       5     H     0.39386  0.39386  0.00000  0.21227
       6     C     3.08717  3.08717  0.00000 -0.17434
       7     H     0.39482  0.39482  0.00000  0.21035
       8     C     3.09755  3.09755  0.00000 -0.19510
       9     H     0.37827  0.37827  0.00000  0.24347
      10     C     3.07158  3.07158  0.00000 -0.14315
      11     H     0.38525  0.38525  0.00000  0.22951
      12     C     2.60174  2.60174  0.00000  0.79651
      13     O     4.31428  4.31428  0.00000 -0.62856
      14     O     4.25628  4.25628  0.00000 -0.51257
      15     C     3.09521  3.09521  0.00000 -0.19041
      16     H     0.41436  0.41436  0.00000  0.17128
      17     H     0.40329  0.40329  0.00000  0.19343
      18     H     0.41070  0.41070  0.00000  0.17859

   Total alpha = 36.00000, Total beta = 36.00000, Total charge = -0.00000
