                              Psi4 1.0.54 Driver

  ==> Input File <==

--------------------------------------------------------------------------
set {
	reference rhf
	basis cc-pvtz
}

set_num_threads( 4 )
memory 2 gb

molecule MOL {
0 1

H	 -0.610955	 -1.478162	 -0.562742
N	 -0.625934	 -0.663929	 -0.000707
C	 -1.811304	 -0.388186	 0.776441
C	 0.468494	 0.129045	 -0.002160
H	 -2.677383	 -0.273166	 0.135609
H	 -1.655514	 0.528523	 1.319090
H	 -2.006177	 -1.185281	 1.484045
C	 1.785715	 -0.615093	 0.000603
O	 0.413285	 1.323206	 0.000532
H	 1.866994	 -1.243310	 -0.878792
H	 2.591506	 0.100263	 0.006422
H	 1.860358	 -1.250360	 0.875522

	symmetry c1
}
set optking {
	frozen_dihedral = ("
		3 2 4 9
	")
}

ee,wfn = optimize('scf', return_wfn=True)
oeprop( wfn, 'DIPOLE', 'QUADRUPOLE', 'MULLIKEN_CHARGES')
f=open( 'psi4out.xyz', 'w' )
f.write( "12  " )
f.write( str(ee) + "\n" )
f.write( MOL.save_string_xyz() )
f.close()
--------------------------------------------------------------------------

    Molecular point group: c1
  Charge       = 0
  Multiplicity = 1
  Basis Set: CC-PVTZ
  Basis Set:
  @DF-RHF Final Energy:  -247.08502726456561
    Total Energy =                       -247.0850272645656105
    Molecular point group: c1
  Basis Set: CC-PVTZ
  Basis Set:
  Basis Set: CC-PVTZ
  Basis Set:
  @DF-RHF Final Energy:  -247.08868904233697
    Total Energy =                       -247.0886890423367959
  Basis Set: CC-PVTZ
  Basis Set:
  Basis Set: CC-PVTZ
  Basis Set:
  @DF-RHF Final Energy:  -247.09066136731167
    Total Energy =                       -247.0906613673117249
  Basis Set: CC-PVTZ
  Basis Set:
  Basis Set: CC-PVTZ
  Basis Set:
  @DF-RHF Final Energy:  -247.08978667489393
    Total Energy =                       -247.0897866748938441
  Basis Set: CC-PVTZ
  Basis Set:
  @DF-RHF Final Energy:  -247.09464484934784
    Total Energy =                       -247.0946448493477874
  @DF-RHF Final Energy:  -247.09506627609275
    Total Energy =                       -247.0950662760927798
  @DF-RHF Final Energy:  -247.09527039819204
    Total Energy =                       -247.0952703981921559
  @DF-RHF Final Energy:  -247.09542950699390
    Total Energy =                       -247.0954295069938098
  Basis Set: CC-PVTZ
  Basis Set:
  @DF-RHF Final Energy:  -247.09562126553760
    Total Energy =                       -247.0956212655377158
  Basis Set: CC-PVTZ
  Basis Set:
  Basis Set: CC-PVTZ
  Basis Set:
  @DF-RHF Final Energy:  -247.09567433941478
    Total Energy =                       -247.0956743394148134
  Basis Set: CC-PVTZ
  Basis Set:
  Basis Set: CC-PVTZ
  Basis Set:
  @DF-RHF Final Energy:  -247.09569214787430
    Total Energy =                       -247.0956921478742743
  Basis Set: CC-PVTZ
  Basis Set:
  Charge       = 0
  Multiplicity = 1
  Basis Set: CC-PVTZ
  Basis Set:

    Orbital Energies (a.u.)
    -----------------------

    Doubly Occupied:

       1A    -20.516856     2A    -15.572936     3A    -11.339531
       4A    -11.254667     5A    -11.231359     6A     -1.396159
       7A     -1.230124     8A     -1.016889     9A     -0.931445
      10A     -0.778591    11A     -0.692042    12A     -0.652688
      13A     -0.634927    14A     -0.591810    15A     -0.585402
      16A     -0.555858    17A     -0.547045    18A     -0.510331
      19A     -0.425018    20A     -0.395838

  @DF-RHF Final Energy:  -247.09569256694448

   => Energetics <=

    Nuclear Repulsion Energy =            181.5007136516665582
    One-Electron Energy =                -695.4737739417507782
    Two-Electron Energy =                 266.8773677231399120
    DFT Exchange-Correlation Energy =       0.0000000000000000
    Empirical Dispersion Energy =           0.0000000000000000
    PCM Polarization Energy =               0.0000000000000000
    EFP Energy =                            0.0000000000000000
    Total Energy =                       -247.0956925669443649
    Molecular point group: c1
  Basis Set: CC-PVTZ
  Basis Set:

  -Total Gradient:
     Atom            X                  Y                   Z
    ------   -----------------  -----------------  -----------------
       1       -0.000000549343    -0.000017536290     0.000003737424
       2       -0.004781427633     0.013392542081    -0.006739176790
       3        0.003057522764    -0.006913300205     0.002084137390
       4        0.001922092259    -0.012625115713     0.012443683372
       5        0.000019309875     0.000013160245     0.000006764826
       6        0.000033051796    -0.000036554063    -0.000038252420
       7       -0.000012970183     0.000009601062    -0.000004844008
       8       -0.000027699507     0.000036257775    -0.000066168097
       9       -0.000219718823     0.006154482055    -0.007735785866
      10        0.000013762294    -0.000013582498     0.000011570956
      11       -0.000000336188    -0.000003065987     0.000004284248
      12       -0.000003037308     0.000003111537     0.000030048968

  **** Optimization is complete! (in 12 steps) ****
    Final optimized geometry and variables:
    Molecular point group: c1

    Geometry (in Angstrom), charge = 0, multiplicity = 1:

    H           -0.477293765117    -1.207165962441    -1.065727005380
    N           -0.688080746025    -0.413951064714    -0.505151681895
    C           -1.808816627278    -0.642650585383     0.391716443021
    C            0.429955785170     0.224404504785    -0.029433521311
    H           -2.657484266129    -0.985978726383    -0.183068160227
    H           -2.072385434102     0.283151536408     0.876414641013
    H           -1.579159497231    -1.380379150781     1.154193639825
    C            1.740573369755    -0.260690355415    -0.604696838130
    O            0.369074505638     1.152226676053     0.714431381759
    H            1.659593545988    -0.430010641457    -1.671679678112
    H            2.508686524795     0.469390361611    -0.407529474861
    H            2.014148455293    -1.200119998401    -0.136013060610

  Mulliken Charges: (a.u.)
   Center  Symbol    Alpha    Beta     Spin     Total
       1     H     0.42656  0.42656  0.00000  0.14689
       2     N     3.61422  3.61422  0.00000 -0.22843
       3     C     3.08577  3.08577  0.00000 -0.17155
       4     C     2.83538  2.83538  0.00000  0.32924
       5     H     0.45156  0.45156  0.00000  0.09688
       6     H     0.43496  0.43496  0.00000  0.13007
       7     H     0.46223  0.46223  0.00000  0.07554
       8     C     3.15353  3.15353  0.00000 -0.30705
       9     O     4.20165  4.20165  0.00000 -0.40330
      10     H     0.45109  0.45109  0.00000  0.09782
      11     H     0.43426  0.43426  0.00000  0.13147
      12     H     0.44879  0.44879  0.00000  0.10241

   Total alpha = 20.00000, Total beta = 20.00000, Total charge = -0.00000

*** Psi4 exiting successfully. Buy a developer a beer!
