  ==> Input File <==

--------------------------------------------------------------------------
set {
	reference rhf
	basis 6-31G*
}

set_num_threads( 1 )
memory 2 gb

molecule MOL {
0 1

O	 0.333859	 1.025570	 0.811420
C	 0.486307	 0.169203	 0.000779
C	 1.608116	 -0.841643	 0.000302
O	 -0.325487	 -0.011948	 -1.031587
C	 2.990107	 -0.200498	 -0.000684
H	 1.468623	 -1.481519	 -0.865924
H	 1.469683	 -1.481289	 0.866878
H	 3.129736	 0.423364	 -0.875135
H	 3.757882	 -0.966877	 -0.001197
H	 3.130964	 0.423383	 0.873533
C	 -1.433207	 0.873317	 -1.160674
C	 -2.197076	 0.466280	 -2.402905
H	 -1.066860	 1.888390	 -1.231375
H	 -2.046663	 0.802320	 -0.272855
H	 -1.567374	 0.537620	 -3.282418
H	 -3.053727	 1.118203	 -2.540002
H	 -2.552644	 -0.554378	 -2.318730

	symmetry c1
}
set optking {
	frozen_dihedral = ("
		2 4 11 13,
		11 4 2 3
	")
}

ee = energy('scf')
oeprop('DIPOLE', 'QUADRUPOLE', 'MULLIKEN_CHARGES')
f=open( 'psi4out.xyz', 'w' )
f.write( "17  " )
f.write( str(ee) + "\n" )
f.write( MOL.save_string_xyz() )
f.close()
--------------------------------------------------------------------------

    Molecular point group: c1

    Geometry (in Angstrom), charge = 0, multiplicity = 1:

       Center              X                  Y                   Z               Mass
    ------------   -----------------  -----------------  -----------------  -----------------
           O          0.135213317875     0.804859743773     1.360097426416    15.994914619560
           C          0.287661317875    -0.051507256227     0.549456426416    12.000000000000
           C          1.409470317875    -1.062353256227     0.548979426416    12.000000000000
           O         -0.524132682125    -0.232658256227    -0.482909573584    15.994914619560
           C          2.791461317875    -0.421208256227     0.547993426416    12.000000000000
           H          1.269977317875    -1.702229256227    -0.317246573584     1.007825032070
           H          1.271037317875    -1.701999256227     1.415555426416     1.007825032070
           H          2.931090317875     0.202653743773    -0.326457573584     1.007825032070
           H          3.559236317875    -1.187587256227     0.547480426416     1.007825032070
           H          2.932318317875     0.202672743773     1.422210426416     1.007825032070
           C         -1.631852682125     0.652606743773    -0.611996573584    12.000000000000
           C         -2.395721682125     0.245569743773    -1.854227573584    12.000000000000
           H         -1.265505682125     1.667679743773    -0.682697573584     1.007825032070
           H         -2.245308682125     0.581609743773     0.275822426416     1.007825032070
           H         -1.766019682125     0.316909743773    -2.733740573584     1.007825032070
           H         -3.252372682125     0.897492743773    -1.991324573584     1.007825032070
           H         -2.751289682125    -0.775088256227    -1.770052573584     1.007825032070

  Charge       = 0
  Multiplicity = 1
  Basis Set: 6-31G*
  Basis Set:

    Orbital Energies (a.u.)
    -----------------------

    Doubly Occupied:

       1A    -20.602507     2A    -20.542278     3A    -11.370857
       4A    -11.284393     5A    -11.235808     6A    -11.222942
       7A    -11.222323     8A     -1.467551     9A     -1.361100
      10A     -1.071533    11A     -1.032171    12A     -0.911225
      13A     -0.850437    14A     -0.775463    15A     -0.693755
      16A     -0.685871    17A     -0.666323    18A     -0.618937
      19A     -0.593717    20A     -0.575135    21A     -0.555925
      22A     -0.532771    23A     -0.527885    24A     -0.509897
      25A     -0.501757    26A     -0.492587    27A     -0.451682
      28A     -0.432725

  @DF-RHF Final Energy:  -344.90968579939357

   => Energetics <=

    Nuclear Repulsion Energy =            315.0453026055063788
    One-Electron Energy =               -1094.3308602326567325
    Two-Electron Energy =                 434.3758718277578055
    DFT Exchange-Correlation Energy =       0.0000000000000000
    Empirical Dispersion Energy =           0.0000000000000000
    PCM Polarization Energy =               0.0000000000000000
    EFP Energy =                            0.0000000000000000
    Total Energy =                       -344.9096857993926051

  Mulliken Charges: (a.u.)
   Center  Symbol    Alpha    Beta     Spin     Total
       1     O     4.28632  4.28632  0.00000 -0.57263
       2     C     2.60704  2.60704  0.00000  0.78593
       3     C     3.20489  3.20489  0.00000 -0.40977
       4     O     4.31035  4.31035  0.00000 -0.62069
       5     C     3.24592  3.24592  0.00000 -0.49184
       6     H     0.40053  0.40053  0.00000  0.19894
       7     H     0.40083  0.40083  0.00000  0.19834
       8     H     0.41449  0.41449  0.00000  0.17103
       9     H     0.41386  0.41386  0.00000  0.17229
      10     H     0.40390  0.40390  0.00000  0.19219
      11     C     3.00329  3.00329  0.00000 -0.00659
      12     C     3.24847  3.24847  0.00000 -0.49694
      13     H     0.41005  0.41005  0.00000  0.17991
      14     H     0.41003  0.41003  0.00000  0.17994
      15     H     0.41195  0.41195  0.00000  0.17610
      16     H     0.41626  0.41626  0.00000  0.16749
      17     H     0.41184  0.41184  0.00000  0.17632

   Total alpha = 28.00000, Total beta = 28.00000, Total charge =  0.00000
