                              Psi4 1.0.54 Driver

  ==> Input File <==

--------------------------------------------------------------------------
set {
	reference rhf
	basis cc-pvtz
}

set_num_threads( 4 )
memory 2 gb

molecule MOL {
0 1

H	 -3.144994	 -1.202467	 -0.018751
O	 -2.321472	 -0.864941	 -0.318626
C	 -2.021813	 0.336996	 0.342658
C	 -0.669613	 0.837286	 -0.127252
H	 -2.780861	 1.084746	 0.127159
H	 -2.006390	 0.184138	 1.420053
C	 0.490865	 -0.082543	 0.241244
H	 -0.708709	 0.967192	 -1.204587
H	 -0.507562	 1.822272	 0.303070
C	 1.839800	 0.429565	 -0.255472
H	 0.305636	 -1.070211	 -0.165276
H	 0.527397	 -0.195943	 1.322876
C	 3.010783	 -0.437972	 0.193932
H	 1.825773	 0.479793	 -1.340821
H	 1.991642	 1.447648	 0.094015
H	 2.905616	 -1.454492	 -0.170133
H	 3.953009	 -0.049764	 -0.175946
H	 3.073235	 -0.481138	 1.276374

	symmetry c1
}
set optking {
	frozen_dihedral = ("
		14 10 7 11
	")
}

ee,wfn = optimize('scf', return_wfn=True)
oeprop( wfn, 'DIPOLE', 'QUADRUPOLE', 'MULLIKEN_CHARGES')
f=open( 'psi4out.xyz', 'w' )
f.write( "18  " )
f.write( str(ee) + "\n" )
f.write( MOL.save_string_xyz() )
f.close()
--------------------------------------------------------------------------

    Molecular point group: c1
  Charge       = 0
  Multiplicity = 1
  Basis Set: CC-PVTZ
  Basis Set:
  @DF-RHF Final Energy:  -271.28687419127334
    Total Energy =                       -271.2868741912732276
    Molecular point group: c1
  Basis Set: CC-PVTZ
  Basis Set:
  Basis Set: CC-PVTZ
  Basis Set:
  @DF-RHF Final Energy:  -271.28688109098732
    Total Energy =                       -271.2868810909871513
  Basis Set: CC-PVTZ
  Basis Set:
  Basis Set: CC-PVTZ
  Basis Set:
  @DF-RHF Final Energy:  -271.28688416042536
    Total Energy =                       -271.2868841604254158
  Basis Set: CC-PVTZ
  Basis Set:
  Charge       = 0
  Multiplicity = 1
  Basis Set: CC-PVTZ
  Basis Set:

    Orbital Energies (a.u.)
    -----------------------

    Doubly Occupied:

       1A    -20.546283     2A    -11.265945     3A    -11.210391
       4A    -11.209106     5A    -11.204961     6A    -11.202766
       7A     -1.364167     8A     -1.076564     9A     -1.010221
      10A     -0.914437    11A     -0.818343    12A     -0.784697
      13A     -0.708443    14A     -0.643024    15A     -0.627636
      16A     -0.582735    17A     -0.572126    18A     -0.558862
      19A     -0.524639    20A     -0.501793    21A     -0.489023
      22A     -0.468430    23A     -0.459572    24A     -0.449682
      25A     -0.431196

  @DF-RHF Final Energy:  -271.28688420174035

   => Energetics <=

    Nuclear Repulsion Energy =            249.2973977349617201
    One-Electron Energy =                -861.9184780411778775
    Two-Electron Energy =                 341.3341961044760069
    DFT Exchange-Correlation Energy =       0.0000000000000000
    Empirical Dispersion Energy =           0.0000000000000000
    PCM Polarization Energy =               0.0000000000000000
    EFP Energy =                            0.0000000000000000
    Total Energy =                       -271.2868842017401789
    Molecular point group: c1
  Basis Set: CC-PVTZ
  Basis Set:

  -Total Gradient:
     Atom            X                  Y                   Z
    ------   -----------------  -----------------  -----------------
       1        0.000001259221    -0.000000541949    -0.000000272047
       2        0.000009608687    -0.000009989269     0.000007286632
       3       -0.000013244683     0.000015198041    -0.000023257585
       4        0.000003119550     0.000002363104     0.000025117621
       5        0.000000066044     0.000003698792     0.000003264492
       6        0.000005096605    -0.000002562555    -0.000004955721
       7        0.000458757415    -0.000518524202     0.000699253413
       8       -0.000004727712    -0.000003336876     0.000006532180
       9       -0.000003680166     0.000006636705     0.000000237126
      10       -0.000375695881     0.000900941907    -0.000102052972
      11       -0.000322528567     0.000286398182    -0.000575150701
      12       -0.000001197324     0.000002901120    -0.000007368629
      13        0.000001110224     0.000004090810     0.000002535186
      14        0.000241271194    -0.000676364669    -0.000033693231
      15       -0.000003665844    -0.000006630471     0.000000201506
      16        0.000003294954     0.000004734499     0.000003047611
      17       -0.000003766096    -0.000005304031     0.000004518740
      18        0.000004922368    -0.000003709142    -0.000005243624

  **** Optimization is complete! (in 4 steps) ****
    Final optimized geometry and variables:
    Molecular point group: c1

    Geometry (in Angstrom), charge = 0, multiplicity = 1:

    H           -3.141705579652    -1.215846937121    -0.043245239789
    O           -2.317765397975    -0.875363762409    -0.338348288939
    C           -2.025306240547     0.326623196479     0.326070405070
    C           -0.671941588440     0.831380440702    -0.135572376419
    H           -2.785352285434     1.072433381044     0.107436448199
    H           -2.015305589103     0.172292800526     1.403311156471
    C            0.489385073138    -0.085161896601     0.239536888824
    H           -0.705206952128     0.961282801908    -1.213126253477
    H           -0.515553670368     1.816752618431     0.295802710129
    C            1.836753210875     0.423632601715    -0.264983369597
    H            0.302316122349    -1.073965587167    -0.163173072340
    H            0.526506082203    -0.190440804793     1.321768488016
    C            3.007097263623    -0.449622828220     0.175854938157
    H            1.816705539920     0.469519397254    -1.350327320158
    H            1.995752059400     1.440869522461     0.083209748182
    H            2.890332137445    -1.467567947206    -0.180716404067
    H            3.947515801633    -0.070610168138    -0.207871228345
    H            3.082360982216    -0.486742567299     1.257648719558

  Mulliken Charges: (a.u.)
   Center  Symbol    Alpha    Beta     Spin     Total
       1     H     0.39567  0.39567  0.00000  0.20865
       2     O     4.19886  4.19886  0.00000 -0.39771
       3     C     2.97375  2.97375  0.00000  0.05249
       4     C     3.09101  3.09101  0.00000 -0.18201
       5     H     0.46527  0.46527  0.00000  0.06947
       6     H     0.47369  0.47369  0.00000  0.05262
       7     C     3.08688  3.08688  0.00000 -0.17376
       8     H     0.45227  0.45227  0.00000  0.09546
       9     H     0.45435  0.45435  0.00000  0.09131
      10     C     3.08364  3.08364  0.00000 -0.16728
      11     H     0.44423  0.44423  0.00000  0.11154
      12     H     0.45970  0.45970  0.00000  0.08060
      13     C     3.14983  3.14983  0.00000 -0.29966
      14     H     0.45393  0.45393  0.00000  0.09215
      15     H     0.45698  0.45698  0.00000  0.08605
      16     H     0.45448  0.45448  0.00000  0.09105
      17     H     0.44937  0.44937  0.00000  0.10126
      18     H     0.45610  0.45610  0.00000  0.08780

   Total alpha = 25.00000, Total beta = 25.00000, Total charge = -0.00000

*** Psi4 exiting successfully. Buy a developer a beer!
