  ==> Input File <==

--------------------------------------------------------------------------
set {
	reference rhf
	basis cc-pvtz
}

set_num_threads( 4 )
memory 2 gb

molecule MOL {
0 1

O	 0.868210	 1.071625	 -0.665752
C	 0.576499	 0.134701	 -0.003900
C	 -0.765656	 -0.550508	 -0.002152
O	 1.410325	 -0.439839	 0.847341
C	 -1.945526	 0.411052	 0.000603
H	 -0.794329	 -1.203792	 -0.868145
H	 -0.791555	 -1.205429	 0.862701
C	 -3.282915	 -0.321280	 0.002596
H	 -1.880300	 1.059126	 -0.864925
H	 -1.877207	 1.057892	 0.866807
H	 -3.388495	 -0.952755	 -0.873419
H	 -4.107811	 0.380864	 0.004116
H	 -3.385717	 -0.953283	 0.878571
C	 2.709754	 0.106589	 0.951800
H	 3.221396	 0.057049	 0.002157
H	 3.225723	 -0.492258	 1.684499
H	 2.665529	 1.135861	 1.275350

	symmetry c1
}
set optking {
	frozen_dihedral = ("
		1 2 3 6
	")
}

ee = optimize('scf')
oeprop('DIPOLE', 'QUADRUPOLE', 'MULLIKEN_CHARGES')
f=open( 'psi4out.xyz', 'w' )
f.write( "17  " )
f.write( str(ee) + "\n" )
f.write( MOL.save_string_xyz() )
f.close()
--------------------------------------------------------------------------

    Molecular point group: c1
  Charge       = 0
  Multiplicity = 1
  Basis Set: CC-PVTZ
  Basis Set:
  @DF-RHF Final Energy:  -345.03388933173602
    Total Energy =                       -345.0338893317358497
    Molecular point group: c1
  Basis Set: CC-PVTZ
  Basis Set:
  Basis Set: CC-PVTZ
  Basis Set:
  @DF-RHF Final Energy:  -345.03364521410208
    Total Energy =                       -345.0336452141019663
  Basis Set: CC-PVTZ
  Basis Set:
  Basis Set: CC-PVTZ
  Basis Set:
  @DF-RHF Final Energy:  -345.03400001344738
    Total Energy =                       -345.0340000134479510
  Basis Set: CC-PVTZ
  Basis Set:
  Basis Set: CC-PVTZ
  Basis Set:
  @DF-RHF Final Energy:  -345.03443858224364
    Total Energy =                       -345.0344385822435811
  Basis Set: CC-PVTZ
  Basis Set:
  Basis Set: CC-PVTZ
  Basis Set:
  @DF-RHF Final Energy:  -345.03444023677821
    Total Energy =                       -345.0344402367782095
  Basis Set: CC-PVTZ
  Basis Set:
  Charge       = 0
  Multiplicity = 1
  Basis Set: CC-PVTZ
  Basis Set:

    Orbital Energies (a.u.)
    -----------------------

    Doubly Occupied:

       1A    -20.598630     2A    -20.532477     3A    -11.364853
       4A    -11.278866     5A    -11.233574     6A    -11.223250
       7A    -11.213741     8A     -1.473071     9A     -1.365469
      10A     -1.082093    11A     -1.002043    12A     -0.941419
      13A     -0.828283    14A     -0.771988    15A     -0.701738
      16A     -0.685315    17A     -0.676073    18A     -0.638070
      19A     -0.596236    20A     -0.580685    21A     -0.564540
      22A     -0.532744    23A     -0.525346    24A     -0.502120
      25A     -0.486028    26A     -0.480217    27A     -0.460188
      28A     -0.439319

  @DF-RHF Final Energy:  -345.03444038323607

   => Energetics <=

    Nuclear Repulsion Energy =            313.1029108938527088
    One-Electron Energy =               -1090.7179494061217611
    Two-Electron Energy =                 432.5805981290331488
    DFT Exchange-Correlation Energy =       0.0000000000000000
    Empirical Dispersion Energy =           0.0000000000000000
    PCM Polarization Energy =               0.0000000000000000
    EFP Energy =                            0.0000000000000000
    Total Energy =                       -345.0344403832359035
    Molecular point group: c1
  Basis Set: CC-PVTZ
  Basis Set:

  -Total Gradient:
     Atom            X                  Y                   Z
    ------   -----------------  -----------------  -----------------
       1        0.000297079466    -0.000628807336    -0.000658531115
       2       -0.000539027381     0.001023452450     0.000833525724
       3        0.000571433504    -0.001062212763     0.000288503278
       4        0.000026122850    -0.000007127975     0.000022648160
       5        0.000001261986     0.000005230376     0.000021294529
       6       -0.000348581128     0.000667472564    -0.000498801648
       7        0.000003744206     0.000012540973    -0.000003801719
       8       -0.000005598566    -0.000001946875    -0.000014366602
       9       -0.000002835646    -0.000009192591     0.000005859596
      10        0.000001846644     0.000003737671     0.000001040859
      11       -0.000001765931    -0.000005758028     0.000001075258
      12       -0.000000245668     0.000000970476    -0.000002214862
      13        0.000002946945     0.000006060229     0.000000192471
      14       -0.000026753952    -0.000012900482    -0.000000201309
      15        0.000005365566     0.000001285928     0.000000655296
      16        0.000008896753     0.000003057948     0.000001038772
      17        0.000006110355     0.000004137433     0.000002083311

  **** Optimization is complete! (in 6 steps) ****
    Final optimized geometry and variables:
    Molecular point group: c1

    Geometry (in Angstrom), charge = 0, multiplicity = 1:

    O            0.853441916503     1.022362311898    -0.785808960540
    C            0.596155768316     0.078168771541    -0.118696196909
    C           -0.738538742342    -0.624499351746    -0.109397399330
    O            1.473193374770    -0.501541749687     0.682181989286
    C           -1.917435311087     0.343327314594    -0.176935169352
    H           -0.746296081746    -1.267909879960    -0.984898479718
    H           -0.800187571837    -1.263783298562     0.760296207066
    C           -3.255685841976    -0.383703247427    -0.241071820234
    H           -1.798774048953     0.983303282516    -1.041125567738
    H           -1.897546899698     0.992676277556     0.692639409363
    H           -3.316942576034    -1.014725074252    -1.121525597810
    H           -4.076866356332     0.321700009332    -0.282683606781
    H           -3.405502841368    -1.014679402865     0.628686345274
    C            2.778521427246     0.040619911142     0.713486087202
    H            3.234009701458    -0.006551200932    -0.264496218594
    H            3.334260532277    -0.562476860626     1.412953972597
    H            2.755874052641     1.068805490574     1.042441149730

  Mulliken Charges: (a.u.)
   Center  Symbol    Alpha    Beta     Spin     Total
       1     O     4.20158  4.20158  0.00000 -0.40316
       2     C     2.81366  2.81366  0.00000  0.37269
       3     C     3.08533  3.08533  0.00000 -0.17065
       4     O     4.14348  4.14348  0.00000 -0.28697
       5     C     3.08374  3.08374  0.00000 -0.16749
       6     H     0.44615  0.44615  0.00000  0.10769
       7     H     0.43860  0.43860  0.00000  0.12280
       8     C     3.15115  3.15115  0.00000 -0.30230
       9     H     0.43983  0.43983  0.00000  0.12034
      10     H     0.45202  0.45202  0.00000  0.09596
      11     H     0.45453  0.45453  0.00000  0.09094
      12     H     0.44587  0.44587  0.00000  0.10826
      13     H     0.45565  0.45565  0.00000  0.08869
      14     C     3.03489  3.03489  0.00000 -0.06977
      15     H     0.45433  0.45433  0.00000  0.09134
      16     H     0.44503  0.44503  0.00000  0.10995
      17     H     0.45416  0.45416  0.00000  0.09169

   Total alpha = 28.00000, Total beta = 28.00000, Total charge = -0.00000
