  ==> Input File <==

--------------------------------------------------------------------------
set {
	reference rhf
	basis 6-31G*
}

set_num_threads( 4 )
memory 2 gb

molecule MOL {
0 1

O	 1.017481	 1.620334	 -0.472118
C	 0.537271	 1.051130	 -1.398643
C	 -0.743602	 0.253315	 -1.371292
O	 1.081851	 1.044491	 -2.608751
C	 -1.412532	 0.227344	 -0.000452
H	 -1.404556	 0.674528	 -2.123936
H	 -0.508114	 -0.750754	 -1.713557
C	 -2.706999	 -0.587347	 -0.000541
H	 -1.618023	 1.244821	 0.317382
H	 -0.720065	 -0.182088	 0.728491
C	 -3.956778	 0.291888	 0.000910
H	 -2.726114	 -1.239230	 -0.871609
H	 -2.725217	 -1.240844	 0.869333
H	 -3.985213	 0.933254	 -0.875158
H	 -4.860123	 -0.309979	 0.000519
H	 -3.984618	 0.931166	 0.878514
C	 2.293177	 1.759398	 -2.772273
H	 2.150231	 2.806148	 -2.545625
H	 2.571567	 1.635501	 -3.807212
H	 3.061413	 1.357980	 -2.127150

	symmetry c1
}
set optking {
	frozen_dihedral = ("
		9 5 8 12
	")
}

ee = optimize('scf')
oeprop('DIPOLE', 'QUADRUPOLE', 'MULLIKEN_CHARGES')
f=open( 'psi4out.xyz', 'w' )
f.write( "20  " )
f.write( str(ee) + "\n" )
f.write( MOL.save_string_xyz() )
f.close()
--------------------------------------------------------------------------

    Molecular point group: c1
  Charge       = 0
  Multiplicity = 1
  Basis Set: 6-31G*
  Basis Set:
  @DF-RHF Final Energy:  -383.93642872894605
    Total Energy =                       -383.9364287289461117
    Molecular point group: c1
  Basis Set: 6-31G*
  Basis Set:
  Basis Set: 6-31G*
  Basis Set:
  @DF-RHF Final Energy:  -383.93672073095331
    Total Energy =                       -383.9367207309533114
  Basis Set: 6-31G*
  Basis Set:
  Basis Set: 6-31G*
  Basis Set:
  @DF-RHF Final Energy:  -383.93671749786535
    Total Energy =                       -383.9367174978657431
  Basis Set: 6-31G*
  Basis Set:
  Basis Set: 6-31G*
  Basis Set:
  @DF-RHF Final Energy:  -383.93679268493707
    Total Energy =                       -383.9367926849371315
  Basis Set: 6-31G*
  Basis Set:
  Basis Set: 6-31G*
  Basis Set:
  @DF-RHF Final Energy:  -383.93681265858135
    Total Energy =                       -383.9368126585815162
  Basis Set: 6-31G*
  Basis Set:
  Charge       = 0
  Multiplicity = 1
  Basis Set: 6-31G*
  Basis Set:

    Orbital Energies (a.u.)
    -----------------------

    Doubly Occupied:

       1A    -20.603741     2A    -20.545656     3A    -11.372223
       4A    -11.280934     5A    -11.235925     6A    -11.220180
       7A    -11.219260     8A    -11.211950     9A     -1.469420
      10A     -1.362901    11A     -1.087410    12A     -1.022987
      13A     -0.968511    14A     -0.888010    15A     -0.803376
      16A     -0.766979    17A     -0.700345    18A     -0.682776
      19A     -0.672394    20A     -0.633513    21A     -0.609563
      22A     -0.595635    23A     -0.573192    24A     -0.545226
      25A     -0.524965    26A     -0.522987    27A     -0.513668
      28A     -0.474903    29A     -0.472433    30A     -0.466440
      31A     -0.455598    32A     -0.436654

  @DF-RHF Final Energy:  -383.93681362828119

   => Energetics <=

    Nuclear Repulsion Energy =            383.1156389993107609
    One-Electron Energy =               -1282.2253961990165863
    Two-Electron Energy =                 515.1729435714246392
    DFT Exchange-Correlation Energy =       0.0000000000000000
    Empirical Dispersion Energy =           0.0000000000000000
    PCM Polarization Energy =               0.0000000000000000
    EFP Energy =                            0.0000000000000000
    Total Energy =                       -383.9368136282812429
    Molecular point group: c1
  Basis Set: 6-31G*
  Basis Set:

  -Total Gradient:
     Atom            X                  Y                   Z
    ------   -----------------  -----------------  -----------------
       1       -0.000005633487    -0.000020726225     0.000028688660
       2       -0.000012617910     0.000049997460    -0.000008501738
       3        0.000001238082     0.000020601375     0.000016409102
       4        0.000000491486    -0.000015072106    -0.000029919638
       5        0.000297984499    -0.000560105958     0.003242424209
       6        0.000006011678    -0.000009473486     0.000000828963
       7        0.000009716675    -0.000006407660     0.000023908081
       8        0.001524439510    -0.002521474677     0.001294610716
       9       -0.000472374122     0.000832484585    -0.002965365243
      10        0.000010600391     0.000008684941     0.000008809808
      11       -0.000018790486    -0.000030980039    -0.000001879669
      12       -0.001327425623     0.002280853026    -0.001638166633
      13        0.000002701506    -0.000018937706     0.000009350054
      14        0.000005521036    -0.000013426523    -0.000000119760
      15       -0.000021650951     0.000013428359     0.000013939171
      16        0.000012205149    -0.000005302486    -0.000004896628
      17       -0.000007419954     0.000004351998     0.000009222708
      18        0.000001051326    -0.000001224348    -0.000000408373
      19       -0.000005822352    -0.000005708651     0.000000218395
      20       -0.000000226457    -0.000001561877     0.000000847815

  **** Optimization is complete! (in 6 steps) ****
    Final optimized geometry and variables:
    Molecular point group: c1

    Geometry (in Angstrom), charge = 0, multiplicity = 1:

    O            1.466440735302     0.908243542364     0.618228922622
    C            0.993693038655     0.321867649260    -0.301532453671
    C           -0.270832038442    -0.501099854392    -0.261646895299
    O            1.533454492522     0.315797752803    -1.513880087038
    C           -0.929220603234    -0.537726673172     1.116783563796
    H           -0.946162309577    -0.094295053572    -1.009836154939
    H           -0.018830582086    -1.500945667233    -0.603639016050
    C           -2.258579844382    -1.320572804803     1.108360880736
    H           -1.104432331445     0.485542740961     1.430758050933
    H           -0.232267224120    -0.965020247104     1.828144336213
    C           -3.487336330042    -0.408837399713     1.068512927631
    H           -2.296216609298    -1.974911504510     0.240759710973
    H           -2.319831207854    -1.959996088283     1.983225255317
    H           -3.466691985259     0.242209235484     0.198476729127
    H           -4.405265079240    -0.986998164188     1.025118326513
    H           -3.533299195262     0.222879891117     1.950528030274
    C            2.729793960587     1.052936758268    -1.688413427290
    H            2.567335261188     2.098536158512    -1.469684306926
    H            3.006236830254     0.925993971572    -2.723508513980
    H            3.508449126451     0.671941078814    -1.043393130894

  Mulliken Charges: (a.u.)
   Center  Symbol    Alpha    Beta     Spin     Total
       1     O     4.28591  4.28591  0.00000 -0.57182
       2     C     2.60602  2.60602  0.00000  0.78796
       3     C     3.20962  3.20962  0.00000 -0.41925
       4     O     4.30708  4.30708  0.00000 -0.61415
       5     C     3.15501  3.15501  0.00000 -0.31002
       6     H     0.40086  0.40086  0.00000  0.19828
       7     H     0.40031  0.40031  0.00000  0.19938
       8     C     3.15820  3.15820  0.00000 -0.31641
       9     H     0.40893  0.40893  0.00000  0.18214
      10     H     0.40952  0.40952  0.00000  0.18097
      11     C     3.24003  3.24003  0.00000 -0.48007
      12     H     0.42173  0.42173  0.00000  0.15654
      13     H     0.41662  0.41662  0.00000  0.16676
      14     H     0.42302  0.42302  0.00000  0.15397
      15     H     0.41923  0.41923  0.00000  0.16154
      16     H     0.41891  0.41891  0.00000  0.16219
      17     C     3.09245  3.09245  0.00000 -0.18490
      18     H     0.40908  0.40908  0.00000  0.18185
      19     H     0.40843  0.40843  0.00000  0.18313
      20     H     0.40904  0.40904  0.00000  0.18191

   Total alpha = 32.00000, Total beta = 32.00000, Total charge =  0.00000
