                              Psi4 1.0.54 Driver

  ==> Input File <==

--------------------------------------------------------------------------
set {
	reference rhf
	basis cc-pvtz
}

set_num_threads( 4 )
memory 2 gb

molecule MOL {
0 1

H	 1.159607	 -1.140710	 0.565228
O	 1.317503	 -0.605253	 -0.191612
C	 0.706474	 0.636793	 -0.025501
C	 -0.793473	 0.591216	 0.050087
H	 1.002511	 1.240349	 -0.875433
H	 1.087812	 1.141212	 0.860412
C	 -1.534243	 -0.493009	 -0.013340
H	 -1.266611	 1.552628	 0.164437
H	 -1.101195	 -1.466332	 -0.144046
H	 -2.604242	 -0.437780	 0.050785

	symmetry c1
}
set optking {
	frozen_dihedral = ("
		5 3 4 7
	")
}

ee,wfn = optimize('scf', return_wfn=True)
oeprop( wfn, 'DIPOLE', 'QUADRUPOLE', 'MULLIKEN_CHARGES')
f=open( 'psi4out.xyz', 'w' )
f.write( "10  " )
f.write( str(ee) + "\n" )
f.write( MOL.save_string_xyz() )
f.close()
--------------------------------------------------------------------------

    Molecular point group: c1
  Charge       = 0
  Multiplicity = 1
  Basis Set: CC-PVTZ
  Basis Set:
  @DF-RHF Final Energy:  -191.99868005256644
    Total Energy =                       -191.9986800525665842
    Molecular point group: c1
  Basis Set: CC-PVTZ
  Basis Set:
  Basis Set: CC-PVTZ
  Basis Set:
  @DF-RHF Final Energy:  -191.99872093992920
    Total Energy =                       -191.9987209399292283
  Basis Set: CC-PVTZ
  Basis Set:
  Basis Set: CC-PVTZ
  Basis Set:
  @DF-RHF Final Energy:  -191.99873637681173
    Total Energy =                       -191.9987363768117064
  Basis Set: CC-PVTZ
  Basis Set:
  Charge       = 0
  Multiplicity = 1
  Basis Set: CC-PVTZ
  Basis Set:

    Orbital Energies (a.u.)
    -----------------------

    Doubly Occupied:

       1A    -20.554930     2A    -11.278440     3A    -11.230447
       4A    -11.216463     5A     -1.375424     6A     -1.062381
       7A     -0.932739     8A     -0.771239     9A     -0.694019
      10A     -0.665410    11A     -0.621961    12A     -0.573796
      13A     -0.538344    14A     -0.499609    15A     -0.452026
      16A     -0.368913

  @DF-RHF Final Energy:  -191.99873659137887

   => Energetics <=

    Nuclear Repulsion Energy =            119.5209828626568793
    One-Electron Energy =                -497.3671572355229387
    Two-Electron Energy =                 185.8474377814872582
    DFT Exchange-Correlation Energy =       0.0000000000000000
    Empirical Dispersion Energy =           0.0000000000000000
    PCM Polarization Energy =               0.0000000000000000
    EFP Energy =                            0.0000000000000000
    Total Energy =                       -191.9987365913788153
    Molecular point group: c1
  Basis Set: CC-PVTZ
  Basis Set:

  -Total Gradient:
     Atom            X                  Y                   Z
    ------   -----------------  -----------------  -----------------
       1       -0.000011554724    -0.000004514595     0.000005740079
       2        0.000020798336     0.000009674365    -0.000017849666
       3       -0.000029326731    -0.001169754099    -0.000239694093
       4       -0.000064680478     0.000374643180    -0.001494482551
       5        0.000017861661     0.000885925911     0.000665909511
       6        0.000013162023     0.000010659924     0.000003358410
       7        0.000064681979    -0.000086822595     0.001014431970
       8       -0.000002581991     0.000002385082     0.000013783888
       9       -0.000008361605    -0.000013974577     0.000017766518
      10        0.000000001530    -0.000008222598     0.000031035934

  **** Optimization is complete! (in 4 steps) ****
    Final optimized geometry and variables:
    Molecular point group: c1

    Geometry (in Angstrom), charge = 0, multiplicity = 1:

    H            1.181298670192    -1.148497436088     0.608969608917
    O            1.313982646335    -0.621387869997    -0.158288265173
    C            0.715603441191     0.624952271340     0.016073090075
    C           -0.784009742012     0.598503290163     0.098083375650
    H            1.017245809505     1.237688080716    -0.825113710478
    H            1.102679871944     1.119399041051     0.905722707490
    C           -1.542184734581    -0.472461642983     0.021234997314
    H           -1.240123726398     1.562710350443     0.251815816188
    H           -1.127974023051    -1.448312782982    -0.146508386090
    H           -2.609953195220    -0.403066756537     0.105180643601

  Mulliken Charges: (a.u.)
   Center  Symbol    Alpha    Beta     Spin     Total
       1     H     0.39087  0.39087  0.00000  0.21826
       2     O     4.19893  4.19893  0.00000 -0.39786
       3     C     2.95018  2.95018  0.00000  0.09965
       4     C     3.08197  3.08197  0.00000 -0.16395
       5     H     0.45384  0.45384  0.00000  0.09233
       6     H     0.46932  0.46932  0.00000  0.06136
       7     C     3.17770  3.17770  0.00000 -0.35541
       8     H     0.42321  0.42321  0.00000  0.15357
       9     H     0.42589  0.42589  0.00000  0.14822
      10     H     0.42808  0.42808  0.00000  0.14384

   Total alpha = 16.00000, Total beta = 16.00000, Total charge =  0.00000

*** Psi4 exiting successfully. Buy a developer a beer!
