  ==> Input File <==

--------------------------------------------------------------------------
set {
	reference rhf
	basis cc-pvtz
}

set_num_threads( 4 )
memory 2 gb

molecule MOL {
0 1

H	 -2.123894	 -0.667238	 -0.609809
O	 -2.041679	 -0.058866	 0.103463
C	 -0.959304	 0.780994	 -0.094939
C	 0.354905	 0.037902	 -0.006215
H	 -0.985899	 1.279578	 -1.057596
H	 -0.969809	 1.529522	 0.682889
F	 0.165017	 -1.217064	 0.360927
F	 0.952154	 0.023260	 -1.179534
F	 1.179951	 0.578457	 0.858117

	symmetry c1
}
set optking {
	frozen_dihedral = ("
		7 4 3 5
	")
}

ee = optimize('scf')
oeprop('DIPOLE', 'QUADRUPOLE', 'MULLIKEN_CHARGES')
f=open( 'psi4out.xyz', 'w' )
f.write( "9  " )
f.write( str(ee) + "\n" )
f.write( MOL.save_string_xyz() )
f.close()
--------------------------------------------------------------------------

    Molecular point group: c1
  Charge       = 0
  Multiplicity = 1
  Basis Set: CC-PVTZ
  Basis Set:
  @DF-RHF Final Energy:  -450.83886745417010
    Total Energy =                       -450.8388674541702130
    Molecular point group: c1
  Basis Set: CC-PVTZ
  Basis Set:
  Basis Set: CC-PVTZ
  Basis Set:
  @DF-RHF Final Energy:  -450.83943899886015
    Total Energy =                       -450.8394389988602029
  Basis Set: CC-PVTZ
  Basis Set:
  Basis Set: CC-PVTZ
  Basis Set:
  @DF-RHF Final Energy:  -450.83995631991536
    Total Energy =                       -450.8399563199153590
  Basis Set: CC-PVTZ
  Basis Set:
  Basis Set: CC-PVTZ
  Basis Set:
  @DF-RHF Final Energy:  -450.83997878400174
    Total Energy =                       -450.8399787840016302
  Basis Set: CC-PVTZ
  Basis Set:
  Charge       = 0
  Multiplicity = 1
  Basis Set: CC-PVTZ
  Basis Set:

    Orbital Energies (a.u.)
    -----------------------

    Doubly Occupied:

       1A    -26.337834     2A    -26.336824     3A    -26.335559
       4A    -20.582622     5A    -11.494967     6A    -11.310088
       7A     -1.747313     8A     -1.644015     9A     -1.640707
      10A     -1.405664    11A     -1.044479    12A     -0.929752
      13A     -0.835858    14A     -0.834484    15A     -0.812036
      16A     -0.730772    17A     -0.719364    18A     -0.703854
      19A     -0.670394    20A     -0.664543    21A     -0.647317
      22A     -0.630989    23A     -0.614806    24A     -0.529629
      25A     -0.483991

  @DF-RHF Final Energy:  -450.83998053490154

   => Energetics <=

    Nuclear Repulsion Energy =            276.4785809506093983
    One-Electron Energy =               -1175.2614012457570425
    Two-Electron Energy =                 447.9428397602463292
    DFT Exchange-Correlation Energy =       0.0000000000000000
    Empirical Dispersion Energy =           0.0000000000000000
    PCM Polarization Energy =               0.0000000000000000
    EFP Energy =                            0.0000000000000000
    Total Energy =                       -450.8399805349013150
    Molecular point group: c1
  Basis Set: CC-PVTZ
  Basis Set:

  -Total Gradient:
     Atom            X                  Y                   Z
    ------   -----------------  -----------------  -----------------
       1       -0.000000918395     0.000008579977    -0.000006871191
       2        0.000128085608     0.000062639542    -0.000016975596
       3        0.000526318335     0.001159052523     0.000312075803
       4        0.000158118413     0.000237411579     0.001286290539
       5       -0.000586927054    -0.001070031137    -0.000556319054
       6       -0.000001317998    -0.000019852884    -0.000001910889
       7       -0.000141433187    -0.000378109324    -0.001013897788
       8       -0.000037837922     0.000057665281     0.000092440831
       9       -0.000044087804    -0.000057355555    -0.000094832655

  **** Optimization is complete! (in 5 steps) ****
    Final optimized geometry and variables:
    Molecular point group: c1

    Geometry (in Angstrom), charge = 0, multiplicity = 1:

    H           -2.164906068353    -0.654768069463    -0.600616111336
    O           -2.081879508984    -0.025485574643     0.093593667983
    C           -0.975100823106     0.783859021266    -0.094623981700
    C            0.359865443329     0.028493894038    -0.005403838529
    H           -0.997639399847     1.283681386382    -1.055165492177
    H           -0.986892228719     1.526431673007     0.686687319242
    F            0.204780502946    -1.223452367787     0.353224481977
    F            0.979644870824     0.020396185257    -1.173049565306
    F            1.177047651238     0.597068095475     0.855616964601

  Mulliken Charges: (a.u.)
   Center  Symbol    Alpha    Beta     Spin     Total
       1     H     0.38915  0.38915  0.00000  0.22171
       2     O     4.18404  4.18404  0.00000 -0.36808
       3     C     3.00739  3.00739  0.00000 -0.01478
       4     C     2.67984  2.67984  0.00000  0.64031
       5     H     0.46038  0.46038  0.00000  0.07925
       6     H     0.44746  0.44746  0.00000  0.10508
       7     F     4.60701  4.60701  0.00000 -0.21402
       8     F     4.61428  4.61428  0.00000 -0.22855
       9     F     4.61046  4.61046  0.00000 -0.22092

   Total alpha = 25.00000, Total beta = 25.00000, Total charge = -0.00000
