                              Psi4 1.0.54 Driver

  ==> Input File <==

--------------------------------------------------------------------------
set {
	reference rhf
	basis cc-pvtz
}

set_num_threads( 4 )
memory 2 gb

molecule MOL {
0 1

H	 -2.362939	 -1.309000	 -0.383250
C	 -1.359344	 -1.272457	 0.020748
C	 -0.684082	 0.000127	 -0.464918
H	 -0.825835	 -2.151141	 -0.318537
H	 -1.416276	 -1.292399	 1.099455
C	 -1.359089	 1.272668	 0.021259
N	 0.742439	 -0.000109	 0.007333
H	 -0.596914	 0.000345	 -1.538146
H	 -2.362696	 1.309620	 -0.382686
H	 -0.825392	 2.151374	 -0.317674
H	 -1.415983	 1.292181	 1.099973
O	 1.424597	 0.911238	 -0.320922
O	 1.095941	 -0.911550	 0.678602

	symmetry c1
}
set optking {
	frozen_dihedral = ("
		12 7 3 8
	")
}

ee,wfn = optimize('scf', return_wfn=True)
oeprop( wfn, 'DIPOLE', 'QUADRUPOLE', 'MULLIKEN_CHARGES')
f=open( 'psi4out.xyz', 'w' )
f.write( "13  " )
f.write( str(ee) + "\n" )
f.write( MOL.save_string_xyz() )
f.close()
--------------------------------------------------------------------------

    Molecular point group: c1
  Charge       = 0
  Multiplicity = 1
  Basis Set: CC-PVTZ
  Basis Set:
  @DF-RHF Final Energy:  -321.86216852757735
    Total Energy =                       -321.8621685275775235
    Molecular point group: c1
  Basis Set: CC-PVTZ
  Basis Set:
  Basis Set: CC-PVTZ
  Basis Set:
  @DF-RHF Final Energy:  -321.86224058937216
    Total Energy =                       -321.8622405893722771
  Basis Set: CC-PVTZ
  Basis Set:
  Basis Set: CC-PVTZ
  Basis Set:
  @DF-RHF Final Energy:  -321.86292811445725
    Total Energy =                       -321.8629281144575316
  Basis Set: CC-PVTZ
  Basis Set:
  Basis Set: CC-PVTZ
  Basis Set:
  @DF-RHF Final Energy:  -321.86286998416443
    Total Energy =                       -321.8628699841644902
  Basis Set: CC-PVTZ
  Basis Set:
  Basis Set: CC-PVTZ
  Basis Set:
  @DF-RHF Final Energy:  -321.86288664153813
    Total Energy =                       -321.8628866415380685
  Basis Set: CC-PVTZ
  Basis Set:
  Basis Set: CC-PVTZ
  Basis Set:
  @DF-RHF Final Energy:  -321.86302331988782
    Total Energy =                       -321.8630233198879296
  Basis Set: CC-PVTZ
  Basis Set:
  Charge       = 0
  Multiplicity = 1
  Basis Set: CC-PVTZ
  Basis Set:

    Orbital Energies (a.u.)
    -----------------------

    Doubly Occupied:

       1A    -20.591580     2A    -20.585617     3A    -15.833605
       4A    -11.306169     5A    -11.242184     6A    -11.237303
       7A     -1.634390     8A     -1.418289     9A     -1.140584
      10A     -0.969420    11A     -0.957962    12A     -0.815264
      13A     -0.762325    14A     -0.730302    15A     -0.724241
      16A     -0.642980    17A     -0.593568    18A     -0.587753
      19A     -0.570468    20A     -0.524894    21A     -0.521530
      22A     -0.484313    23A     -0.472367    24A     -0.451521

  @DF-RHF Final Energy:  -321.86302382296930

   => Energetics <=

    Nuclear Repulsion Energy =            257.3345956033840025
    One-Electron Energy =                -948.7979790844835861
    Two-Electron Energy =                 369.6003596581303441
    DFT Exchange-Correlation Energy =       0.0000000000000000
    Empirical Dispersion Energy =           0.0000000000000000
    PCM Polarization Energy =               0.0000000000000000
    EFP Energy =                            0.0000000000000000
    Total Energy =                       -321.8630238229691827
    Molecular point group: c1
  Basis Set: CC-PVTZ
  Basis Set:

  -Total Gradient:
     Atom            X                  Y                   Z
    ------   -----------------  -----------------  -----------------
       1       -0.000004444876     0.000009434240     0.000001514440
       2        0.000012443838    -0.000006715598    -0.000022592740
       3       -0.000230606396     0.001911916931     0.000335886465
       4       -0.000004594746     0.000008574130    -0.000006247630
       5        0.000003268852     0.000003185895     0.000013762472
       6       -0.000012044328     0.000001244279     0.000009036925
       7        0.000602658293    -0.001009039170    -0.001649382206
       8        0.000076620966    -0.001457908276     0.000050834151
       9       -0.000007600154     0.000004011110     0.000002822407
      10       -0.000006050340    -0.000001448246    -0.000002928606
      11       -0.000001252769     0.000004368205    -0.000002586753
      12       -0.000493878422     0.000603184548     0.001200926435
      13        0.000065480087    -0.000070808048     0.000068954644

  **** Optimization is complete! (in 7 steps) ****
    Final optimized geometry and variables:
    Molecular point group: c1

    Geometry (in Angstrom), charge = 0, multiplicity = 1:

    H           -2.315515552524    -1.401915595177    -0.437692466228
    C           -1.332047487266    -1.343785297825     0.012300276496
    C           -0.668186557835    -0.069147222996    -0.469728539659
    H           -0.769803403005    -2.219200525609    -0.275573127716
    H           -1.443872178255    -1.348265777753     1.087439998035
    C           -1.416384043582     1.195291442030    -0.071900306881
    N            0.749686751356     0.035271358351     0.038462809453
    H           -0.535723916924    -0.100807374194    -1.542000468017
    H           -2.419398075959     1.147227902147    -0.475090658319
    H           -0.927940971371     2.076841433119    -0.455565312949
    H           -1.488496416719     1.273408709893     1.006338672062
    O            1.367607795597     0.982642402947    -0.318942507873
    O            1.163179218428    -0.814152712340     0.751207065562

  Mulliken Charges: (a.u.)
   Center  Symbol    Alpha    Beta     Spin     Total
       1     H     0.45032  0.45032  0.00000  0.09935
       2     C     3.14237  3.14237  0.00000 -0.28474
       3     C     3.00682  3.00682  0.00000 -0.01364
       4     H     0.43682  0.43682  0.00000  0.12636
       5     H     0.44279  0.44279  0.00000  0.11441
       6     C     3.14426  3.14426  0.00000 -0.28852
       7     N     3.27511  3.27511  0.00000  0.44977
       8     H     0.42952  0.42952  0.00000  0.14095
       9     H     0.44966  0.44966  0.00000  0.10069
      10     H     0.43115  0.43115  0.00000  0.13771
      11     H     0.44619  0.44619  0.00000  0.10762
      12     O     4.17581  4.17581  0.00000 -0.35162
      13     O     4.16918  4.16918  0.00000 -0.33835

   Total alpha = 24.00000, Total beta = 24.00000, Total charge =  0.00000

*** Psi4 exiting successfully. Buy a developer a beer!
