  ==> Input File <==

--------------------------------------------------------------------------
set {
	reference rhf
	basis 6-31G*
}

set_num_threads( 1 )
memory 2 gb

molecule MOL {
0 1

H	 -3.135461	 -1.215070	 0.001379
O	 -2.310168	 -0.871793	 -0.309793
C	 -2.026376	 0.340750	 0.341611
C	 -0.673256	 0.843270	 -0.132153
H	 -2.792215	 1.080697	 0.115987
H	 -2.013526	 0.200402	 1.421792
C	 0.486613	 -0.083066	 0.235839
H	 -0.715586	 0.970948	 -1.210718
H	 -0.508072	 1.829858	 0.297090
C	 0.031984	 -1.342024	 0.976211
H	 1.197593	 0.462969	 0.847286
H	 1.015981	 -0.372292	 -0.671332
C	 1.190447	 -2.270557	 1.338792
H	 -0.496192	 -1.054607	 1.882930
H	 -0.686225	 -1.884154	 0.364072
H	 1.908814	 -1.767515	 1.979718
H	 0.838760	 -3.153103	 1.864503
H	 1.718861	 -2.603808	 0.449842

	symmetry c1
}
set optking {
	frozen_dihedral = ("
		14 10 7 11,
		2 3 4 8,
		1 2 3 4
	")
}

ee = energy('scf')
oeprop('DIPOLE', 'QUADRUPOLE', 'MULLIKEN_CHARGES')
f=open( 'psi4out.xyz', 'w' )
f.write( "18  " )
f.write( str(ee) + "\n" )
f.write( MOL.save_string_xyz() )
f.close()
--------------------------------------------------------------------------

    Molecular point group: c1

    Geometry (in Angstrom), charge = 0, multiplicity = 1:

       Center              X                  Y                   Z               Mass
    ------------   -----------------  -----------------  -----------------  -----------------
           H         -2.539086075398    -0.628750547911    -0.402400890726     1.007825032070
           O         -1.713793075398    -0.285473547911    -0.713572890726    15.994914619560
           C         -1.430001075398     0.927069452089    -0.062168890726    12.000000000000
           C         -0.076881075398     1.429589452089    -0.535932890726    12.000000000000
           H         -2.195840075398     1.667016452089    -0.287792890726     1.007825032070
           H         -1.417151075398     0.786721452089     1.018012109274     1.007825032070
           C          1.082987924602     0.503253452089    -0.167940890726    12.000000000000
           H         -0.119211075398     1.557267452089    -1.614497890726     1.007825032070
           H          0.088302924602     2.416177452089    -0.106689890726     1.007825032070
           C          0.628358924602    -0.755704547911     0.572431109274    12.000000000000
           H          1.793967924602     1.049288452089     0.443506109274     1.007825032070
           H          1.612355924602     0.214027452089    -1.075111890726     1.007825032070
           C          1.786821924602    -1.684237547911     0.935012109274    12.000000000000
           H          0.100182924602    -0.468287547911     1.479150109274     1.007825032070
           H         -0.089850075398    -1.297834547911    -0.039707890726     1.007825032070
           H          2.505188924602    -1.181195547911     1.575938109274     1.007825032070
           H          1.435134924602    -2.566783547911     1.460723109274     1.007825032070
           H          2.315235924602    -2.017488547911     0.046062109274     1.007825032070

  Charge       = 0
  Multiplicity = 1
  Basis Set: 6-31G*
  Basis Set:

    Orbital Energies (a.u.)
    -----------------------

    Doubly Occupied:

       1A    -20.555197     2A    -11.268600     3A    -11.211387
       4A    -11.205165     5A    -11.196956     6A    -11.194842
       7A     -1.365117     8A     -1.073413     9A     -1.001580
      10A     -0.910738    11A     -0.832556    12A     -0.763009
      13A     -0.709522    14A     -0.648639    15A     -0.620893
      16A     -0.580616    17A     -0.563819    18A     -0.552313
      19A     -0.534477    20A     -0.493904    21A     -0.488067
      22A     -0.471794    23A     -0.449835    24A     -0.439373
      25A     -0.413955

  @DF-RHF Final Energy:  -271.16105763638245

   => Energetics <=

    Nuclear Repulsion Energy =            260.7200274649901530
    One-Electron Energy =                -884.6704903469635610
    Two-Electron Energy =                 352.7894052455912970
    DFT Exchange-Correlation Energy =       0.0000000000000000
    Empirical Dispersion Energy =           0.0000000000000000
    PCM Polarization Energy =               0.0000000000000000
    EFP Energy =                            0.0000000000000000
    Total Energy =                       -271.1610576363821110

  Mulliken Charges: (a.u.)
   Center  Symbol    Alpha    Beta     Spin     Total
       1     H     0.28061  0.28061  0.00000  0.43879
       2     O     4.36762  4.36762  0.00000 -0.73524
       3     C     3.01116  3.01116  0.00000 -0.02233
       4     C     3.15981  3.15981  0.00000 -0.31962
       5     H     0.42504  0.42504  0.00000  0.14992
       6     H     0.42814  0.42814  0.00000  0.14372
       7     C     3.15325  3.15325  0.00000 -0.30651
       8     H     0.41256  0.41256  0.00000  0.17488
       9     H     0.42109  0.42109  0.00000  0.15783
      10     C     3.16651  3.16651  0.00000 -0.33301
      11     H     0.42354  0.42354  0.00000  0.15293
      12     H     0.41972  0.41972  0.00000  0.16057
      13     C     3.23568  3.23568  0.00000 -0.47135
      14     H     0.43112  0.43112  0.00000  0.13777
      15     H     0.39043  0.39043  0.00000  0.21914
      16     H     0.42693  0.42693  0.00000  0.14613
      17     H     0.42307  0.42307  0.00000  0.15386
      18     H     0.42374  0.42374  0.00000  0.15252

   Total alpha = 25.00000, Total beta = 25.00000, Total charge =  0.00000
