  ==> Input File <==

--------------------------------------------------------------------------
set {
	reference rhf
	basis cc-pvtz
}

set_num_threads( 4 )
memory 2 gb

molecule MOL {
0 1

H	 2.358993	 -1.904770	 0.609727
N	 1.378483	 -1.727532	 0.619506
C	 0.839444	 -1.756665	 -0.725273
C	 1.091931	 -0.470565	 1.281142
H	 1.052012	 -2.720649	 -1.171258
H	 1.277565	 -0.987392	 -1.363935
C	 -0.662525	 -1.544114	 -0.670635
H	 1.487456	 -0.502610	 2.289054
H	 1.546003	 0.379965	 0.769247
C	 -0.410369	 -0.259698	 1.333152
H	 -1.124047	 -2.396930	 -0.164382
H	 -1.059236	 -1.506660	 -1.678274
N	 -0.976577	 -0.298712	 -0.000000
H	 -0.624757	 0.706469	 1.774376
H	 -0.854520	 -1.024029	 1.977449
C	 -2.391156	 -0.021003	 -0.000000
H	 -2.853954	 -0.458728	 -0.875714
H	 -2.853954	 -0.458728	 0.875714
H	 -2.614037	 1.049773	 -0.000000

	symmetry c1
}
set optking {
	frozen_dihedral = ("
		7 13 16 19
	")
}

ee = optimize('scf')
oeprop('DIPOLE', 'QUADRUPOLE', 'MULLIKEN_CHARGES')
f=open( 'psi4out.xyz', 'w' )
f.write( "19  " )
f.write( str(ee) + "\n" )
f.write( MOL.save_string_xyz() )
f.close()
--------------------------------------------------------------------------

    Molecular point group: c1
  Charge       = 0
  Multiplicity = 1
  Basis Set: CC-PVTZ
  Basis Set:
  @DF-RHF Final Energy:  -305.30586603478315
    Total Energy =                       -305.3058660347826958
    Molecular point group: c1
  Basis Set: CC-PVTZ
  Basis Set:
  Basis Set: CC-PVTZ
  Basis Set:
  @DF-RHF Final Energy:  -305.30678875548955
    Total Energy =                       -305.3067887554894355
  Basis Set: CC-PVTZ
  Basis Set:
  Basis Set: CC-PVTZ
  Basis Set:
  @DF-RHF Final Energy:  -305.30687665955219
    Total Energy =                       -305.3068766595520742
  Basis Set: CC-PVTZ
  Basis Set:
  Charge       = 0
  Multiplicity = 1
  Basis Set: CC-PVTZ
  Basis Set:

    Orbital Energies (a.u.)
    -----------------------

    Doubly Occupied:

       1A    -15.534150     2A    -15.531091     3A    -11.236983
       4A    -11.236964     5A    -11.235956     6A    -11.235699
       7A    -11.233016     8A     -1.247944     9A     -1.186624
      10A     -1.024160    11A     -0.965712    12A     -0.862077
      13A     -0.858357    14A     -0.756329    15A     -0.692390
      16A     -0.634791    17A     -0.626330    18A     -0.608335
      19A     -0.604866    20A     -0.582299    21A     -0.543668
      22A     -0.532720    23A     -0.511019    24A     -0.489635
      25A     -0.468511    26A     -0.458410    27A     -0.366015
      28A     -0.342926

  @DF-RHF Final Energy:  -305.30688041457569

   => Energetics <=

    Nuclear Repulsion Energy =            340.0096250880363300
    One-Electron Energy =               -1087.4190557059364437
    Two-Electron Energy =                 442.1025502033246539
    DFT Exchange-Correlation Energy =       0.0000000000000000
    Empirical Dispersion Energy =           0.0000000000000000
    PCM Polarization Energy =               0.0000000000000000
    EFP Energy =                            0.0000000000000000
    Total Energy =                       -305.3068804145755166
    Molecular point group: c1
  Basis Set: CC-PVTZ
  Basis Set:

  -Total Gradient:
     Atom            X                  Y                   Z
    ------   -----------------  -----------------  -----------------
       1       -0.000004492826     0.000019007191    -0.000004165768
       2       -0.000023078450    -0.000012765653     0.000025555677
       3       -0.000013609975    -0.000020300463     0.000029398819
       4        0.000014418188     0.000028044475    -0.000046766369
       5        0.000045142664    -0.000030059032    -0.000008082335
       6       -0.000039861263    -0.000010514155     0.000011293558
       7        0.000459392141     0.001525708854    -0.002982816665
       8        0.000024625119    -0.000014385823     0.000008046827
       9        0.000005211685    -0.000002561526     0.000006575336
      10        0.000039724491    -0.000034394375     0.000156948043
      11        0.000037798881     0.000082956866    -0.000006292349
      12        0.000000229293     0.000014491312     0.000005797060
      13       -0.000554014182    -0.002287871384     0.002889976256
      14       -0.000001650327     0.000001670041    -0.000011734276
      15       -0.000015585824     0.000022468376    -0.000072060218
      16       -0.000129475617     0.000715674504     0.004440781240
      17        0.000014464106    -0.000004362014    -0.000015252614
      18        0.000058889211    -0.000040894862    -0.000013336615
      19        0.000081872684     0.000048087663    -0.004413865607

  **** Optimization is complete! (in 4 steps) ****
    Final optimized geometry and variables:
    Molecular point group: c1

    Geometry (in Angstrom), charge = 0, multiplicity = 1:

    H            2.539591640301    -1.015707728464     0.336206648118
    N            1.557921153940    -0.844992974268     0.350425334571
    C            1.012775620614    -0.884064154302    -0.991591134511
    C            1.266754954093     0.413306806761     1.007251406297
    H            1.240442363112    -1.844106136889    -1.438941679850
    H            1.435006134302    -0.106797769501    -1.631576854906
    C           -0.492908948294    -0.696452410853    -0.932975494357
    H            1.673522567277     0.391894449246     2.011079809263
    H            1.707298333991     1.264542848943     0.484574827098
    C           -0.237179611484     0.608128355189     1.073102292326
    H           -0.937933884089    -1.566254777793    -0.440190764592
    H           -0.888244020918    -0.650810926803    -1.940126397402
    N           -0.819875445038     0.536391817012    -0.248364412178
    H           -0.458927210529     1.580206479485     1.498882849342
    H           -0.665185804635    -0.148042389773     1.737840904369
    C           -2.227662395766     0.856700288269    -0.256344459189
    H           -2.676809734673     0.503615260194    -1.176126466042
    H           -2.775293537713     0.404667285935     0.572321818781
    H           -2.372678555539     1.930908900047    -0.234695289754

  Mulliken Charges: (a.u.)
   Center  Symbol    Alpha    Beta     Spin     Total
       1     H     0.43994  0.43994  0.00000  0.12012
       2     N     3.64278  3.64278  0.00000 -0.28555
       3     C     3.04172  3.04172  0.00000 -0.08343
       4     C     3.04090  3.04090  0.00000 -0.08180
       5     H     0.45259  0.45259  0.00000  0.09483
       6     H     0.46595  0.46595  0.00000  0.06810
       7     C     3.03171  3.03171  0.00000 -0.06343
       8     H     0.45257  0.45257  0.00000  0.09486
       9     H     0.46579  0.46579  0.00000  0.06843
      10     C     3.03398  3.03398  0.00000 -0.06796
      11     H     0.47022  0.47022  0.00000  0.05956
      12     H     0.45427  0.45427  0.00000  0.09147
      13     N     3.61533  3.61533  0.00000 -0.23066
      14     H     0.45444  0.45444  0.00000  0.09111
      15     H     0.46829  0.46829  0.00000  0.06342
      16     C     3.09553  3.09553  0.00000 -0.19106
      17     H     0.45560  0.45560  0.00000  0.08879
      18     H     0.46750  0.46750  0.00000  0.06499
      19     H     0.45090  0.45090  0.00000  0.09820

   Total alpha = 28.00000, Total beta = 28.00000, Total charge = -0.00000
