                              Psi4 1.0.54 Driver

  ==> Input File <==

--------------------------------------------------------------------------
set {
	reference rhf
	basis cc-pvtz
}

set_num_threads( 4 )
memory 2 gb

molecule MOL {
0 1

O	 -2.628787	 1.046561	 1.144816
C	 -2.564158	 -0.007209	 0.608330
C	 -3.710652	 -0.979078	 0.535493
O	 -1.481217	 -0.452708	 0.001092
H	 -4.545011	 -0.491180	 0.049817
H	 -3.445153	 -1.876150	 -0.000615
H	 -4.015684	 -1.227085	 1.543224
C	 -0.332055	 0.384012	 -0.000250
C	 0.892252	 -0.506059	 -0.000295
H	 -0.360822	 1.020205	 -0.874146
H	 -0.359817	 1.021310	 0.872861
C	 2.188199	 0.299473	 -0.001416
H	 0.857046	 -1.152781	 -0.871031
H	 0.857910	 -1.151798	 0.871202
C	 3.437151	 -0.577593	 -0.000991
H	 2.209565	 0.950707	 -0.871712
H	 2.210062	 0.952234	 0.867721
C	 4.732399	 0.226982	 -0.000914
H	 3.417321	 -1.229122	 -0.869998
H	 3.416993	 -1.228707	 0.868337
H	 4.797903	 0.863451	 -0.876963
H	 5.598517	 -0.424436	 -0.000420
H	 4.797415	 0.864118	 0.874691

	symmetry c1
}
set optking {
	frozen_dihedral = ("
		2 4 8 10
	")
}

ee,wfn = optimize('scf', return_wfn=True)
oeprop( wfn, 'DIPOLE', 'QUADRUPOLE', 'MULLIKEN_CHARGES')
f=open( 'psi4out.xyz', 'w' )
f.write( "23  " )
f.write( str(ee) + "\n" )
f.write( MOL.save_string_xyz() )
f.close()
--------------------------------------------------------------------------

    Molecular point group: c1
  Charge       = 0
  Multiplicity = 1
  Basis Set: CC-PVTZ
  Basis Set:
  @DF-RHF Final Energy:  -423.13334592799498
    Total Energy =                       -423.1333459279951512
    Molecular point group: c1
  Basis Set: CC-PVTZ
  Basis Set:
  Basis Set: CC-PVTZ
  Basis Set:
  @DF-RHF Final Energy:  -423.13333438214369
    Total Energy =                       -423.1333343821438575
  Basis Set: CC-PVTZ
  Basis Set:
  Basis Set: CC-PVTZ
  Basis Set:
  @DF-RHF Final Energy:  -423.13291505927651
    Total Energy =                       -423.1329150592763426
  Basis Set: CC-PVTZ
  Basis Set:
  Basis Set: CC-PVTZ
  Basis Set:
  @DF-RHF Final Energy:  -423.13361171181754
    Total Energy =                       -423.1336117118175935
  Basis Set: CC-PVTZ
  Basis Set:
  Basis Set: CC-PVTZ
  Basis Set:
  @DF-RHF Final Energy:  -423.13365198628310
    Total Energy =                       -423.1336519862836667
  Basis Set: CC-PVTZ
  Basis Set:
  Charge       = 0
  Multiplicity = 1
  Basis Set: CC-PVTZ
  Basis Set:

    Orbital Energies (a.u.)
    -----------------------

    Doubly Occupied:

       1A    -20.595474     2A    -20.529090     3A    -11.367148
       4A    -11.278825     5A    -11.230305     6A    -11.222233
       7A    -11.221314     8A    -11.219465     9A    -11.210891
      10A     -1.469678    11A     -1.364323    12A     -1.095198
      13A     -1.043249    14A     -1.003982    15A     -0.932142
      16A     -0.843821    17A     -0.802257    18A     -0.775582
      19A     -0.697802    20A     -0.685221    21A     -0.668677
      22A     -0.648633    23A     -0.607083    24A     -0.588945
      25A     -0.585000    26A     -0.569716    27A     -0.557007
      28A     -0.538268    29A     -0.524498    30A     -0.506289
      31A     -0.491607    32A     -0.478428    33A     -0.471997
      34A     -0.470250    35A     -0.450709    36A     -0.437476

  @DF-RHF Final Energy:  -423.13365245948177

   => Energetics <=

    Nuclear Repulsion Energy =            450.7015452098902983
    One-Electron Energy =               -1469.3052343354481764
    Two-Electron Energy =                 595.4700366660754298
    DFT Exchange-Correlation Energy =       0.0000000000000000
    Empirical Dispersion Energy =           0.0000000000000000
    PCM Polarization Energy =               0.0000000000000000
    EFP Energy =                            0.0000000000000000
    Total Energy =                       -423.1336524594823914
    Molecular point group: c1
  Basis Set: CC-PVTZ
  Basis Set:

  -Total Gradient:
     Atom            X                  Y                   Z
    ------   -----------------  -----------------  -----------------
       1       -0.000061050891     0.000064190383     0.000048515487
       2        0.000472383255    -0.000661446740     0.001143680029
       3        0.000018890847     0.000045944696     0.000003920644
       4       -0.000483244217     0.000476451943    -0.001852861383
       5        0.000014696547    -0.000008596162     0.000007347625
       6       -0.000000496940     0.000004502238     0.000000747146
       7        0.000009232118     0.000009354738    -0.000016221111
       8       -0.000771310350     0.001143936893     0.001376542833
       9       -0.000027706681     0.000005054584     0.000020580603
      10        0.000829289557    -0.001047544705    -0.000746469069
      11        0.000004698396    -0.000028883370    -0.000011635341
      12       -0.000010562290     0.000004521409     0.000014932632
      13       -0.000009221912     0.000009811419     0.000005507148
      14        0.000012865688    -0.000012090338     0.000006609979
      15       -0.000003015472    -0.000003537977    -0.000000235366
      16       -0.000002781906    -0.000001652218     0.000006807018
      17        0.000001503762     0.000000863368    -0.000000010760
      18        0.000003698648    -0.000001657659    -0.000006471938
      19        0.000001746487    -0.000003194125     0.000002774231
      20        0.000000431054     0.000005806540    -0.000002331229
      21        0.000000231638    -0.000000037710     0.000002306080
      22        0.000001668805     0.000001777794    -0.000001861405
      23       -0.000001946148    -0.000003575003    -0.000002173854

  **** Optimization is complete! (in 6 steps) ****
    Final optimized geometry and variables:
    Molecular point group: c1

    Geometry (in Angstrom), charge = 0, multiplicity = 1:

    O           -2.750636163831     1.105499184984     0.814642089538
    C           -2.627509313162     0.038159810836     0.316748347161
    C           -3.734384354052    -0.979465627706     0.249209547203
    O           -1.512724539517    -0.393872314440    -0.241771076958
    H           -4.571506288221    -0.542086494263    -0.278076150240
    H           -3.420264778974    -1.885389952227    -0.243936964256
    H           -4.059508518257    -1.200202697348     1.257081456351
    C           -0.363077344832     0.443463981913    -0.228726700887
    C            0.867049087515    -0.440850320733    -0.210921186565
    H           -0.381244453534     1.053631374467    -1.123326668440
    H           -0.400540493553     1.093429327445     0.630397710862
    C            2.158390163693     0.371326101745    -0.245294024564
    H            0.830324517751    -1.114924393615    -1.060581637704
    H            0.841528685812    -1.058926963390     0.681005205126
    C            3.412436767232    -0.498125145446    -0.224749460056
    H            2.170972382141     0.994520464083    -1.136253978014
    H            2.181351621026     1.051746918073     0.602379983645
    C            4.702826387409     0.313399576928    -0.261253250096
    H            3.390247027475    -1.178680429262    -1.071260410631
    H            3.402470728622    -1.119699062695     0.666138363564
    H            4.758344948318     0.920502335670    -1.158665482035
    H            5.572709923792    -0.332850053291    -0.245341096715
    H            4.770385685143     0.979920879027     0.592034300469

  Mulliken Charges: (a.u.)
   Center  Symbol    Alpha    Beta     Spin     Total
       1     O     4.20304  4.20304  0.00000 -0.40608
       2     C     2.81079  2.81079  0.00000  0.37842
       3     C     3.14216  3.14216  0.00000 -0.28433
       4     O     4.14793  4.14793  0.00000 -0.29587
       5     H     0.44208  0.44208  0.00000  0.11584
       6     H     0.44203  0.44203  0.00000  0.11595
       7     H     0.44230  0.44230  0.00000  0.11541
       8     C     2.98232  2.98232  0.00000  0.03535
       9     C     3.08192  3.08192  0.00000 -0.16385
      10     H     0.45574  0.45574  0.00000  0.08852
      11     H     0.44559  0.44559  0.00000  0.10883
      12     C     3.09835  3.09835  0.00000 -0.19671
      13     H     0.45035  0.45035  0.00000  0.09931
      14     H     0.45158  0.45158  0.00000  0.09685
      15     C     3.08487  3.08487  0.00000 -0.16975
      16     H     0.45359  0.45359  0.00000  0.09283
      17     H     0.45201  0.45201  0.00000  0.09597
      18     C     3.14965  3.14965  0.00000 -0.29929
      19     H     0.45357  0.45357  0.00000  0.09286
      20     H     0.45333  0.45333  0.00000  0.09334
      21     H     0.45476  0.45476  0.00000  0.09047
      22     H     0.44768  0.44768  0.00000  0.10465
      23     H     0.45436  0.45436  0.00000  0.09127

   Total alpha = 36.00000, Total beta = 36.00000, Total charge = -0.00000

*** Psi4 exiting successfully. Buy a developer a beer!
