  ==> Input File <==

--------------------------------------------------------------------------
set {
	reference rhf
	basis 6-31G*
}

set_num_threads( 4 )
memory 2 gb

molecule MOL {
0 1

H	 -1.492433	 -0.280027	 0.297401
N	 -0.626943	 -0.667432	 -0.000092
C	 -0.603740	 -2.052360	 -0.412588
C	 0.469286	 0.129090	 0.000148
H	 -0.913465	 -2.704173	 0.397484
H	 0.405469	 -2.302439	 -0.696640
H	 -1.259328	 -2.216392	 -1.261310
C	 1.788933	 -0.616240	 -0.000037
O	 0.411098	 1.327768	 -0.000049
H	 1.872803	 -1.245775	 -0.880381
H	 2.595421	 0.101576	 0.003713
H	 1.870096	 -1.252171	 0.875943

	symmetry c1
}
set optking {
	frozen_dihedral = ("
		3 2 4 9
	")
}

ee = optimize('scf')
oeprop('DIPOLE', 'QUADRUPOLE', 'MULLIKEN_CHARGES')
f=open( 'psi4out.xyz', 'w' )
f.write( "12  " )
f.write( str(ee) + "\n" )
f.write( MOL.save_string_xyz() )
f.close()
--------------------------------------------------------------------------

    Molecular point group: c1
  Charge       = 0
  Multiplicity = 1
  Basis Set: 6-31G*
  Basis Set:
  @DF-RHF Final Energy:  -246.99185611309969
    Total Energy =                       -246.9918561130996864
    Molecular point group: c1
  Basis Set: 6-31G*
  Basis Set:
  Basis Set: 6-31G*
  Basis Set:
  @DF-RHF Final Energy:  -246.99485471876994
    Total Energy =                       -246.9948547187698864
  Basis Set: 6-31G*
  Basis Set:
  Basis Set: 6-31G*
  Basis Set:
  @DF-RHF Final Energy:  -246.99812598761173
    Total Energy =                       -246.9981259876117861
  Basis Set: 6-31G*
  Basis Set:
  Basis Set: 6-31G*
  Basis Set:
  @DF-RHF Final Energy:  -246.99995237959314
    Total Energy =                       -246.9999523795930259
  Basis Set: 6-31G*
  Basis Set:
  @DF-RHF Final Energy:  -246.99997690440790
    Total Energy =                       -246.9999769044081290
  @DF-RHF Final Energy:  -247.00036730848896
    Total Energy =                       -247.0003673084889897
  @DF-RHF Final Energy:  -247.00058203455853
    Total Energy =                       -247.0005820345584198
  @DF-RHF Final Energy:  -247.00105826465145
    Total Energy =                       -247.0010582646515331
  @DF-RHF Final Energy:  -247.00139800755647
    Total Energy =                       -247.0013980075567588
  Basis Set: 6-31G*
  Basis Set:
  @DF-RHF Final Energy:  -247.00152759455955
    Total Energy =                       -247.0015275945596045
  Basis Set: 6-31G*
  Basis Set:
  Basis Set: 6-31G*
  Basis Set:
  @DF-RHF Final Energy:  -247.00154716513345
    Total Energy =                       -247.0015471651333883
  Basis Set: 6-31G*
  Basis Set:
  Basis Set: 6-31G*
  Basis Set:
  @DF-RHF Final Energy:  -247.00156878905210
    Total Energy =                       -247.0015687890522713
  Basis Set: 6-31G*
  Basis Set:
  Charge       = 0
  Multiplicity = 1
  Basis Set: 6-31G*
  Basis Set:

    Orbital Energies (a.u.)
    -----------------------

    Doubly Occupied:

       1A    -20.518293     2A    -15.579022     3A    -11.343925
       4A    -11.271050     5A    -11.229962     6A     -1.386545
       7A     -1.228762     8A     -1.005815     9A     -0.955900
      10A     -0.780372    11A     -0.673533    12A     -0.667318
      13A     -0.639828    14A     -0.587297    15A     -0.577134
      16A     -0.561504    17A     -0.555326    18A     -0.514218
      19A     -0.414583    20A     -0.385581

  @DF-RHF Final Energy:  -247.00156953006089

   => Energetics <=

    Nuclear Repulsion Energy =            181.3283009354345552
    One-Electron Energy =                -694.9078008029692910
    Two-Electron Energy =                 266.5779303374739584
    DFT Exchange-Correlation Energy =       0.0000000000000000
    Empirical Dispersion Energy =           0.0000000000000000
    PCM Polarization Energy =               0.0000000000000000
    EFP Energy =                            0.0000000000000000
    Total Energy =                       -247.0015695300608058
    Molecular point group: c1
  Basis Set: 6-31G*
  Basis Set:

  -Total Gradient:
     Atom            X                  Y                   Z
    ------   -----------------  -----------------  -----------------
       1       -0.000007257883    -0.000020477198     0.000002160236
       2        0.000678337991    -0.000669200595     0.001187709247
       3       -0.000528477469     0.000437552082    -0.001180167501
       4        0.000104334473     0.000168616171     0.001459188045
       5       -0.000001372006    -0.000001765508     0.000000549563
       6        0.000021401252     0.000024470518     0.000017011493
       7        0.000008751245     0.000005091613     0.000006292503
       8        0.000009906747    -0.000031244614     0.000035629259
       9       -0.000273619308     0.000083157370    -0.001494887930
      10       -0.000006711727     0.000002193322    -0.000017250624
      11        0.000001895180    -0.000003993590    -0.000008251095
      12       -0.000007188497     0.000005600427    -0.000007983196

  **** Optimization is complete! (in 13 steps) ****
    Final optimized geometry and variables:
    Molecular point group: c1

    Geometry (in Angstrom), charge = 0, multiplicity = 1:

    H           -1.729551292100     0.153011331293     0.264896335687
    N           -0.863633617195    -0.336611351239     0.197134825505
    C           -0.922449210014    -1.686831004203    -0.319186974639
    C            0.200031752470     0.510401411300     0.095539347224
    H           -1.849980572543    -2.136729561797     0.008192124461
    H           -0.112534112325    -2.286521418381     0.074629836972
    H           -0.888250035040    -1.729340969978    -1.405070430242
    C            1.553063018563    -0.118711573533    -0.156829406662
    O            0.064742940934     1.695294665753     0.221171525977
    H            1.579589082392    -0.607818861180    -1.125453416797
    H            2.298007470067     0.662331905941    -0.134099134123
    H            1.784475593016    -0.862469008064     0.597966613763

  Mulliken Charges: (a.u.)
   Center  Symbol    Alpha    Beta     Spin     Total
       1     H     0.30775  0.30775  0.00000  0.38450
       2     N     3.88254  3.88254  0.00000 -0.76508
       3     C     3.14330  3.14330  0.00000 -0.28659
       4     C     2.63490  2.63490  0.00000  0.73020
       5     H     0.40659  0.40659  0.00000  0.18683
       6     H     0.40942  0.40942  0.00000  0.18116
       7     H     0.41604  0.41604  0.00000  0.16792
       8     C     3.29855  3.29855  0.00000 -0.59710
       9     O     4.29710  4.29710  0.00000 -0.59420
      10     H     0.40738  0.40738  0.00000  0.18524
      11     H     0.39112  0.39112  0.00000  0.21777
      12     H     0.40533  0.40533  0.00000  0.18935

   Total alpha = 20.00000, Total beta = 20.00000, Total charge =  0.00000
