  ==> Input File <==

--------------------------------------------------------------------------
set {
	reference rhf
	basis 6-31G*
}

set_num_threads( 4 )
memory 2 gb

molecule MOL {
0 1

H	 2.800025	 0.311483	 0.759848
C	 1.951159	 -0.223429	 0.317018
C	 0.692068	 0.589600	 0.160137
O	 2.064046	 -1.362851	 -0.000951
C	 -0.558097	 -0.297372	 0.091132
H	 0.791645	 1.202255	 -0.728243
H	 0.616171	 1.253469	 1.020572
C	 -1.850991	 0.512573	 -0.019058
H	 -0.476753	 -0.965681	 -0.762987
H	 -0.604799	 -0.930658	 0.975228
C	 -3.096943	 -0.368295	 -0.099594
H	 -1.800724	 1.150330	 -0.898172
H	 -1.931651	 1.177355	 0.838044
H	 -3.060452	 -1.020287	 -0.967456
H	 -3.996858	 0.233488	 -0.175704
H	 -3.191959	 -0.995686	 0.782074

	symmetry c1
}
set optking {
	frozen_dihedral = ("
		4 2 3 6
	")
}

ee = optimize('scf')
oeprop('DIPOLE', 'QUADRUPOLE', 'MULLIKEN_CHARGES')
f=open( 'psi4out.xyz', 'w' )
f.write( "16  " )
f.write( str(ee) + "\n" )
f.write( MOL.save_string_xyz() )
f.close()
--------------------------------------------------------------------------

    Molecular point group: c1
  Charge       = 0
  Multiplicity = 1
  Basis Set: 6-31G*
  Basis Set:
  @DF-RHF Final Energy:  -270.01997168107101
    Total Energy =                       -270.0199716810711834
    Molecular point group: c1
  Basis Set: 6-31G*
  Basis Set:
  Basis Set: 6-31G*
  Basis Set:
  @DF-RHF Final Energy:  -270.01980609818753
    Total Energy =                       -270.0198060981874733
  Basis Set: 6-31G*
  Basis Set:
  Basis Set: 6-31G*
  Basis Set:
  @DF-RHF Final Energy:  -270.01976813609645
    Total Energy =                       -270.0197681360965589
  Basis Set: 6-31G*
  Basis Set:
  Basis Set: 6-31G*
  Basis Set:
  @DF-RHF Final Energy:  -270.02062440258214
    Total Energy =                       -270.0206244025820297
  Basis Set: 6-31G*
  Basis Set:
  Basis Set: 6-31G*
  Basis Set:
  @DF-RHF Final Energy:  -270.02054336930735
    Total Energy =                       -270.0205433693073473
  Basis Set: 6-31G*
  Basis Set:
  Basis Set: 6-31G*
  Basis Set:
  @DF-RHF Final Energy:  -270.02063317616728
    Total Energy =                       -270.0206331761673368
  Basis Set: 6-31G*
  Basis Set:
  Charge       = 0
  Multiplicity = 1
  Basis Set: 6-31G*
  Basis Set:

    Orbital Energies (a.u.)
    -----------------------

    Doubly Occupied:

       1A    -20.563652     2A    -11.328521     3A    -11.237193
       4A    -11.223034     5A    -11.222422     6A    -11.212565
       7A     -1.403962     8A     -1.088817     9A     -1.014974
      10A     -0.907921    11A     -0.813890    12A     -0.772333
      13A     -0.676559    14A     -0.654278    15A     -0.628623
      16A     -0.598593    17A     -0.584372    18A     -0.536717
      19A     -0.527495    20A     -0.497764    21A     -0.482719
      22A     -0.478229    23A     -0.472195    24A     -0.410574

  @DF-RHF Final Energy:  -270.02063320439106

   => Energetics <=

    Nuclear Repulsion Energy =            231.7073585985895079
    One-Electron Energy =                -824.7811759839337356
    Two-Electron Energy =                 323.0531841809530533
    DFT Exchange-Correlation Energy =       0.0000000000000000
    Empirical Dispersion Energy =           0.0000000000000000
    PCM Polarization Energy =               0.0000000000000000
    EFP Energy =                            0.0000000000000000
    Total Energy =                       -270.0206332043911743
    Molecular point group: c1
  Basis Set: 6-31G*
  Basis Set:

  -Total Gradient:
     Atom            X                  Y                   Z
    ------   -----------------  -----------------  -----------------
       1       -0.000014749571     0.000013130176    -0.000000575993
       2       -0.000921236986    -0.001127031029     0.002373735713
       3        0.001150781384     0.001878937633     0.000374552128
       4        0.000487767456     0.000592227889    -0.001768598431
       5        0.000053025094     0.000030703682     0.000049294160
       6       -0.000725690140    -0.001329873180    -0.001008694862
       7       -0.000009342402    -0.000025076384     0.000043222058
       8       -0.000008464732    -0.000007086611    -0.000044604021
       9        0.000012510337     0.000004965762    -0.000036485019
      10       -0.000028631345    -0.000018493887    -0.000010109579
      11       -0.000011231022     0.000000292317     0.000046206080
      12       -0.000010319561    -0.000019894173    -0.000012883250
      13        0.000025192601     0.000005782329    -0.000018042829
      14        0.000003773951     0.000015975052    -0.000003466951
      15        0.000000595961    -0.000000861119     0.000015846759
      16       -0.000003981021    -0.000013698457     0.000000604037

  **** Optimization is complete! (in 7 steps) ****
    Final optimized geometry and variables:
    Molecular point group: c1

    Geometry (in Angstrom), charge = 0, multiplicity = 1:

    H            2.967393255888     0.544944719257     0.620994323099
    C            2.106107214074    -0.011116699129     0.233905973568
    C            0.819571245540     0.772541041936     0.139840880290
    O            2.234951656557    -1.140171486544    -0.114166221410
    C           -0.429809796034    -0.101512019398     0.042424657476
    H            0.906503426762     1.396959221085    -0.750221630257
    H            0.763780855021     1.454700126015     0.984956223190
    C           -1.712915325371     0.719027063441    -0.096207184984
    H           -0.326503798051    -0.772890116112    -0.803101770148
    H           -0.493665230029    -0.732793473289     0.924927770701
    C           -2.964868261716    -0.153219011603    -0.179438840925
    H           -1.649009744638     1.343378003526    -0.985119272401
    H           -1.803187465787     1.399280090263     0.748267015699
    H           -2.920791142333    -0.820224922275    -1.035394771404
    H           -3.859739586476     0.453275094130    -0.277331405102
    H           -3.075398027774    -0.765722371259     0.710711418147

  Mulliken Charges: (a.u.)
   Center  Symbol    Alpha    Beta     Spin     Total
       1     H     0.42710  0.42710  0.00000  0.14580
       2     C     2.83662  2.83662  0.00000  0.32676
       3     C     3.21264  3.21264  0.00000 -0.42528
       4     O     4.23740  4.23740  0.00000 -0.47480
       5     C     3.15011  3.15011  0.00000 -0.30022
       6     H     0.40429  0.40429  0.00000  0.19141
       7     H     0.41149  0.41149  0.00000  0.17703
       8     C     3.15346  3.15346  0.00000 -0.30692
       9     H     0.40690  0.40690  0.00000  0.18620
      10     H     0.41629  0.41629  0.00000  0.16742
      11     C     3.23962  3.23962  0.00000 -0.47923
      12     H     0.42271  0.42271  0.00000  0.15458
      13     H     0.42341  0.42341  0.00000  0.15319
      14     H     0.41931  0.41931  0.00000  0.16139
      15     H     0.41849  0.41849  0.00000  0.16303
      16     H     0.42017  0.42017  0.00000  0.15965

   Total alpha = 24.00000, Total beta = 24.00000, Total charge = -0.00000
