                              Psi4 1.0.54 Driver

  ==> Input File <==

--------------------------------------------------------------------------
set {
	reference rhf
	basis cc-pvtz
}

set_num_threads( 4 )
memory 2 gb

molecule MOL {
0 1

H	 2.217721	 0.957759	 -1.131466
O	 1.352858	 0.579601	 -1.183837
C	 1.050374	 0.054877	 0.000135
C	 -0.318151	 -0.570512	 0.000144
O	 1.796565	 0.096905	 0.916323
C	 -1.454884	 0.441630	 -0.000560
H	 -0.371613	 -1.223646	 -0.864985
H	 -0.371920	 -1.222758	 0.865929
C	 -2.822577	 -0.232186	 0.000063
H	 -1.359760	 1.084704	 -0.867077
H	 -1.359641	 1.085996	 0.864983
H	 -2.954352	 -0.858985	 -0.875745
H	 -3.615886	 0.505352	 0.000019
H	 -2.953878	 -0.858359	 0.876394

	symmetry c1
}
set optking {
	frozen_dihedral = ("
		2 3 4 7
	")
}

ee,wfn = optimize('scf', return_wfn=True)
oeprop( wfn, 'DIPOLE', 'QUADRUPOLE', 'MULLIKEN_CHARGES')
f=open( 'psi4out.xyz', 'w' )
f.write( "14  " )
f.write( str(ee) + "\n" )
f.write( MOL.save_string_xyz() )
f.close()
--------------------------------------------------------------------------

    Molecular point group: c1
  Charge       = 0
  Multiplicity = 1
  Basis Set: CC-PVTZ
  Basis Set:
  @DF-RHF Final Energy:  -305.99926587973442
    Total Energy =                       -305.9992658797344802
    Molecular point group: c1
  Basis Set: CC-PVTZ
  Basis Set:
  Basis Set: CC-PVTZ
  Basis Set:
  @DF-RHF Final Energy:  -305.99966925136619
    Total Energy =                       -305.9996692513661856
  Basis Set: CC-PVTZ
  Basis Set:
  Basis Set: CC-PVTZ
  Basis Set:
  @DF-RHF Final Energy:  -305.99892325450037
    Total Energy =                       -305.9989232545003119
  Basis Set: CC-PVTZ
  Basis Set:
  Basis Set: CC-PVTZ
  Basis Set:
  @DF-RHF Final Energy:  -305.99973124082931
    Total Energy =                       -305.9997312408293624
  Basis Set: CC-PVTZ
  Basis Set:
  Basis Set: CC-PVTZ
  Basis Set:
  @DF-RHF Final Energy:  -305.99975121661055
    Total Energy =                       -305.9997512166106048
  Basis Set: CC-PVTZ
  Basis Set:
  Charge       = 0
  Multiplicity = 1
  Basis Set: CC-PVTZ
  Basis Set:

    Orbital Energies (a.u.)
    -----------------------

    Doubly Occupied:

       1A    -20.604885     2A    -20.539471     3A    -11.372685
       4A    -11.238256     5A    -11.233793     6A    -11.219407
       7A     -1.477426     8A     -1.368267     9A     -1.087859
      10A     -0.980915    11A     -0.851678    12A     -0.813557
      13A     -0.705900    14A     -0.688347    15A     -0.646542
      16A     -0.636298    17A     -0.596320    18A     -0.567528
      19A     -0.554227    20A     -0.520485    21A     -0.501335
      22A     -0.489457    23A     -0.477070    24A     -0.441017

  @DF-RHF Final Energy:  -305.99975190996668

   => Energetics <=

    Nuclear Repulsion Energy =            240.9341618926619901
    One-Electron Energy =                -894.6423767857712619
    Two-Electron Energy =                 347.7084629831426241
    DFT Exchange-Correlation Energy =       0.0000000000000000
    Empirical Dispersion Energy =           0.0000000000000000
    PCM Polarization Energy =               0.0000000000000000
    EFP Energy =                            0.0000000000000000
    Total Energy =                       -305.9997519099666192
    Molecular point group: c1
  Basis Set: CC-PVTZ
  Basis Set:

  -Total Gradient:
     Atom            X                  Y                   Z
    ------   -----------------  -----------------  -----------------
       1       -0.000004852251    -0.000009365033     0.000023115290
       2       -0.000105987195     0.000039784571    -0.000007941213
       3        0.000142741845    -0.000053382530    -0.000104343288
       4       -0.000041042077     0.000150364699    -0.000009449713
       5       -0.000046652406    -0.000041611747     0.000078295318
       6        0.000041928344    -0.000043739472    -0.000007173965
       7        0.000030645942    -0.000070023814     0.000029840583
       8        0.000010790217     0.000007880250    -0.000003869303
       9       -0.000018674315    -0.000000473037     0.000003033772
      10       -0.000005165275     0.000011601014    -0.000009806686
      11       -0.000008291522     0.000007520668     0.000006246630
      12        0.000004532539     0.000000753616    -0.000000887296
      13       -0.000001001661     0.000003658116     0.000000947540
      14        0.000001027810    -0.000002967299     0.000001992327

  **** Optimization is complete! (in 6 steps) ****
    Final optimized geometry and variables:
    Molecular point group: c1

    Geometry (in Angstrom), charge = 0, multiplicity = 1:

    H            2.258019003871     0.888174786319    -1.023473987051
    O            1.400853412799     0.496511268671    -1.098857787843
    C            1.079905852176    -0.041787045561     0.074456070807
    C           -0.287248002458    -0.667902268846     0.064990626122
    O            1.808944968500    -0.001681047284     1.004988413034
    C           -1.402920747181     0.381982475262     0.015001304204
    H           -0.358942629541    -1.319789827219    -0.798072337838
    H           -0.370927845546    -1.268078371336     0.959370445400
    C           -2.787514674900    -0.255043199425     0.034485336084
    H           -1.288766567777     0.984856018610    -0.877828003348
    H           -1.298500454389     1.050932498574     0.862961015449
    H           -2.929466711753    -0.908561987866    -0.819454436000
    H           -3.561123169010     0.502678414755     0.004258662750
    H           -2.935365770939    -0.844821360016     0.932416859295

  Mulliken Charges: (a.u.)
   Center  Symbol    Alpha    Beta     Spin     Total
       1     H     0.38046  0.38046  0.00000  0.23907
       2     O     4.16417  4.16417  0.00000 -0.32834
       3     C     2.80597  2.80597  0.00000  0.38807
       4     C     3.08690  3.08690  0.00000 -0.17380
       5     O     4.19503  4.19503  0.00000 -0.39007
       6     C     3.09421  3.09421  0.00000 -0.18841
       7     H     0.44457  0.44457  0.00000  0.11085
       8     H     0.43689  0.43689  0.00000  0.12621
       9     C     3.14972  3.14972  0.00000 -0.29944
      10     H     0.44355  0.44355  0.00000  0.11290
      11     H     0.44634  0.44634  0.00000  0.10732
      12     H     0.45383  0.45383  0.00000  0.09234
      13     H     0.44568  0.44568  0.00000  0.10864
      14     H     0.45268  0.45268  0.00000  0.09464

   Total alpha = 24.00000, Total beta = 24.00000, Total charge = -0.00000

*** Psi4 exiting successfully. Buy a developer a beer!
