  ==> Input File <==

--------------------------------------------------------------------------
set {
	reference rhf
	basis cc-pvtz
}

set_num_threads( 4 )
memory 2 gb

molecule MOL {
0 1

H	 1.485046	 0.343060	 -2.024469
O	 0.654623	 0.205389	 -1.608429
C	 0.700177	 0.619554	 -0.266242
C	 -0.713111	 0.588314	 0.266177
H	 1.094278	 1.628401	 -0.189843
H	 1.327037	 -0.044005	 0.323769
O	 -1.421673	 -0.521378	 -0.196983
H	 -1.244794	 1.469161	 -0.069059
H	 -0.685100	 0.604721	 1.352683
H	 -0.933408	 -1.297830	 0.014544

	symmetry c1
}
set optking {
	frozen_dihedral = ("
		5 3 4 7
	")
}

ee = optimize('scf')
oeprop('DIPOLE', 'QUADRUPOLE', 'MULLIKEN_CHARGES')
f=open( 'psi4out.xyz', 'w' )
f.write( "10  " )
f.write( str(ee) + "\n" )
f.write( MOL.save_string_xyz() )
f.close()
--------------------------------------------------------------------------

    Molecular point group: c1
  Charge       = 0
  Multiplicity = 1
  Basis Set: CC-PVTZ
  Basis Set:
  @DF-RHF Final Energy:  -229.01950388169908
    Total Energy =                       -229.0195038816990518
    Molecular point group: c1
  Basis Set: CC-PVTZ
  Basis Set:
  Basis Set: CC-PVTZ
  Basis Set:
  @DF-RHF Final Energy:  -229.02039941860923
    Total Energy =                       -229.0203994186091450
  Basis Set: CC-PVTZ
  Basis Set:
  Basis Set: CC-PVTZ
  Basis Set:
  @DF-RHF Final Energy:  -229.02068086947250
    Total Energy =                       -229.0206808694724998
  Basis Set: CC-PVTZ
  Basis Set:
  Basis Set: CC-PVTZ
  Basis Set:
  @DF-RHF Final Energy:  -229.02075584994154
    Total Energy =                       -229.0207558499415939
  Basis Set: CC-PVTZ
  Basis Set:
  @DF-RHF Final Energy:  -229.02100310933517
    Total Energy =                       -229.0210031093350267
  @DF-RHF Final Energy:  -229.02293580195919
    Total Energy =                       -229.0229358019590791
  @DF-RHF Final Energy:  -229.01848760630125
    Total Energy =                       -229.0184876063014201
  @DF-RHF Final Energy:  -229.02511415202059
    Total Energy =                       -229.0251141520205920
  @DF-RHF Final Energy:  -229.02541974943819
    Total Energy =                       -229.0254197494380719
  @DF-RHF Final Energy:  -229.02567704020939
    Total Energy =                       -229.0256770402093878
  @DF-RHF Final Energy:  -229.02576949468661
    Total Energy =                       -229.0257694946865854
  @DF-RHF Final Energy:  -229.02585293879488
    Total Energy =                       -229.0258529387947988
  @DF-RHF Final Energy:  -229.02592000588476
    Total Energy =                       -229.0259200058847000
  Basis Set: CC-PVTZ
  Basis Set:
  @DF-RHF Final Energy:  -229.02605523017189
    Total Energy =                       -229.0260552301717780
  Basis Set: CC-PVTZ
  Basis Set:
  Basis Set: CC-PVTZ
  Basis Set:
  @DF-RHF Final Energy:  -229.02614877429860
    Total Energy =                       -229.0261487742985764
  Basis Set: CC-PVTZ
  Basis Set:
  Basis Set: CC-PVTZ
  Basis Set:
  @DF-RHF Final Energy:  -229.02616139615748
    Total Energy =                       -229.0261613961573062
  Basis Set: CC-PVTZ
  Basis Set:
  Charge       = 0
  Multiplicity = 1
  Basis Set: CC-PVTZ
  Basis Set:

    Orbital Energies (a.u.)
    -----------------------

    Doubly Occupied:

       1A    -20.563262     2A    -20.537950     3A    -11.277172
       4A    -11.267077     5A     -1.388435     6A     -1.352224
       7A     -1.001970     8A     -0.846057     9A     -0.729120
      10A     -0.682362    11A     -0.656729    12A     -0.600721
      13A     -0.580139    14A     -0.537372    15A     -0.490472
      16A     -0.459828    17A     -0.430576

  @DF-RHF Final Energy:  -229.02616200198321

   => Energetics <=

    Nuclear Repulsion Energy =            135.1832416208448535
    One-Electron Energy =                -581.6158706893343151
    Two-Electron Energy =                 217.4064670665062522
    DFT Exchange-Correlation Energy =       0.0000000000000000
    Empirical Dispersion Energy =           0.0000000000000000
    PCM Polarization Energy =               0.0000000000000000
    EFP Energy =                            0.0000000000000000
    Total Energy =                       -229.0261620019832094
    Molecular point group: c1
  Basis Set: CC-PVTZ
  Basis Set:

  -Total Gradient:
     Atom            X                  Y                   Z
    ------   -----------------  -----------------  -----------------
       1       -0.000012871997    -0.000011940715    -0.000008262652
       2        0.000031527477     0.000080181493     0.000078370914
       3        0.002579806098     0.000447788512     0.005978592243
       4        0.002151443525    -0.002463299290     0.004669967556
       5       -0.002677967176     0.000068265156    -0.006194831213
       6        0.000031236809     0.000008541969    -0.000010455406
       7       -0.002080588002     0.001860499829    -0.004456761386
       8       -0.000012181156     0.000025098454     0.000007296336
       9       -0.000019563004    -0.000027985162    -0.000009696287
      10        0.000009157426     0.000012849755    -0.000054220104

  **** Optimization is complete! (in 17 steps) ****
    Final optimized geometry and variables:
    Molecular point group: c1

    Geometry (in Angstrom), charge = 0, multiplicity = 1:

    H            1.648206649678    -0.078669933839    -1.552740008838
    O            0.793741432259    -0.049414481672    -1.165083695829
    C            0.851657437657     0.529508271955     0.117568450407
    C           -0.542760035741     0.427375997506     0.719407078302
    H            1.117481437722     1.577048751287     0.014648482132
    H            1.582832443869     0.017155632690     0.733448260385
    O           -1.135087725487    -0.810453228620     0.481651494151
    H           -1.160867686756     1.220383838838     0.304505859840
    H           -0.491640866375     0.574985064079     1.789952978213
    H           -0.956587041158    -1.057635866686    -0.408974809353

  Mulliken Charges: (a.u.)
   Center  Symbol    Alpha    Beta     Spin     Total
       1     H     0.39153  0.39153  0.00000  0.21694
       2     O     4.20728  4.20728  0.00000 -0.41455
       3     C     2.97164  2.97164  0.00000  0.05672
       4     C     2.95954  2.95954  0.00000  0.08092
       5     H     0.47082  0.47082  0.00000  0.05837
       6     H     0.47024  0.47024  0.00000  0.05952
       7     O     4.20991  4.20991  0.00000 -0.41982
       8     H     0.47529  0.47529  0.00000  0.04942
       9     H     0.46121  0.46121  0.00000  0.07758
      10     H     0.38254  0.38254  0.00000  0.23492

   Total alpha = 17.00000, Total beta = 17.00000, Total charge =  0.00000
