  ==> Input File <==

--------------------------------------------------------------------------
set {
	reference rhf
	basis cc-pvtz
}

set_num_threads( 4 )
memory 2 gb

molecule MOL {
0 1

H	 2.454355	 -1.419018	 -1.025102
N	 1.475375	 -1.233990	 -1.041542
C	 1.221403	 0.188933	 -0.938440
C	 0.796911	 -1.973319	 0.003888
H	 1.723190	 0.698163	 -1.752226
H	 1.590934	 0.608833	 -0.001024
C	 -0.272670	 0.441707	 -1.027473
H	 0.991102	 -3.030907	 -0.127065
H	 1.139623	 -1.690031	 1.000841
C	 -0.696606	 -1.717712	 -0.086380
H	 -0.620930	 0.165821	 -2.027069
H	 -0.469247	 1.498592	 -0.891567
N	 -0.976577	 -0.298712	 -0.000000
H	 -1.199715	 -2.222222	 0.729996
H	 -1.074071	 -2.142363	 -1.021143
C	 -2.391156	 -0.021003	 -0.000000
H	 -2.853954	 -0.458728	 -0.875714
H	 -2.853954	 -0.458728	 0.875714
H	 -2.614037	 1.049773	 -0.000000

	symmetry c1
}
set optking {
	frozen_dihedral = ("
		7 13 16 19
	")
}

ee = optimize('scf')
oeprop('DIPOLE', 'QUADRUPOLE', 'MULLIKEN_CHARGES')
f=open( 'psi4out.xyz', 'w' )
f.write( "19  " )
f.write( str(ee) + "\n" )
f.write( MOL.save_string_xyz() )
f.close()
--------------------------------------------------------------------------

    Molecular point group: c1
  Charge       = 0
  Multiplicity = 1
  Basis Set: CC-PVTZ
  Basis Set:
  @DF-RHF Final Energy:  -305.30815866095941
    Total Energy =                       -305.3081586609594069
    Molecular point group: c1
  Basis Set: CC-PVTZ
  Basis Set:
  Basis Set: CC-PVTZ
  Basis Set:
  @DF-RHF Final Energy:  -305.30881007843186
    Total Energy =                       -305.3088100784318044
  Basis Set: CC-PVTZ
  Basis Set:
  Basis Set: CC-PVTZ
  Basis Set:
  @DF-RHF Final Energy:  -305.30888986830706
    Total Energy =                       -305.3088898683070056
  Basis Set: CC-PVTZ
  Basis Set:
  Charge       = 0
  Multiplicity = 1
  Basis Set: CC-PVTZ
  Basis Set:

    Orbital Energies (a.u.)
    -----------------------

    Doubly Occupied:

       1A    -15.536057     2A    -15.531288     3A    -11.237306
       4A    -11.237274     5A    -11.235973     6A    -11.235849
       7A    -11.233270     8A     -1.249356     9A     -1.187746
      10A     -1.024205    11A     -0.965862    12A     -0.862073
      13A     -0.858234    14A     -0.757237    15A     -0.692825
      16A     -0.635329    17A     -0.627818    18A     -0.608932
      19A     -0.605703    20A     -0.581732    21A     -0.544107
      22A     -0.528713    23A     -0.512795    24A     -0.490526
      25A     -0.468464    26A     -0.458527    27A     -0.366127
      28A     -0.346757

  @DF-RHF Final Energy:  -305.30889107956716

   => Energetics <=

    Nuclear Repulsion Energy =            340.2987423228345278
    One-Electron Energy =               -1087.9750975281720002
    Two-Electron Energy =                 442.3674641257698568
    DFT Exchange-Correlation Energy =       0.0000000000000000
    Empirical Dispersion Energy =           0.0000000000000000
    PCM Polarization Energy =               0.0000000000000000
    EFP Energy =                            0.0000000000000000
    Total Energy =                       -305.3088910795676156
    Molecular point group: c1
  Basis Set: CC-PVTZ
  Basis Set:

  -Total Gradient:
     Atom            X                  Y                   Z
    ------   -----------------  -----------------  -----------------
       1        0.000015200324     0.000014741165    -0.000009994095
       2        0.000027561546    -0.000012170713    -0.000023788667
       3       -0.000008675548     0.000010587479    -0.000054803203
       4       -0.000033578926     0.000123625770     0.000042174245
       5        0.000028645398    -0.000002945218    -0.000007502267
       6       -0.000023565039    -0.000009890277    -0.000009605921
       7        0.000212236539     0.000970997593     0.000781425196
       8       -0.000048193735     0.000020444142    -0.000000397813
       9        0.000023136407    -0.000010016190     0.000023620297
      10       -0.000090387126    -0.000129252927    -0.000044471160
      11        0.000025634440    -0.000005327497     0.000029843849
      12        0.000011249833     0.000010421811    -0.000011222439
      13       -0.000211518481    -0.001278711111    -0.001449449976
      14       -0.000014558768    -0.000000621958     0.000010925189
      15       -0.000005118203     0.000021740092     0.000002862807
      16       -0.000007741071     0.000293929979     0.002321868166
      17        0.000034015857    -0.000006960485    -0.000003224233
      18        0.000025045564    -0.000006056818     0.000004926897
      19        0.000040610984    -0.000004534837    -0.001603186875

  **** Optimization is complete! (in 4 steps) ****
    Final optimized geometry and variables:
    Molecular point group: c1

    Geometry (in Angstrom), charge = 0, multiplicity = 1:

    H            2.586445107157    -0.755188020347    -0.576531097505
    N            1.607010970935    -0.572277179170    -0.594047978649
    C            1.349974919826     0.850166878658    -0.493313732952
    C            0.928719793093    -1.311806438360     0.451259038976
    H            1.854820152411     1.360089410929    -1.304888825071
    H            1.714490002603     1.270945655520     0.445783898095
    C           -0.144269846820     1.101454157298    -0.588431404256
    H            1.126839320408    -2.369093260099     0.323412904345
    H            1.267894807865    -1.024999350941     1.448530394863
    C           -0.565399071815    -1.061577865262     0.355709546301
    H           -0.486199619147     0.830159822803    -1.591723637053
    H           -0.342255260221     2.157369461257    -0.448349964435
    N           -0.850215883122     0.355774152707     0.433024753102
    H           -1.070232819491    -1.563315038919     1.173114867758
    H           -0.939080892910    -1.492222420050    -0.577933903584
    C           -2.265317284361     0.629214655689     0.442720917200
    H           -2.780253911330     0.223275461086    -0.433122204540
    H           -2.722395385045     0.202647400503     1.327073280416
    H           -2.434624047478     1.698411624710     0.452262598166

  Mulliken Charges: (a.u.)
   Center  Symbol    Alpha    Beta     Spin     Total
       1     H     0.43994  0.43994  0.00000  0.12013
       2     N     3.64286  3.64286  0.00000 -0.28573
       3     C     3.04108  3.04108  0.00000 -0.08216
       4     C     3.04059  3.04059  0.00000 -0.08117
       5     H     0.45245  0.45245  0.00000  0.09510
       6     H     0.46549  0.46549  0.00000  0.06902
       7     C     3.03349  3.03349  0.00000 -0.06697
       8     H     0.45244  0.45244  0.00000  0.09511
       9     H     0.46543  0.46543  0.00000  0.06915
      10     C     3.03453  3.03453  0.00000 -0.06906
      11     H     0.46920  0.46920  0.00000  0.06159
      12     H     0.45407  0.45407  0.00000  0.09187
      13     N     3.61407  3.61407  0.00000 -0.22815
      14     H     0.45434  0.45434  0.00000  0.09133
      15     H     0.46814  0.46814  0.00000  0.06372
      16     C     3.09667  3.09667  0.00000 -0.19334
      17     H     0.47043  0.47043  0.00000  0.05913
      18     H     0.45169  0.45169  0.00000  0.09663
      19     H     0.45310  0.45310  0.00000  0.09381

   Total alpha = 28.00000, Total beta = 28.00000, Total charge =  0.00000
