                              Psi4 1.0.54 Driver

  ==> Input File <==

--------------------------------------------------------------------------
set {
	reference rhf
	basis cc-pvtz
}

set_num_threads( 4 )
memory 2 gb

molecule MOL {
0 1

H	 1.736015	 -0.537015	 -2.501316
C	 1.008245	 -0.730361	 -1.723982
C	 1.322304	 0.099773	 -0.484271
H	 0.027924	 -0.491319	 -2.120464
H	 1.031728	 -1.791695	 -1.504076
C	 0.308557	 -0.162619	 0.622645
H	 1.309899	 1.154650	 -0.728837
H	 2.312781	 -0.138787	 -0.116870
N	 -1.069352	 -0.004081	 0.085342
H	 0.371632	 -1.172932	 0.991288
H	 0.400391	 0.548875	 1.426218
O	 -1.584901	 -0.965470	 -0.377818
O	 -1.548033	 1.079343	 0.130056

	symmetry c1
}
set optking {
	frozen_dihedral = ("
		7 3 6 9
	")
}

ee,wfn = optimize('scf', return_wfn=True)
oeprop( wfn, 'DIPOLE', 'QUADRUPOLE', 'MULLIKEN_CHARGES')
f=open( 'psi4out.xyz', 'w' )
f.write( "13  " )
f.write( str(ee) + "\n" )
f.write( MOL.save_string_xyz() )
f.close()
--------------------------------------------------------------------------

    Molecular point group: c1
  Charge       = 0
  Multiplicity = 1
  Basis Set: CC-PVTZ
  Basis Set:
  @DF-RHF Final Energy:  -321.85757960115996
    Total Energy =                       -321.8575796011600687
    Molecular point group: c1
  Basis Set: CC-PVTZ
  Basis Set:
  Basis Set: CC-PVTZ
  Basis Set:
  @DF-RHF Final Energy:  -321.85872671573804
    Total Energy =                       -321.8587267157380438
  Basis Set: CC-PVTZ
  Basis Set:
  Basis Set: CC-PVTZ
  Basis Set:
  @DF-RHF Final Energy:  -321.85987452743348
    Total Energy =                       -321.8598745274335897
  Basis Set: CC-PVTZ
  Basis Set:
  Basis Set: CC-PVTZ
  Basis Set:
  @DF-RHF Final Energy:  -321.86022525773831
    Total Energy =                       -321.8602252577380796
  Basis Set: CC-PVTZ
  Basis Set:
  @DF-RHF Final Energy:  -321.86044855609907
    Total Energy =                       -321.8604485560991293
  @DF-RHF Final Energy:  -321.86078528181781
    Total Energy =                       -321.8607852818179254
  @DF-RHF Final Energy:  -321.86077654434337
    Total Energy =                       -321.8607765443433664
  Basis Set: CC-PVTZ
  Basis Set:
  @DF-RHF Final Energy:  -321.86094727326764
    Total Energy =                       -321.8609472732675840
  Basis Set: CC-PVTZ
  Basis Set:
  Basis Set: CC-PVTZ
  Basis Set:
  @DF-RHF Final Energy:  -321.86095538833194
    Total Energy =                       -321.8609553883317744
  Basis Set: CC-PVTZ
  Basis Set:
  Basis Set: CC-PVTZ
  Basis Set:
  @DF-RHF Final Energy:  -321.86097336349820
    Total Energy =                       -321.8609733634982035
  Basis Set: CC-PVTZ
  Basis Set:
  Charge       = 0
  Multiplicity = 1
  Basis Set: CC-PVTZ
  Basis Set:

    Orbital Energies (a.u.)
    -----------------------

    Doubly Occupied:

       1A    -20.593252     2A    -20.588887     3A    -15.836972
       4A    -11.297560     5A    -11.252562     6A    -11.229174
       7A     -1.636565     8A     -1.420812     9A     -1.132578
      10A     -1.021357    11A     -0.895581    12A     -0.823044
      13A     -0.759279    14A     -0.741597    15A     -0.729406
      16A     -0.655396    17A     -0.616202    18A     -0.593725
      19A     -0.533754    20A     -0.519186    21A     -0.511689
      22A     -0.486889    23A     -0.475061    24A     -0.454468

  @DF-RHF Final Energy:  -321.86097389295878

   => Energetics <=

    Nuclear Repulsion Energy =            253.9432514124149520
    One-Electron Energy =                -941.9984555527825023
    Two-Electron Energy =                 366.1942302474085977
    DFT Exchange-Correlation Energy =       0.0000000000000000
    Empirical Dispersion Energy =           0.0000000000000000
    PCM Polarization Energy =               0.0000000000000000
    EFP Energy =                            0.0000000000000000
    Total Energy =                       -321.8609738929589525
    Molecular point group: c1
  Basis Set: CC-PVTZ
  Basis Set:

  -Total Gradient:
     Atom            X                  Y                   Z
    ------   -----------------  -----------------  -----------------
       1       -0.000000823370     0.000001072173     0.000007082868
       2       -0.000031850632    -0.000004628935     0.000012578689
       3       -0.002075799597    -0.000879496777    -0.001912891298
       4        0.000000128680    -0.000001621558    -0.000001885341
       5        0.000000685981     0.000011000239     0.000004290754
       6        0.000487194937     0.002173945974     0.000952785102
       7        0.001655609858     0.000278485782     0.001411473451
       8       -0.000000156233    -0.000000354465     0.000011048296
       9       -0.000129130708    -0.001739179206    -0.000475799010
      10       -0.000016536577    -0.000018281951     0.000003571222
      11       -0.000013871427     0.000000580573    -0.000009586514
      12        0.000094687246     0.000032656439     0.000018332295
      13        0.000029861845     0.000145821711    -0.000021000514

  **** Optimization is complete! (in 11 steps) ****
    Final optimized geometry and variables:
    Molecular point group: c1

    Geometry (in Angstrom), charge = 0, multiplicity = 1:

    H            2.035995229710    -0.335093020824    -2.346203888949
    C            1.297601823469    -0.563092346189    -1.588268651345
    C            1.589849017822     0.227646693154    -0.318092383204
    H            0.323925249732    -0.318922538634    -1.994560119866
    H            1.325773180973    -1.630833370647    -1.403330962421
    C            0.656740892113    -0.086775966805     0.844137119847
    H            1.571551674629     1.291772932731    -0.510826606959
    H            2.589532159479    -0.003419612206     0.034683947080
    N           -0.769914530309     0.094442964100     0.452834461531
    H            0.738951312742    -1.109344431139     1.170200705575
    H            0.817334230952     0.587424192864     1.670888444171
    O           -1.469735232766    -0.860500080736     0.464381631583
    O           -1.107694778221     1.190258960267     0.149013510540

  Mulliken Charges: (a.u.)
   Center  Symbol    Alpha    Beta     Spin     Total
       1     H     0.44523  0.44523  0.00000  0.10955
       2     C     3.14595  3.14595  0.00000 -0.29190
       3     C     3.09776  3.09776  0.00000 -0.19551
       4     H     0.44426  0.44426  0.00000  0.11148
       5     H     0.45091  0.45091  0.00000  0.09817
       6     C     3.04856  3.04856  0.00000 -0.09712
       7     H     0.43848  0.43848  0.00000  0.12304
       8     H     0.44571  0.44571  0.00000  0.10857
       9     N     3.28061  3.28061  0.00000  0.43878
      10     H     0.43150  0.43150  0.00000  0.13700
      11     H     0.42827  0.42827  0.00000  0.14347
      12     O     4.16843  4.16843  0.00000 -0.33687
      13     O     4.17433  4.17433  0.00000 -0.34865

   Total alpha = 24.00000, Total beta = 24.00000, Total charge = -0.00000

*** Psi4 exiting successfully. Buy a developer a beer!
