  ==> Input File <==

--------------------------------------------------------------------------
set {
	reference rhf
	basis 6-31G*
}

set_num_threads( 4 )
memory 2 gb

molecule MOL {
0 1

O	 -2.821601	 1.309235	 -0.001213
C	 -2.668563	 0.129746	 -0.000350
C	 -3.801572	 -0.864014	 -0.000442
O	 -1.481751	 -0.454642	 0.000584
H	 -4.417280	 -0.689587	 -0.874708
H	 -3.443784	 -1.883046	 -0.000565
H	 -4.417179	 -0.689832	 0.873954
C	 -0.334255	 0.388708	 0.000906
C	 0.891947	 -0.504646	 0.000751
H	 -0.365390	 1.025305	 -0.873475
H	 -0.365484	 1.024911	 0.875569
C	 0.703909	 -1.740889	 0.882122
H	 1.746223	 0.071579	 0.345160
H	 1.107369	 -0.805116	 -1.020901
C	 1.930472	 -2.655045	 0.895961
H	 0.477559	 -1.430475	 1.900697
H	 -0.159764	 -2.306218	 0.536357
C	 1.743101	 -3.889107	 1.777351
H	 2.794400	 -2.091796	 1.241582
H	 2.156702	 -2.968050	 -0.120856
H	 1.548565	 -3.608702	 2.808634
H	 2.628562	 -4.516868	 1.766885
H	 0.906317	 -4.491705	 1.435770

	symmetry c1
}
set optking {
	frozen_dihedral = ("
		13 9 8 10
	")
}

ee = optimize('scf')
oeprop('DIPOLE', 'QUADRUPOLE', 'MULLIKEN_CHARGES')
f=open( 'psi4out.xyz', 'w' )
f.write( "23  " )
f.write( str(ee) + "\n" )
f.write( MOL.save_string_xyz() )
f.close()
--------------------------------------------------------------------------

    Molecular point group: c1
  Charge       = 0
  Multiplicity = 1
  Basis Set: 6-31G*
  Basis Set:
  @DF-RHF Final Energy:  -422.97544476504868
    Total Energy =                       -422.9754447650489055
    Molecular point group: c1
  Basis Set: 6-31G*
  Basis Set:
  Basis Set: 6-31G*
  Basis Set:
  @DF-RHF Final Energy:  -422.97611342280527
    Total Energy =                       -422.9761134228058381
  Basis Set: 6-31G*
  Basis Set:
  Basis Set: 6-31G*
  Basis Set:
  @DF-RHF Final Energy:  -422.97681875572022
    Total Energy =                       -422.9768187557201600
  Basis Set: 6-31G*
  Basis Set:
  Basis Set: 6-31G*
  Basis Set:
  @DF-RHF Final Energy:  -422.97663123804892
    Total Energy =                       -422.9766312380493218
  Basis Set: 6-31G*
  Basis Set:
  Basis Set: 6-31G*
  Basis Set:
  @DF-RHF Final Energy:  -422.97689290014409
    Total Energy =                       -422.9768929001438664
  Basis Set: 6-31G*
  Basis Set:
  Basis Set: 6-31G*
  Basis Set:
  @DF-RHF Final Energy:  -422.97689528586426
    Total Energy =                       -422.9768952858640887
  Basis Set: 6-31G*
  Basis Set:
  Basis Set: 6-31G*
  Basis Set:
  @DF-RHF Final Energy:  -422.97689711659990
    Total Energy =                       -422.9768971165998437
  Basis Set: 6-31G*
  Basis Set:
  Charge       = 0
  Multiplicity = 1
  Basis Set: 6-31G*
  Basis Set:

    Orbital Energies (a.u.)
    -----------------------

    Doubly Occupied:

       1A    -20.602642     2A    -20.540718     3A    -11.374331
       4A    -11.282992     5A    -11.232783     6A    -11.226073
       7A    -11.218659     8A    -11.217046     9A    -11.211007
      10A     -1.467815    11A     -1.360645    12A     -1.090550
      13A     -1.040570    14A     -1.002171    15A     -0.930598
      16A     -0.842913    17A     -0.804591    18A     -0.767298
      19A     -0.688767    20A     -0.686968    21A     -0.665781
      22A     -0.643682    23A     -0.606830    24A     -0.587061
      25A     -0.578775    26A     -0.569394    27A     -0.559340
      28A     -0.529915    29A     -0.526702    30A     -0.512801
      31A     -0.492776    32A     -0.472851    33A     -0.467100
      34A     -0.458114    35A     -0.448041    36A     -0.437132

  @DF-RHF Final Energy:  -422.97689748588107

   => Energetics <=

    Nuclear Repulsion Energy =            459.9820287109495212
    One-Electron Energy =               -1487.6269914149293072
    Two-Electron Energy =                 604.6680652180991729
    DFT Exchange-Correlation Energy =       0.0000000000000000
    Empirical Dispersion Energy =           0.0000000000000000
    PCM Polarization Energy =               0.0000000000000000
    EFP Energy =                            0.0000000000000000
    Total Energy =                       -422.9768974858804995
    Molecular point group: c1
  Basis Set: 6-31G*
  Basis Set:

  -Total Gradient:
     Atom            X                  Y                   Z
    ------   -----------------  -----------------  -----------------
       1        0.000005408866    -0.000013443183    -0.000001239828
       2       -0.000021231631     0.000020939402     0.000013923148
       3        0.000002776574    -0.000001921572     0.000006031406
       4        0.000024639798     0.000007753450    -0.000006046193
       5       -0.000000690150    -0.000004828054    -0.000004758765
       6        0.000000133901     0.000000906950    -0.000001114836
       7       -0.000000525981     0.000004771392    -0.000004648839
       8        0.003699692692     0.004560305598     0.004713234558
       9        0.000478880236     0.000937644649    -0.007077622117
      10       -0.003137741411    -0.003914000335    -0.002880309665
      11        0.000003064994     0.000005759731    -0.000003741720
      12       -0.000015115117    -0.000004593360    -0.000023754497
      13       -0.001040312145    -0.001603008021     0.005262974324
      14       -0.000004231904     0.000001091456    -0.000000097784
      15        0.000001325883     0.000000592626     0.000002476853
      16        0.000002043797     0.000007425405     0.000000395344
      17        0.000002276011    -0.000009493513    -0.000001698971
      18        0.000001342231     0.000003931231     0.000005456257
      19        0.000000313482    -0.000002281418     0.000000628790
      20       -0.000002278933     0.000002521674     0.000000228794
      21        0.000001351292    -0.000002335026     0.000001859688
      22       -0.000000604208    -0.000000421645    -0.000001577872
      23       -0.000000518276     0.000002682553    -0.000000598076

  **** Optimization is complete! (in 8 steps) ****
    Final optimized geometry and variables:
    Molecular point group: c1

    Geometry (in Angstrom), charge = 0, multiplicity = 1:

    O           -2.132490864200     2.288916371002    -0.348702268353
    C           -2.036770403964     1.104464518180    -0.402614090930
    C           -3.217802897616     0.169469130470    -0.454075500882
    O           -0.880509766640     0.463111020874    -0.423691817288
    H           -3.819911545354     0.416663554877    -1.320213218352
    H           -2.911548333298    -0.865106756285    -0.502898598963
    H           -3.828185017593     0.331398912557     0.426321356634
    C            0.309089245585     1.252327545237    -0.380063656960
    C            1.513113318179     0.319994199783    -0.424191111604
    H            0.287493544372     1.903514587388    -1.242742493018
    H            0.294737595952     1.851833709814     0.519128876714
    C            1.390096245170    -0.909528743079     0.482186864226
    H            2.369980451462     0.894958771161    -0.080077629249
    H            1.706978384249     0.008209088201    -1.445800636371
    C            2.675797918545    -1.737744384147     0.521513649867
    H            1.137397899366    -0.588768601009     1.491600548632
    H            0.568722988605    -1.531870689519     0.144518589956
    C            2.557750816889    -2.975302801128     1.410334675970
    H            3.497325604047    -1.117835259762     0.874563915088
    H            2.938022021360    -2.044185370608    -0.489113598816
    H            2.328673685811    -2.700752851231     2.436153283614
    H            3.482896834146    -3.543181676044     1.418820744516
    H            1.767966687426    -3.634376248191     1.061270018970

  Mulliken Charges: (a.u.)
   Center  Symbol    Alpha    Beta     Spin     Total
       1     O     4.28428  4.28428  0.00000 -0.56857
       2     C     2.61435  2.61435  0.00000  0.77130
       3     C     3.28754  3.28754  0.00000 -0.57508
       4     O     4.31148  4.31148  0.00000 -0.62296
       5     H     0.39747  0.39747  0.00000  0.20505
       6     H     0.40041  0.40041  0.00000  0.19918
       7     H     0.39742  0.39742  0.00000  0.20516
       8     C     3.00139  3.00139  0.00000 -0.00278
       9     C     3.17040  3.17040  0.00000 -0.34081
      10     H     0.40738  0.40738  0.00000  0.18523
      11     H     0.40896  0.40896  0.00000  0.18207
      12     C     3.15103  3.15103  0.00000 -0.30205
      13     H     0.41765  0.41765  0.00000  0.16470
      14     H     0.41493  0.41493  0.00000  0.17014
      15     C     3.15291  3.15291  0.00000 -0.30583
      16     H     0.42366  0.42366  0.00000  0.15268
      17     H     0.41187  0.41187  0.00000  0.17626
      18     C     3.23910  3.23910  0.00000 -0.47821
      19     H     0.42352  0.42352  0.00000  0.15296
      20     H     0.42270  0.42270  0.00000  0.15459
      21     H     0.42138  0.42138  0.00000  0.15724
      22     H     0.41888  0.41888  0.00000  0.16225
      23     H     0.42127  0.42127  0.00000  0.15746

   Total alpha = 36.00000, Total beta = 36.00000, Total charge =  0.00000
