                              Psi4 1.0.54 Driver

  ==> Input File <==

--------------------------------------------------------------------------
set {
	reference rhf
	basis cc-pvtz
}

set_num_threads( 4 )
memory 2 gb

molecule MOL {
0 1

H	 -3.586201	 2.047108	 1.372703
C	 -3.669887	 1.101271	 0.820187
C	 -2.653809	 0.914422	 -0.273689
O	 -4.519403	 0.327500	 1.097514
C	 -1.216901	 1.136108	 0.207794
H	 -2.784144	 -0.071757	 -0.700068
H	 -2.889300	 1.645477	 -1.044017
C	 -0.247837	 0.040196	 -0.230469
H	 -0.872882	 2.093195	 -0.169002
H	 -1.209325	 1.218376	 1.291938
C	 1.181757	 0.280428	 0.247371
H	 -0.259600	 -0.030819	 -1.314870
H	 -0.591284	 -0.923375	 0.136958
C	 2.151032	 -0.811012	 -0.202643
H	 1.515939	 1.247397	 -0.115449
H	 1.191514	 0.341223	 1.333422
C	 3.580021	 -0.656538	 0.320835
H	 2.170545	 -0.847575	 -1.289412
H	 1.766632	 -1.772905	 0.124928
C	 4.327657	 0.562694	 -0.213579
H	 4.138806	 -1.549270	 0.057813
H	 3.561991	 -0.620783	 1.406976
H	 4.355973	 0.557257	 -1.298551
H	 3.867136	 1.491650	 0.100501
H	 5.351524	 0.571613	 0.142204

	symmetry c1
}
set optking {
	frozen_dihedral = ("
		6 3 5 8
	")
}

ee,wfn = optimize('scf', return_wfn=True)
oeprop( wfn, 'DIPOLE', 'QUADRUPOLE', 'MULLIKEN_CHARGES')
f=open( 'psi4out.xyz', 'w' )
f.write( "25  " )
f.write( str(ee) + "\n" )
f.write( MOL.save_string_xyz() )
f.close()
--------------------------------------------------------------------------

    Molecular point group: c1
  Charge       = 0
  Multiplicity = 1
  Basis Set: CC-PVTZ
  Basis Set:
  @DF-RHF Final Energy:  -387.25597833187942
    Total Energy =                       -387.2559783318791915
    Molecular point group: c1
  Basis Set: CC-PVTZ
  Basis Set:
  Basis Set: CC-PVTZ
  Basis Set:
  @DF-RHF Final Energy:  -387.25565437505674
    Total Energy =                       -387.2556543750567926
  Basis Set: CC-PVTZ
  Basis Set:
  Basis Set: CC-PVTZ
  Basis Set:
  @DF-RHF Final Energy:  -387.25358426943512
    Total Energy =                       -387.2535842694347821
  Basis Set: CC-PVTZ
  Basis Set:
  Basis Set: CC-PVTZ
  Basis Set:
  @DF-RHF Final Energy:  -387.25630405979643
    Total Energy =                       -387.2563040597960935
  Basis Set: CC-PVTZ
  Basis Set:
  Basis Set: CC-PVTZ
  Basis Set:
  @DF-RHF Final Energy:  -387.25634554226218
    Total Energy =                       -387.2563455422625793
  Basis Set: CC-PVTZ
  Basis Set:
  Basis Set: CC-PVTZ
  Basis Set:
  @DF-RHF Final Energy:  -387.25634667334799
    Total Energy =                       -387.2563466733483892
  Basis Set: CC-PVTZ
  Basis Set:
  Basis Set: CC-PVTZ
  Basis Set:
  @DF-RHF Final Energy:  -387.25634789432831
    Total Energy =                       -387.2563478943279733
  Basis Set: CC-PVTZ
  Basis Set:
  Charge       = 0
  Multiplicity = 1
  Basis Set: CC-PVTZ
  Basis Set:

    Orbital Energies (a.u.)
    -----------------------

    Doubly Occupied:

       1A    -20.551038     2A    -11.321079     3A    -11.233621
       4A    -11.233006     5A    -11.223343     6A    -11.218082
       7A    -11.217002     8A    -11.216042     9A    -11.209532
      10A     -1.406146    11A     -1.104582    12A     -1.070314
      13A     -1.015453    14A     -0.945661    15A     -0.875805
      16A     -0.813689    17A     -0.796366    18A     -0.781510
      19A     -0.675782    20A     -0.658572    21A     -0.636258
      22A     -0.625368    23A     -0.613842    24A     -0.588546
      25A     -0.568109    26A     -0.561126    27A     -0.530079
      28A     -0.522877    29A     -0.517895    30A     -0.494914
      31A     -0.488834    32A     -0.479948    33A     -0.465978
      34A     -0.460078    35A     -0.447346    36A     -0.410877

  @DF-RHF Final Energy:  -387.25634813066438

   => Energetics <=

    Nuclear Repulsion Energy =            433.5569217547401877
    One-Electron Energy =               -1383.6691385642645855
    Two-Electron Energy =                 562.8558686788599061
    DFT Exchange-Correlation Energy =       0.0000000000000000
    Empirical Dispersion Energy =           0.0000000000000000
    PCM Polarization Energy =               0.0000000000000000
    EFP Energy =                            0.0000000000000000
    Total Energy =                       -387.2563481306644917
    Molecular point group: c1
  Basis Set: CC-PVTZ
  Basis Set:

  -Total Gradient:
     Atom            X                  Y                   Z
    ------   -----------------  -----------------  -----------------
       1        0.000003423039     0.000013261496     0.000006725648
       2        0.000001119903     0.000044659172     0.000014577918
       3       -0.000721322493    -0.001245774153     0.002737124973
       4       -0.000022200772    -0.000044069141     0.000010360869
       5        0.000497019485     0.001255643963    -0.002150563335
       6        0.000436389035     0.000720390785    -0.001837020854
       7        0.000015262047    -0.000005916374     0.000004101028
       8       -0.000233651417    -0.000734467750     0.001210156626
       9        0.000021954249     0.000008840394     0.000004332708
      10        0.000011950877    -0.000009390862    -0.000010013608
      11       -0.000004747631    -0.000010539236     0.000010435884
      12       -0.000001313530     0.000013982486     0.000000123241
      13       -0.000005043702    -0.000004919254    -0.000006472334
      14        0.000000319251     0.000002650750    -0.000000023251
      15       -0.000015332733    -0.000009955607    -0.000003845599
      16        0.000007078016     0.000006171324     0.000006784394
      17       -0.000006472860     0.000005637153     0.000011829459
      18       -0.000001574359     0.000005423701    -0.000003100659
      19        0.000003438996    -0.000005233953    -0.000004201675
      20        0.000004549654    -0.000001701893    -0.000003456239
      21        0.000000661132    -0.000004347892     0.000002432496
      22       -0.000000729947     0.000003472230     0.000004085113
      23       -0.000000755812     0.000002307330    -0.000004070468
      24        0.000008542830    -0.000003131537     0.000002119476
      25        0.000001436727    -0.000002993133    -0.000002421811

  **** Optimization is complete! (in 8 steps) ****
    Final optimized geometry and variables:
    Molecular point group: c1

    Geometry (in Angstrom), charge = 0, multiplicity = 1:

    H           -3.451905571840     1.677743828180     1.279837867128
    C           -3.546523612867     0.741316967685     0.714253923083
    C           -2.555563924420     0.568367677964    -0.402837470212
    O           -4.383682503132    -0.042037236549     1.002429827737
    C           -1.099772029139     0.822898614621     0.044888979373
    H           -2.679052265043    -0.420380855074    -0.823124694509
    H           -2.832511777296     1.276597346517    -1.179458115638
    C           -0.136866438914    -0.265178470704    -0.424817998189
    H           -0.763071514259     1.788580501716    -0.314376456985
    H           -1.053359329841     0.875645174094     1.129494111761
    C            1.305212484707    -0.020476965049     0.009679189364
    H           -0.179503338771    -0.338523875811    -1.508762062672
    H           -0.474189121996    -1.224068681873    -0.041286789527
    C            2.261323127817    -1.115308515506    -0.460120184067
    H            1.628934239184     0.943764450292    -0.369487912025
    H            1.345800027792     0.047799421928     1.094516626058
    C            3.704104490599    -0.958849866574     0.023351972830
    H            2.251526442721    -1.158373455280    -1.546879899450
    H            1.885494841253    -2.074911328116    -0.116147522542
    C            4.437799914653     0.256233080008    -0.539073926564
    H            4.254875878166    -1.853806530831    -0.248939789514
    H            3.715390916899    -0.916070047941     1.109264802821
    H            4.435481873877     0.244507647858    -1.624391514478
    H            3.987570894049     1.187630365419    -0.217429798592
    H            5.471304147006     0.265699422492    -0.212413570479

  Mulliken Charges: (a.u.)
   Center  Symbol    Alpha    Beta     Spin     Total
       1     H     0.46460  0.46460  0.00000  0.07079
       2     C     2.90597  2.90597  0.00000  0.18806
       3     C     3.08529  3.08529  0.00000 -0.17058
       4     O     4.16541  4.16541  0.00000 -0.33081
       5     C     3.10487  3.10487  0.00000 -0.20974
       6     H     0.44236  0.44236  0.00000  0.11527
       7     H     0.44501  0.44501  0.00000  0.10997
       8     C     3.08970  3.08970  0.00000 -0.17939
       9     H     0.44756  0.44756  0.00000  0.10488
      10     H     0.45335  0.45335  0.00000  0.09330
      11     C     3.09350  3.09350  0.00000 -0.18699
      12     H     0.45095  0.45095  0.00000  0.09809
      13     H     0.44808  0.44808  0.00000  0.10384
      14     C     3.09558  3.09558  0.00000 -0.19116
      15     H     0.45241  0.45241  0.00000  0.09519
      16     H     0.45330  0.45330  0.00000  0.09340
      17     C     3.09069  3.09069  0.00000 -0.18139
      18     H     0.45353  0.45353  0.00000  0.09294
      19     H     0.44850  0.44850  0.00000  0.10300
      20     C     3.15265  3.15265  0.00000 -0.30529
      21     H     0.44773  0.44773  0.00000  0.10454
      22     H     0.45426  0.45426  0.00000  0.09148
      23     H     0.45473  0.45473  0.00000  0.09053
      24     H     0.45422  0.45422  0.00000  0.09156
      25     H     0.44575  0.44575  0.00000  0.10851

   Total alpha = 36.00000, Total beta = 36.00000, Total charge = -0.00000

*** Psi4 exiting successfully. Buy a developer a beer!
