  ==> Input File <==

--------------------------------------------------------------------------
set {
	reference rhf
	basis cc-pvtz
}

set_num_threads( 4 )
memory 2 gb

molecule MOL {
0 1

O	 2.508748	 1.909247	 0.434076
C	 1.731521	 1.881207	 1.331428
C	 0.470805	 1.041959	 1.285724
C	 1.951978	 2.689192	 2.590310
C	 0.288398	 0.247429	 0.000314
H	 0.486555	 0.380318	 2.148887
H	 -0.372596	 1.708922	 1.449558
C	 -0.993089	 -0.581367	 -0.000217
H	 1.146044	 -0.400089	 -0.142088
H	 0.286270	 0.929736	 -0.842055
C	 -2.258482	 0.271340	 0.000669
H	 -1.002280	 -1.233920	 -0.870484
H	 -1.002061	 -1.235367	 0.868958
C	 -3.544441	 -0.550271	 -0.000253
H	 -2.250545	 0.925250	 -0.867923
H	 -2.250598	 0.923423	 0.870642
C	 -4.804551	 0.308747	 0.000556
H	 -3.553737	 -1.201524	 -0.870151
H	 -3.553831	 -1.203282	 0.868313
H	 -4.842050	 0.949078	 -0.874436
H	 -5.698404	 -0.304480	 -0.000254
H	 -4.842277	 0.947103	 0.876982
H	 1.990894	 2.033810	 3.453449
H	 2.874673	 3.243292	 2.512864
H	 1.126073	 3.375041	 2.743720

	symmetry c1
}
set optking {
	frozen_dihedral = ("
		9 5 8 12
	")
}

ee = optimize('scf')
oeprop('DIPOLE', 'QUADRUPOLE', 'MULLIKEN_CHARGES')
f=open( 'psi4out.xyz', 'w' )
f.write( "25  " )
f.write( str(ee) + "\n" )
f.write( MOL.save_string_xyz() )
f.close()
--------------------------------------------------------------------------

    Molecular point group: c1
  Charge       = 0
  Multiplicity = 1
  Basis Set: CC-PVTZ
  Basis Set:
  @DF-RHF Final Energy:  -387.27218533167837
    Total Energy =                       -387.2721853316786564
    Molecular point group: c1
  Basis Set: CC-PVTZ
  Basis Set:
  Basis Set: CC-PVTZ
  Basis Set:
  @DF-RHF Final Energy:  -387.27263666903508
    Total Energy =                       -387.2726366690352506
  Basis Set: CC-PVTZ
  Basis Set:
  Basis Set: CC-PVTZ
  Basis Set:
  @DF-RHF Final Energy:  -387.27289905706084
    Total Energy =                       -387.2728990570604992
  Basis Set: CC-PVTZ
  Basis Set:
  Basis Set: CC-PVTZ
  Basis Set:
  @DF-RHF Final Energy:  -387.27290428190150
    Total Energy =                       -387.2729042819009919
  Basis Set: CC-PVTZ
  Basis Set:
  Basis Set: CC-PVTZ
  Basis Set:
  @DF-RHF Final Energy:  -387.27280191138817
    Total Energy =                       -387.2728019113884557
  Basis Set: CC-PVTZ
  Basis Set:
  Basis Set: CC-PVTZ
  Basis Set:
  @DF-RHF Final Energy:  -387.27290871803240
    Total Energy =                       -387.2729087180327952
  Basis Set: CC-PVTZ
  Basis Set:
  Charge       = 0
  Multiplicity = 1
  Basis Set: CC-PVTZ
  Basis Set:

    Orbital Energies (a.u.)
    -----------------------

    Doubly Occupied:

       1A    -20.538765     2A    -11.320442     3A    -11.229657
       4A    -11.226513     5A    -11.215516     6A    -11.215375
       7A    -11.214895     8A    -11.214042     9A    -11.208610
      10A     -1.398863    11A     -1.096028    12A     -1.057184
      13A     -1.015624    14A     -0.969114    15A     -0.898426
      16A     -0.816552    17A     -0.788446    18A     -0.732202
      19A     -0.660653    20A     -0.650977    21A     -0.639575
      22A     -0.623466    23A     -0.598660    24A     -0.580185
      25A     -0.568605    26A     -0.567801    27A     -0.543718
      28A     -0.529061    29A     -0.517208    30A     -0.495568
      31A     -0.489527    32A     -0.477826    33A     -0.463812
      34A     -0.459788    35A     -0.448192    36A     -0.402703

  @DF-RHF Final Energy:  -387.27290878287567

   => Energetics <=

    Nuclear Repulsion Energy =            445.1083543704239673
    One-Electron Energy =               -1407.0153651034065660
    Two-Electron Energy =                 574.6341019501068104
    DFT Exchange-Correlation Energy =       0.0000000000000000
    Empirical Dispersion Energy =           0.0000000000000000
    PCM Polarization Energy =               0.0000000000000000
    EFP Energy =                            0.0000000000000000
    Total Energy =                       -387.2729087828757883
    Molecular point group: c1
  Basis Set: CC-PVTZ
  Basis Set:

  -Total Gradient:
     Atom            X                  Y                   Z
    ------   -----------------  -----------------  -----------------
       1        0.000003872927    -0.000003020907     0.000000891665
       2       -0.000005809019     0.000004957881    -0.000001151423
       3       -0.000001268779     0.000005996782    -0.000003738389
       4        0.000001636735    -0.000001423676     0.000000160905
       5        0.000006393136    -0.000015538559     0.000076688102
       6        0.000002889557    -0.000002873625     0.000001438591
       7        0.000000364407    -0.000004878637     0.000001162157
       8       -0.000028139241     0.000051595390    -0.000040057621
       9       -0.000004638683     0.000007932478    -0.000057353389
      10        0.000000897323     0.000002217880    -0.000000099833
      11       -0.000000598752    -0.000001491708    -0.000006235584
      12        0.000020962243    -0.000039578173     0.000031756178
      13        0.000000707352    -0.000001468548     0.000002254204
      14        0.000003359261    -0.000000447577    -0.000008726168
      15        0.000004025106    -0.000000482461     0.000000320974
      16       -0.000000337879    -0.000000482711    -0.000002660862
      17       -0.000003085682     0.000000192292     0.000006158751
      18       -0.000001458048     0.000001673319    -0.000001653975
      19       -0.000000212420    -0.000001020172    -0.000002020210
      20        0.000001099484    -0.000003425327    -0.000000156211
      21       -0.000000514430     0.000000003683     0.000003294585
      22       -0.000000235746     0.000002747625    -0.000000443518
      23       -0.000000920985     0.000000038159     0.000001905676
      24        0.000000137872    -0.000000686494    -0.000000409241
      25        0.000000874269    -0.000000536914    -0.000001325362

  **** Optimization is complete! (in 7 steps) ****
    Final optimized geometry and variables:
    Molecular point group: c1

    Geometry (in Angstrom), charge = 0, multiplicity = 1:

    O            3.096395547752     1.015277586434    -0.197059337338
    C            2.321679998529     1.057185904413     0.701785398170
    C            1.003546900368     0.309403627936     0.674086981641
    C            2.602134916270     1.869812302975     1.945898140570
    C            0.775055037632    -0.504107217032    -0.593816822721
    H            0.973553187961    -0.332513780579     1.552028054752
    H            0.216771156337     1.042599030055     0.824522520659
    C           -0.510452073080    -1.332896636542    -0.581389605645
    H            1.621310615518    -1.165158499283    -0.734630394562
    H            0.774033007230     0.162074838449    -1.449468154544
    C           -1.804795316215    -0.521565183078    -0.595071904655
    H           -0.500563947438    -1.982204548792    -1.451888418621
    H           -0.508256509684    -1.991901915136     0.284257349689
    C           -3.055364247922    -1.392083557452    -0.687104974164
    H           -1.785806523427     0.166870551320    -1.436990185980
    H           -1.872227835645     0.092080895645     0.298832045208
    C           -4.349261967345    -0.584997636086    -0.695775522473
    H           -3.003749386854    -1.998988374539    -1.586693485813
    H           -3.070533654698    -2.087378306391     0.147916746305
    H           -4.379384651250     0.096978217632    -1.539055249073
    H           -5.215833224170    -1.232558246963    -0.763796775490
    H           -4.448792619537     0.005790567897     0.208909323977
    H            2.595981909361     1.228866500506     2.820630838957
    H            3.561955671270     2.355044696491     1.857760947135
    H            1.827839067024     2.615768626671     2.087509007888

  Mulliken Charges: (a.u.)
   Center  Symbol    Alpha    Beta     Spin     Total
       1     O     4.17067  4.17067  0.00000 -0.34133
       2     C     2.86076  2.86076  0.00000  0.27848
       3     C     3.11332  3.11332  0.00000 -0.22665
       4     C     3.15071  3.15071  0.00000 -0.30143
       5     C     3.09302  3.09302  0.00000 -0.18603
       6     H     0.44552  0.44552  0.00000  0.10896
       7     H     0.44450  0.44450  0.00000  0.11101
       8     C     3.10108  3.10108  0.00000 -0.20215
       9     H     0.43985  0.43985  0.00000  0.12029
      10     H     0.44582  0.44582  0.00000  0.10836
      11     C     3.08907  3.08907  0.00000 -0.17813
      12     H     0.44581  0.44581  0.00000  0.10838
      13     H     0.45440  0.45440  0.00000  0.09119
      14     C     3.08405  3.08405  0.00000 -0.16810
      15     H     0.45321  0.45321  0.00000  0.09359
      16     H     0.45592  0.45592  0.00000  0.08815
      17     C     3.14969  3.14969  0.00000 -0.29938
      18     H     0.45297  0.45297  0.00000  0.09406
      19     H     0.45467  0.45467  0.00000  0.09066
      20     H     0.45464  0.45464  0.00000  0.09071
      21     H     0.44796  0.44796  0.00000  0.10408
      22     H     0.45607  0.45607  0.00000  0.08786
      23     H     0.45047  0.45047  0.00000  0.09907
      24     H     0.43526  0.43526  0.00000  0.12948
      25     H     0.45057  0.45057  0.00000  0.09886

   Total alpha = 36.00000, Total beta = 36.00000, Total charge = -0.00000
