                              Psi4 1.0.54 Driver

  ==> Input File <==

--------------------------------------------------------------------------
set {
	reference rhf
	basis cc-pvtz
}

set_num_threads( 4 )
memory 2 gb

molecule MOL {
0 1

H	 1.428497	 1.260593	 1.087502
O	 0.628462	 0.759523	 1.135858
C	 0.489979	 0.078084	 0.002623
C	 -0.763662	 -0.754014	 0.000816
O	 1.283453	 0.139771	 -0.871737
C	 -2.038001	 0.074705	 -0.000833
H	 -0.712945	 -1.405886	 -0.864342
H	 -0.715137	 -1.405770	 0.866182
H	 -2.087267	 0.710831	 -0.874232
H	 -2.903419	 -0.576199	 -0.001922
H	 -2.089467	 0.710909	 0.872389

	symmetry c1
}
set optking {
	frozen_dihedral = ("
		2 3 4 7
	")
}

ee,wfn = optimize('scf', return_wfn=True)
oeprop( wfn, 'DIPOLE', 'QUADRUPOLE', 'MULLIKEN_CHARGES')
f=open( 'psi4out.xyz', 'w' )
f.write( "11  " )
f.write( str(ee) + "\n" )
f.write( MOL.save_string_xyz() )
f.close()
--------------------------------------------------------------------------

    Molecular point group: c1
  Charge       = 0
  Multiplicity = 1
  Basis Set: CC-PVTZ
  Basis Set:
  @DF-RHF Final Energy:  -266.95133323223877
    Total Energy =                       -266.9513332322388806
    Molecular point group: c1
  Basis Set: CC-PVTZ
  Basis Set:
  Basis Set: CC-PVTZ
  Basis Set:
  @DF-RHF Final Energy:  -266.95165585672669
    Total Energy =                       -266.9516558567266884
  Basis Set: CC-PVTZ
  Basis Set:
  Basis Set: CC-PVTZ
  Basis Set:
  @DF-RHF Final Energy:  -266.95146294719075
    Total Energy =                       -266.9514629471907483
  Basis Set: CC-PVTZ
  Basis Set:
  Basis Set: CC-PVTZ
  Basis Set:
  @DF-RHF Final Energy:  -266.95169095249514
    Total Energy =                       -266.9516909524952553
  Basis Set: CC-PVTZ
  Basis Set:
  Charge       = 0
  Multiplicity = 1
  Basis Set: CC-PVTZ
  Basis Set:

    Orbital Energies (a.u.)
    -----------------------

    Doubly Occupied:

       1A    -20.605562     2A    -20.540294     3A    -11.373468
       4A    -11.241765     5A    -11.228665     6A     -1.478272
       7A     -1.369013     8A     -1.069102     9A     -0.913546
      10A     -0.820221    11A     -0.706089    12A     -0.687585
      13A     -0.644975    14A     -0.617721    15A     -0.594271
      16A     -0.547174    17A     -0.527912    18A     -0.513130
      19A     -0.481907    20A     -0.443809

  @DF-RHF Final Energy:  -266.95170216370519

   => Energetics <=

    Nuclear Repulsion Energy =            180.4074824470661156
    One-Electron Energy =                -721.9094053556552808
    Two-Electron Energy =                 274.5502207448839158
    DFT Exchange-Correlation Energy =       0.0000000000000000
    Empirical Dispersion Energy =           0.0000000000000000
    PCM Polarization Energy =               0.0000000000000000
    EFP Energy =                            0.0000000000000000
    Total Energy =                       -266.9517021637053062
    Molecular point group: c1
  Basis Set: CC-PVTZ
  Basis Set:

  -Total Gradient:
     Atom            X                  Y                   Z
    ------   -----------------  -----------------  -----------------
       1        0.000024508957     0.000032381569     0.000021623300
       2        0.000117521283     0.000018579121    -0.000198950251
       3       -0.000353346904    -0.000110827016     0.000371628636
       4        0.000010809442    -0.000103080942    -0.000068804821
       5        0.000211935831     0.000081252937    -0.000112963343
       6        0.000061871015     0.000019235368     0.000013562336
       7       -0.000024811053     0.000056411990     0.000003389877
       8       -0.000020589801     0.000050098745    -0.000020061593
       9       -0.000023637038     0.000000386683     0.000012807302
      10       -0.000016807730    -0.000035637987    -0.000008927954
      11        0.000012545996    -0.000008800466    -0.000013303491

  **** Optimization is complete! (in 5 steps) ****
    Final optimized geometry and variables:
    Molecular point group: c1

    Geometry (in Angstrom), charge = 0, multiplicity = 1:

    H            1.487205631700     1.182072100344     1.007707912864
    O            0.703191633021     0.657879343698     1.073811319812
    C            0.545652789641    -0.009639248144    -0.065655122584
    C           -0.695060621585    -0.860404701548    -0.067078936096
    O            1.312372120880     0.086275801815    -0.961152968561
    C           -1.972730559684    -0.017966468381    -0.072275338082
    H           -0.647828375320    -1.491621679845    -0.941398871449
    H           -0.673323394908    -1.488545625205     0.815398714246
    H           -2.012591459337     0.620646399327    -0.946472960311
    H           -2.840173977645    -0.665001773911    -0.091571729056
    H           -2.033809585277     0.605556317241     0.809378910982

  Mulliken Charges: (a.u.)
   Center  Symbol    Alpha    Beta     Spin     Total
       1     H     0.38035  0.38035  0.00000  0.23930
       2     O     4.16429  4.16429  0.00000 -0.32858
       3     C     2.80006  2.80006  0.00000  0.39988
       4     C     3.08998  3.08998  0.00000 -0.17995
       5     O     4.19422  4.19422  0.00000 -0.38844
       6     C     3.14972  3.14972  0.00000 -0.29943
       7     H     0.43580  0.43580  0.00000  0.12839
       8     H     0.44493  0.44493  0.00000  0.11015
       9     H     0.44846  0.44846  0.00000  0.10309
      10     H     0.44672  0.44672  0.00000  0.10656
      11     H     0.44549  0.44549  0.00000  0.10903

   Total alpha = 20.00000, Total beta = 20.00000, Total charge = -0.00000

*** Psi4 exiting successfully. Buy a developer a beer!
