                              Psi4 1.0.54 Driver

  ==> Input File <==

--------------------------------------------------------------------------
set {
	reference rhf
	basis cc-pvtz
}

set_num_threads( 4 )
memory 2 gb

molecule MOL {
0 1

H	 1.651007	 1.615294	 -0.099499
C	 1.804780	 0.544219	 -0.033838
N	 0.526300	 -0.128137	 0.000000
H	 2.348222	 0.346066	 0.881283
H	 2.433919	 0.248133	 -0.875912
C	 -0.247113	 0.037112	 -1.209233
H	 0.657032	 -1.097883	 0.190162
H	 -0.996493	 -0.743733	 -1.271440
H	 0.397975	 -0.057351	 -2.073512
H	 -0.763794	 0.997171	 -1.271673

	symmetry c1
}
set optking {
	frozen_dihedral = ("
		2 3 6 8
	")
}

ee,wfn = optimize('scf', return_wfn=True)
oeprop( wfn, 'DIPOLE', 'QUADRUPOLE', 'MULLIKEN_CHARGES')
f=open( 'psi4out.xyz', 'w' )
f.write( "10  " )
f.write( str(ee) + "\n" )
f.write( MOL.save_string_xyz() )
f.close()
--------------------------------------------------------------------------

    Molecular point group: c1
  Charge       = 0
  Multiplicity = 1
  Basis Set: CC-PVTZ
  Basis Set:
  @DF-RHF Final Energy:  -134.29136788884830
    Total Energy =                       -134.2913678888482139
    Molecular point group: c1
  Basis Set: CC-PVTZ
  Basis Set:
  Basis Set: CC-PVTZ
  Basis Set:
  @DF-RHF Final Energy:  -134.29207703538191
    Total Energy =                       -134.2920770353818796
  Basis Set: CC-PVTZ
  Basis Set:
  Basis Set: CC-PVTZ
  Basis Set:
  @DF-RHF Final Energy:  -134.29218565488202
    Total Energy =                       -134.2921856548819903
  Basis Set: CC-PVTZ
  Basis Set:
  Basis Set: CC-PVTZ
  Basis Set:
  @DF-RHF Final Energy:  -134.29218673590566
    Total Energy =                       -134.2921867359056876
  Basis Set: CC-PVTZ
  Basis Set:
  Charge       = 0
  Multiplicity = 1
  Basis Set: CC-PVTZ
  Basis Set:

    Orbital Energies (a.u.)
    -----------------------

    Doubly Occupied:

       1A    -15.532664     2A    -11.234416     3A    -11.234333
       4A     -1.200697     5A     -0.948428     6A     -0.854476
       7A     -0.662458     8A     -0.613830     9A     -0.591932
      10A     -0.541591    11A     -0.509503    12A     -0.505583
      13A     -0.364970

  @DF-RHF Final Energy:  -134.29218685223179

   => Energetics <=

    Nuclear Repulsion Energy =             84.7049603953878858
    One-Electron Energy =                -348.4045375879907169
    Two-Electron Energy =                 129.4073903403710801
    DFT Exchange-Correlation Energy =       0.0000000000000000
    Empirical Dispersion Energy =           0.0000000000000000
    PCM Polarization Energy =               0.0000000000000000
    EFP Energy =                            0.0000000000000000
    Total Energy =                       -134.2921868522317368
    Molecular point group: c1
  Basis Set: CC-PVTZ
  Basis Set:

  -Total Gradient:
     Atom            X                  Y                   Z
    ------   -----------------  -----------------  -----------------
       1        0.000000009314     0.000002158913     0.000000167467
       2        0.000885402413    -0.001837881038    -0.000847008802
       3       -0.000802316342     0.002132328274     0.000810344107
       4        0.000008794382     0.000003606715     0.000002740282
       5       -0.000003282924     0.000000265937    -0.000008131157
       6       -0.001932213207     0.001358398220     0.001528759291
       7        0.000004338527     0.000011245999     0.000002846690
       8        0.001828859981    -0.001663623438    -0.001472748414
       9        0.000003408466    -0.000005208465    -0.000014713384
      10        0.000006999390    -0.000001291117    -0.000002256079

  **** Optimization is complete! (in 5 steps) ****
    Final optimized geometry and variables:
    Molecular point group: c1

    Geometry (in Angstrom), charge = 0, multiplicity = 1:

    H            0.960201460960     1.468011602153     0.304726991967
    C            1.110956078098     0.396215552035     0.370188950960
    N           -0.168002585280    -0.273650883663     0.436509127818
    H            1.675942744517     0.199890797443     1.272610028212
    H            1.716100912418     0.094972709665    -0.486991468294
    C           -0.976048249613    -0.104579925961    -0.752452251791
    H           -0.024118617950    -1.244655900065     0.607676213801
    H           -1.728345159314    -0.881579536527    -0.798285717998
    H           -0.395515522855    -0.163754641908    -1.675216041102
    H           -1.476303453764     0.856860760379    -0.737987088751

  Mulliken Charges: (a.u.)
   Center  Symbol    Alpha    Beta     Spin     Total
       1     H     0.45711  0.45711  0.00000  0.08578
       2     C     3.08215  3.08215  0.00000 -0.16430
       3     N     3.62767  3.62767  0.00000 -0.25535
       4     H     0.45261  0.45261  0.00000  0.09479
       5     H     0.47389  0.47389  0.00000  0.05223
       6     C     3.07805  3.07805  0.00000 -0.15611
       7     H     0.44113  0.44113  0.00000  0.11775
       8     H     0.45488  0.45488  0.00000  0.09025
       9     H     0.47695  0.47695  0.00000  0.04610
      10     H     0.45557  0.45557  0.00000  0.08887

   Total alpha = 13.00000, Total beta = 13.00000, Total charge = -0.00000

*** Psi4 exiting successfully. Buy a developer a beer!
