  ==> Input File <==

--------------------------------------------------------------------------
set {
	reference rhf
	basis cc-pvtz
}

set_num_threads( 4 )
memory 2 gb

molecule MOL {
0 1

O	 0.390917	 -0.392405	 -2.176337
C	 -0.083659	 -0.765475	 -1.158754
C	 -1.461965	 -1.343761	 -1.012077
O	 0.550743	 -0.719877	 0.000412
H	 -1.394420	 -2.343782	 -0.603664
H	 -1.948307	 -1.366743	 -1.973574
H	 -2.035377	 -0.743199	 -0.317844
C	 1.863204	 -0.194033	 0.000410
H	 2.031502	 0.409177	 -0.879273
H	 2.524488	 -1.045142	 0.000793
H	 2.031291	 0.409823	 0.879686

	symmetry c1
}
set optking {
	frozen_dihedral = ("
		2 4 8 9
	")
}

ee = optimize('scf')
oeprop('DIPOLE', 'QUADRUPOLE', 'MULLIKEN_CHARGES')
f=open( 'psi4out.xyz', 'w' )
f.write( "11  " )
f.write( str(ee) + "\n" )
f.write( MOL.save_string_xyz() )
f.close()
--------------------------------------------------------------------------

    Molecular point group: c1
  Charge       = 0
  Multiplicity = 1
  Basis Set: CC-PVTZ
  Basis Set:
  @DF-RHF Final Energy:  -266.93643925029471
    Total Energy =                       -266.9364392502948249
    Molecular point group: c1
  Basis Set: CC-PVTZ
  Basis Set:
  Basis Set: CC-PVTZ
  Basis Set:
  @DF-RHF Final Energy:  -266.93725286014376
    Total Energy =                       -266.9372528601439853
  Basis Set: CC-PVTZ
  Basis Set:
  Basis Set: CC-PVTZ
  Basis Set:
  @DF-RHF Final Energy:  -266.93740777430281
    Total Energy =                       -266.9374077743030966
  Basis Set: CC-PVTZ
  Basis Set:
  Basis Set: CC-PVTZ
  Basis Set:
  @DF-RHF Final Energy:  -266.93759348127111
    Total Energy =                       -266.9375934812711080
  Basis Set: CC-PVTZ
  Basis Set:
  Basis Set: CC-PVTZ
  Basis Set:
  @DF-RHF Final Energy:  -266.93763161180925
    Total Energy =                       -266.9376316118091381
  Basis Set: CC-PVTZ
  Basis Set:
  Basis Set: CC-PVTZ
  Basis Set:
  @DF-RHF Final Energy:  -266.93763963012969
    Total Energy =                       -266.9376396301297518
  Basis Set: CC-PVTZ
  Basis Set:
  Charge       = 0
  Multiplicity = 1
  Basis Set: CC-PVTZ
  Basis Set:

    Orbital Energies (a.u.)
    -----------------------

    Doubly Occupied:

       1A    -20.597903     2A    -20.534711     3A    -11.369898
       4A    -11.278856     5A    -11.232735     6A     -1.472170
       7A     -1.368122     8A     -1.036996     9A     -0.954064
      10A     -0.779390    11A     -0.699201    12A     -0.682508
      13A     -0.681014    14A     -0.597745    15A     -0.592730
      16A     -0.561762    17A     -0.530086    18A     -0.521542
      19A     -0.459375    20A     -0.445922

  @DF-RHF Final Energy:  -266.93763972314667

   => Energetics <=

    Nuclear Repulsion Energy =            183.3298514593128061
    One-Electron Energy =                -727.7415203827879395
    Two-Electron Energy =                 277.4740292003286299
    DFT Exchange-Correlation Energy =       0.0000000000000000
    Empirical Dispersion Energy =           0.0000000000000000
    PCM Polarization Energy =               0.0000000000000000
    EFP Energy =                            0.0000000000000000
    Total Energy =                       -266.9376397231465603
    Molecular point group: c1
  Basis Set: CC-PVTZ
  Basis Set:

  -Total Gradient:
     Atom            X                  Y                   Z
    ------   -----------------  -----------------  -----------------
       1       -0.000001120621    -0.000000458693     0.000010703642
       2       -0.000433071622     0.001010973026     0.000170538356
       3       -0.000014141820     0.000011382027     0.000003040331
       4        0.000766167959    -0.001783219997    -0.000464825624
       5        0.000002329514    -0.000000796319    -0.000002255984
       6        0.000000609839     0.000000305854     0.000002234388
       7       -0.000004844441    -0.000004360243     0.000002929983
       8       -0.000751725009     0.001821948794     0.000912699417
       9        0.000446746959    -0.001046910035    -0.000648301228
      10       -0.000009226536    -0.000003876880     0.000001420637
      11       -0.000001724223    -0.000004987534     0.000011816085

  **** Optimization is complete! (in 7 steps) ****
    Final optimized geometry and variables:
    Molecular point group: c1

    Geometry (in Angstrom), charge = 0, multiplicity = 1:

    O            0.097618489567     0.269205696033    -1.337418819709
    C           -0.356110346977    -0.088637407929    -0.305343057641
    C           -1.736786820096    -0.653350409754    -0.127291833403
    O            0.293638453383    -0.043872908811     0.846472983055
    H           -1.669482251988    -1.650184889929     0.288837232681
    H           -2.241342532361    -0.680934481057    -1.079228125604
    H           -2.291520988952    -0.041846814250     0.572463448193
    C            1.605150416665     0.486663876439     0.878548715854
    H            1.791691482525     1.105541081274     0.017692476800
    H            2.316595692002    -0.327503180064     0.893604656218
    H            1.692043984134     1.058831858089     1.788877490325

  Mulliken Charges: (a.u.)
   Center  Symbol    Alpha    Beta     Spin     Total
       1     O     4.19710  4.19710  0.00000 -0.39421
       2     C     2.79871  2.79871  0.00000  0.40259
       3     C     3.13933  3.13933  0.00000 -0.27867
       4     O     4.14954  4.14954  0.00000 -0.29907
       5     H     0.44538  0.44538  0.00000  0.10923
       6     H     0.43796  0.43796  0.00000  0.12408
       7     H     0.44580  0.44580  0.00000  0.10839
       8     C     3.03581  3.03581  0.00000 -0.07163
       9     H     0.44510  0.44510  0.00000  0.10979
      10     H     0.45582  0.45582  0.00000  0.08836
      11     H     0.44944  0.44944  0.00000  0.10112

   Total alpha = 20.00000, Total beta = 20.00000, Total charge = -0.00000
