  ==> Input File <==

--------------------------------------------------------------------------
set {
	reference rhf
	basis 6-31G*
}

set_num_threads( 4 )
memory 2 gb

molecule MOL {
0 1

H	 2.689964	 0.331107	 1.754982
O	 1.989099	 0.878383	 1.430999
C	 1.135793	 0.118896	 0.612333
C	 0.031547	 1.023609	 0.088541
H	 0.691632	 -0.697464	 1.179048
H	 1.691594	 -0.324122	 -0.211028
C	 -1.134819	 0.293262	 -0.585751
H	 0.474374	 1.714721	 -0.623187
H	 -0.338529	 1.620940	 0.920081
C	 -1.917817	 -0.639439	 0.339494
H	 -0.758119	 -0.268455	 -1.433105
H	 -1.813832	 1.041889	 -0.986690
H	 -2.777680	 -1.057197	 -0.174994
H	 -1.310268	 -1.471279	 0.680599
H	 -2.283753	 -0.111424	 1.216626

	symmetry c1
}
set optking {
	frozen_dihedral = ("
		2 3 4 8
	")
}

ee = optimize('scf')
oeprop('DIPOLE', 'QUADRUPOLE', 'MULLIKEN_CHARGES')
f=open( 'psi4out.xyz', 'w' )
f.write( "15  " )
f.write( str(ee) + "\n" )
f.write( MOL.save_string_xyz() )
f.close()
--------------------------------------------------------------------------

    Molecular point group: c1
  Charge       = 0
  Multiplicity = 1
  Basis Set: 6-31G*
  Basis Set:
  @DF-RHF Final Energy:  -232.14205966997332
    Total Energy =                       -232.1420596699733778
    Molecular point group: c1
  Basis Set: 6-31G*
  Basis Set:
  Basis Set: 6-31G*
  Basis Set:
  @DF-RHF Final Energy:  -232.14233731665868
    Total Energy =                       -232.1423373166584838
  Basis Set: 6-31G*
  Basis Set:
  Basis Set: 6-31G*
  Basis Set:
  @DF-RHF Final Energy:  -232.14255319608498
    Total Energy =                       -232.1425531960848616
  Basis Set: 6-31G*
  Basis Set:
  Basis Set: 6-31G*
  Basis Set:
  @DF-RHF Final Energy:  -232.14256428588294
    Total Energy =                       -232.1425642858830543
  Basis Set: 6-31G*
  Basis Set:
  Basis Set: 6-31G*
  Basis Set:
  @DF-RHF Final Energy:  -232.14257180578173
    Total Energy =                       -232.1425718057818131
  Basis Set: 6-31G*
  Basis Set:
  Basis Set: 6-31G*
  Basis Set:
  @DF-RHF Final Energy:  -232.14257312747009
    Total Energy =                       -232.1425731274703708
  Basis Set: 6-31G*
  Basis Set:
  Charge       = 0
  Multiplicity = 1
  Basis Set: 6-31G*
  Basis Set:

    Orbital Energies (a.u.)
    -----------------------

    Doubly Occupied:

       1A    -20.551789     2A    -11.266925     3A    -11.218755
       4A    -11.211394     5A    -11.210307     6A     -1.358424
       7A     -1.069149     8A     -0.970942     9A     -0.867962
      10A     -0.785705    11A     -0.693629    12A     -0.652110
      13A     -0.619505    14A     -0.578778    15A     -0.555576
      16A     -0.540872    17A     -0.504330    18A     -0.474811
      19A     -0.472458    20A     -0.457325    21A     -0.432105

  @DF-RHF Final Energy:  -232.14257344286767

   => Energetics <=

    Nuclear Repulsion Energy =            188.0124533487963276
    One-Electron Energy =                -687.3243514772984781
    Two-Electron Energy =                 267.1693246856345922
    DFT Exchange-Correlation Energy =       0.0000000000000000
    Empirical Dispersion Energy =           0.0000000000000000
    PCM Polarization Energy =               0.0000000000000000
    EFP Energy =                            0.0000000000000000
    Total Energy =                       -232.1425734428675582
    Molecular point group: c1
  Basis Set: 6-31G*
  Basis Set:

  -Total Gradient:
     Atom            X                  Y                   Z
    ------   -----------------  -----------------  -----------------
       1       -0.000000795346    -0.000000298592    -0.000000185797
       2       -0.001112469472    -0.000603707551     0.001651655265
       3        0.001330277688     0.000416740552    -0.002575293700
       4        0.000253477098     0.001811156316     0.003002697118
       5        0.000003488613     0.000000729331     0.000004791900
       6       -0.000006895252    -0.000000389446    -0.000004328334
       7       -0.000008800429     0.000012295368    -0.000001613081
       8       -0.000466795863    -0.001627261213    -0.002085807792
       9       -0.000000699462    -0.000003715697    -0.000000584484
      10        0.000007393226    -0.000012988349     0.000003798543
      11       -0.000000079582     0.000002939945     0.000008291793
      12        0.000006714556     0.000008362114    -0.000007330070
      13        0.000002342506     0.000002017262     0.000001968380
      14       -0.000007096768    -0.000006791381     0.000004060139
      15       -0.000000061519     0.000000911340    -0.000002119882

  **** Optimization is complete! (in 7 steps) ****
    Final optimized geometry and variables:
    Molecular point group: c1

    Geometry (in Angstrom), charge = 0, multiplicity = 1:

    H            2.670547764900     0.022136363946     1.273898124312
    O            1.927290913220     0.546019362552     1.011043862649
    C            1.094271004797    -0.206604834140     0.165897503299
    C           -0.053517468953     0.686839809358    -0.279631856195
    H            0.719206033189    -1.079228274541     0.695572296945
    H            1.643709703271    -0.564615724206    -0.703446304665
    C           -1.185280060669    -0.063868298493    -0.993633636082
    H            0.347161959491     1.436321504868    -0.955875735522
    H           -0.439904111265     1.209436348330     0.590110220833
    C           -2.047925772089    -0.937329067553    -0.079667956515
    H           -0.770005194880    -0.673997816557    -1.794013781552
    H           -1.826626094798     0.666988296607    -1.478324625227
    H           -2.858344698667    -1.395165027315    -0.638474766577
    H           -1.479004377523    -1.738435567549     0.380648346841
    H           -2.489092480553    -0.346153685532     0.717740072281

  Mulliken Charges: (a.u.)
   Center  Symbol    Alpha    Beta     Spin     Total
       1     H     0.28138  0.28138  0.00000  0.43724
       2     O     4.37145  4.37145  0.00000 -0.74290
       3     C     2.99237  2.99237  0.00000  0.01526
       4     C     3.15973  3.15973  0.00000 -0.31945
       5     H     0.43125  0.43125  0.00000  0.13751
       6     H     0.43245  0.43245  0.00000  0.13510
       7     C     3.16165  3.16165  0.00000 -0.32331
       8     H     0.41519  0.41519  0.00000  0.16962
       9     H     0.41244  0.41244  0.00000  0.17512
      10     C     3.24032  3.24032  0.00000 -0.48063
      11     H     0.42381  0.42381  0.00000  0.15237
      12     H     0.41771  0.41771  0.00000  0.16458
      13     H     0.41872  0.41872  0.00000  0.16256
      14     H     0.42189  0.42189  0.00000  0.15622
      15     H     0.41964  0.41964  0.00000  0.16072

   Total alpha = 21.00000, Total beta = 21.00000, Total charge =  0.00000
