  ==> Input File <==

--------------------------------------------------------------------------
set {
	reference rhf
	basis cc-pvtz
}

set_num_threads( 4 )
memory 2 gb

molecule MOL {
0 1

O	 -1.278239	 1.034789	 -0.784693
C	 -1.204115	 0.062668	 -0.112312
C	 -2.386398	 -0.667698	 0.460323
O	 -0.068058	 -0.518372	 0.226882
H	 -2.382952	 -1.693172	 0.114333
H	 -3.296656	 -0.175702	 0.158400
H	 -2.312537	 -0.685191	 1.540100
C	 1.169086	 0.037484	 -0.230612
C	 0.919620	 0.520255	 -1.645466
C	 2.266919	 -1.007497	 -0.144682
H	 1.413697	 0.872378	 0.408298
H	 0.128005	 1.258331	 -1.663884
H	 1.818587	 0.972094	 -2.047227
H	 0.633693	 -0.304117	 -2.287800
H	 3.201804	 -0.591973	 -0.502215
H	 2.409974	 -1.331075	 0.876827
H	 2.020285	 -1.868684	 -0.755265

	symmetry c1
}
set optking {
	frozen_dihedral = ("
		11 8 4 2
	")
}

ee = optimize('scf')
oeprop('DIPOLE', 'QUADRUPOLE', 'MULLIKEN_CHARGES')
f=open( 'psi4out.xyz', 'w' )
f.write( "17  " )
f.write( str(ee) + "\n" )
f.write( MOL.save_string_xyz() )
f.close()
--------------------------------------------------------------------------

    Molecular point group: c1
  Charge       = 0
  Multiplicity = 1
  Basis Set: CC-PVTZ
  Basis Set:
  @DF-RHF Final Energy:  -345.00965536325072
    Total Energy =                       -345.0096553632505447
    Molecular point group: c1
  Basis Set: CC-PVTZ
  Basis Set:
  Basis Set: CC-PVTZ
  Basis Set:
  @DF-RHF Final Energy:  -345.03165268771767
    Total Energy =                       -345.0316526877176670
  Basis Set: CC-PVTZ
  Basis Set:
  Basis Set: CC-PVTZ
  Basis Set:
  @DF-RHF Final Energy:  -345.03574702278053
    Total Energy =                       -345.0357470227799581
  Basis Set: CC-PVTZ
  Basis Set:
  Basis Set: CC-PVTZ
  Basis Set:
  @DF-RHF Final Energy:  -345.03259876597474
    Total Energy =                       -345.0325987659749671
  Basis Set: CC-PVTZ
  Basis Set:
  @DF-RHF Final Energy:  -345.03705989768645
    Total Energy =                       -345.0370598976861061
  @DF-RHF Final Energy:  -345.03723325490506
    Total Energy =                       -345.0372332549055727
  @DF-RHF Final Energy:  -345.03724741751881
    Total Energy =                       -345.0372474175187563
  @DF-RHF Final Energy:  -345.03725024309671
    Total Energy =                       -345.0372502430971053
  Basis Set: CC-PVTZ
  Basis Set:
  @DF-RHF Final Energy:  -345.03724978886152
    Total Energy =                       -345.0372497888616863
  Basis Set: CC-PVTZ
  Basis Set:
  Basis Set: CC-PVTZ
  Basis Set:
  @DF-RHF Final Energy:  -345.03725119240323
    Total Energy =                       -345.0372511924030050
  Basis Set: CC-PVTZ
  Basis Set:
  Basis Set: CC-PVTZ
  Basis Set:
  @DF-RHF Final Energy:  -345.03725451778831
    Total Energy =                       -345.0372545177879147
  Basis Set: CC-PVTZ
  Basis Set:
  Charge       = 0
  Multiplicity = 1
  Basis Set: CC-PVTZ
  Basis Set:

    Orbital Energies (a.u.)
    -----------------------

    Doubly Occupied:

       1A    -20.590021     2A    -20.530323     3A    -11.366626
       4A    -11.293281     5A    -11.229442     6A    -11.217362
       7A    -11.211818     8A     -1.465365     9A     -1.364622
      10A     -1.080626    11A     -1.004687    12A     -0.947324
      13A     -0.856896    14A     -0.754388    15A     -0.693583
      16A     -0.680234    17A     -0.660539    18A     -0.616697
      19A     -0.586631    20A     -0.579419    21A     -0.551770
      22A     -0.550729    23A     -0.543356    24A     -0.519442
      25A     -0.502731    26A     -0.485883    27A     -0.450004
      28A     -0.433655

  @DF-RHF Final Energy:  -345.03725489920470

   => Energetics <=

    Nuclear Repulsion Energy =            324.3219097187680404
    One-Electron Energy =               -1113.1834187895942705
    Two-Electron Energy =                 443.8242541716219876
    DFT Exchange-Correlation Energy =       0.0000000000000000
    Empirical Dispersion Energy =           0.0000000000000000
    PCM Polarization Energy =               0.0000000000000000
    EFP Energy =                            0.0000000000000000
    Total Energy =                       -345.0372548992042994
    Molecular point group: c1
  Basis Set: CC-PVTZ
  Basis Set:

  -Total Gradient:
     Atom            X                  Y                   Z
    ------   -----------------  -----------------  -----------------
       1       -0.000028709575     0.000029225440    -0.000000292368
       2       -0.000642712348    -0.003594469932    -0.004965572265
       3       -0.000007180024    -0.000005079397    -0.000004990974
       4        0.001824358513     0.004542075462     0.008340055675
       5        0.000000547427    -0.000001530711     0.000005156709
       6        0.000003699051    -0.000000100644     0.000000161600
       7       -0.000000722696     0.000002647614     0.000000225254
       8       -0.004599335123     0.003004298854    -0.007239809610
       9       -0.000021316452     0.000042899569    -0.000005005345
      10       -0.000001196964     0.000024475288     0.000023210018
      11        0.003464395241    -0.004041230672     0.003834285227
      12       -0.000001425757     0.000003256837    -0.000001259874
      13        0.000013620260     0.000005413944     0.000000682157
      14        0.000005340159    -0.000006884058     0.000009447795
      15       -0.000015225836     0.000007532778     0.000000115429
      16        0.000002885525    -0.000001032362     0.000004359743
      17        0.000002978596    -0.000011498014    -0.000000769171

  **** Optimization is complete! (in 12 steps) ****
    Final optimized geometry and variables:
    Molecular point group: c1

    Geometry (in Angstrom), charge = 0, multiplicity = 1:

    O           -1.333743428427     1.220271847890    -0.202143569283
    C           -1.149222625329     0.160848822333     0.292196777423
    C           -2.245422095800    -0.743465115803     0.785227431018
    O            0.038136003464    -0.372235966342     0.510969214475
    H           -2.231720451931    -1.667350265894     0.220837144832
    H           -3.198326107617    -0.253423451672     0.668266708964
    H           -2.075636795295    -0.991504028180     1.824623625414
    C            1.252952305539     0.157527580631    -0.037261389889
    C            1.164216511451     0.549006633280    -1.502094900797
    C            2.275043018134    -0.946005795773     0.184264494811
    H            1.543922040894     0.996907366336     0.582461577448
    H            0.542008573680     1.412016134089    -1.661917066112
    H            2.164216245829     0.767323965615    -1.858021472377
    H            0.775342930163    -0.276610875225    -2.088681235153
    H            3.261755691051    -0.601431345428    -0.100120659143
    H            2.299873664551    -1.236966447333     1.226261030796
    H            2.030884910045    -1.819446402426    -0.408856358542

  Mulliken Charges: (a.u.)
   Center  Symbol    Alpha    Beta     Spin     Total
       1     O     4.19934  4.19934  0.00000 -0.39867
       2     C     2.80686  2.80686  0.00000  0.38628
       3     C     3.13805  3.13805  0.00000 -0.27610
       4     O     4.16051  4.16051  0.00000 -0.32103
       5     H     0.44759  0.44759  0.00000  0.10483
       6     H     0.43850  0.43850  0.00000  0.12299
       7     H     0.44479  0.44479  0.00000  0.11043
       8     C     2.92913  2.92913  0.00000  0.14173
       9     C     3.16391  3.16391  0.00000 -0.32782
      10     C     3.13838  3.13838  0.00000 -0.27675
      11     H     0.44903  0.44903  0.00000  0.10195
      12     H     0.42613  0.42613  0.00000  0.14773
      13     H     0.44973  0.44973  0.00000  0.10055
      14     H     0.45331  0.45331  0.00000  0.09337
      15     H     0.45523  0.45523  0.00000  0.08954
      16     H     0.44604  0.44604  0.00000  0.10792
      17     H     0.45347  0.45347  0.00000  0.09306

   Total alpha = 28.00000, Total beta = 28.00000, Total charge = -0.00000
