  ==> Input File <==

--------------------------------------------------------------------------
set {
	reference rhf
	basis cc-pvtz
}

set_num_threads( 4 )
memory 2 gb

molecule MOL {
0 1

O	 -0.694481	 1.313155	 -0.204815
C	 -0.862519	 0.151932	 -0.046791
C	 -2.171428	 -0.477048	 0.339095
O	 0.085519	 -0.757083	 -0.192238
H	 -2.467997	 -1.191667	 -0.417688
H	 -2.923379	 0.287970	 0.444097
H	 -2.053854	 -1.015120	 1.270901
C	 0.573380	 -1.034384	 -1.499745
C	 1.665544	 -0.067198	 -1.906716
H	 -0.248270	 -1.009469	 -2.198377
H	 0.954839	 -2.042759	 -1.441255
H	 2.057603	 -0.349620	 -2.877273
H	 1.282443	 0.941699	 -1.975584
H	 2.479463	 -0.086385	 -1.192041

	symmetry c1
}
set optking {
	frozen_dihedral = ("
		8 4 2 1
	")
}

ee = optimize('scf')
oeprop('DIPOLE', 'QUADRUPOLE', 'MULLIKEN_CHARGES')
f=open( 'psi4out.xyz', 'w' )
f.write( "14  " )
f.write( str(ee) + "\n" )
f.write( MOL.save_string_xyz() )
f.close()
--------------------------------------------------------------------------

    Molecular point group: c1
  Charge       = 0
  Multiplicity = 1
  Basis Set: CC-PVTZ
  Basis Set:
  @DF-RHF Final Energy:  -305.97338841706522
    Total Energy =                       -305.9733884170652800
    Molecular point group: c1
  Basis Set: CC-PVTZ
  Basis Set:
  Basis Set: CC-PVTZ
  Basis Set:
  @DF-RHF Final Energy:  -305.97146978310002
    Total Energy =                       -305.9714697831003605
  Basis Set: CC-PVTZ
  Basis Set:
  Basis Set: CC-PVTZ
  Basis Set:
  @DF-RHF Final Energy:  -305.97443068286111
    Total Energy =                       -305.9744306828608842
  Basis Set: CC-PVTZ
  Basis Set:
  Basis Set: CC-PVTZ
  Basis Set:
  @DF-RHF Final Energy:  -305.97459888137183
    Total Energy =                       -305.9745988813719464
  Basis Set: CC-PVTZ
  Basis Set:
  @DF-RHF Final Energy:  -305.97461881137008
    Total Energy =                       -305.9746188113701351
  Basis Set: CC-PVTZ
  Basis Set:
  @DF-RHF Final Energy:  -305.97462833564816
    Total Energy =                       -305.9746283356481058
  Basis Set: CC-PVTZ
  Basis Set:
  Basis Set: CC-PVTZ
  Basis Set:
  @DF-RHF Final Energy:  -305.97463066810406
    Total Energy =                       -305.9746306681038277
  Basis Set: CC-PVTZ
  Basis Set:
  Basis Set: CC-PVTZ
  Basis Set:
  @DF-RHF Final Energy:  -305.97463181566661
    Total Energy =                       -305.9746318156664984
  Basis Set: CC-PVTZ
  Basis Set:
  Charge       = 0
  Multiplicity = 1
  Basis Set: CC-PVTZ
  Basis Set:

    Orbital Energies (a.u.)
    -----------------------

    Doubly Occupied:

       1A    -20.577250     2A    -20.543714     3A    -11.370510
       4A    -11.292615     5A    -11.234547     6A    -11.214411
       7A     -1.461667     8A     -1.368036     9A     -1.049569
      10A     -1.003606    11A     -0.879882    12A     -0.772361
      13A     -0.696052    14A     -0.684698    15A     -0.661485
      16A     -0.610701    17A     -0.586666    18A     -0.578850
      19A     -0.561810    20A     -0.537342    21A     -0.510383
      22A     -0.494461    23A     -0.452494    24A     -0.440158

  @DF-RHF Final Energy:  -305.97463188305136

   => Energetics <=

    Nuclear Repulsion Energy =            247.5957803868988663
    One-Electron Energy =                -907.9742915662582163
    Two-Electron Energy =                 354.4038792963078777
    DFT Exchange-Correlation Energy =       0.0000000000000000
    Empirical Dispersion Energy =           0.0000000000000000
    PCM Polarization Energy =               0.0000000000000000
    EFP Energy =                            0.0000000000000000
    Total Energy =                       -305.9746318830514156
    Molecular point group: c1
  Basis Set: CC-PVTZ
  Basis Set:

  -Total Gradient:
     Atom            X                  Y                   Z
    ------   -----------------  -----------------  -----------------
       1        0.001630548237     0.001183005379     0.006785850843
       2       -0.004124568421    -0.003898995204    -0.010376493874
       3       -0.000054049410     0.000074145740     0.000134479966
       4        0.006043635473     0.006802923540     0.003947309071
       5       -0.000018767934    -0.000014717136    -0.000018364265
       6        0.000012284685    -0.000007525637    -0.000010540011
       7        0.000005467124    -0.000009387856     0.000004472599
       8       -0.003418705109    -0.004160140402    -0.000460937676
       9        0.000007065434     0.000036487053    -0.000010570374
      10       -0.000039894995    -0.000007069499    -0.000015431989
      11       -0.000031791785     0.000026621304     0.000022366708
      12       -0.000002731489    -0.000013269460    -0.000009373504
      13        0.000011843503    -0.000016477006     0.000010161591
      14       -0.000020335311     0.000004399182    -0.000002929084

  **** Optimization is complete! (in 9 steps) ****
    Final optimized geometry and variables:
    Molecular point group: c1

    Geometry (in Angstrom), charge = 0, multiplicity = 1:

    O           -0.582985212497     1.445268878104     0.289011246761
    C           -0.689590433139     0.291905439950     0.504985034586
    C           -1.940555222697    -0.364235102974     1.015207370907
    O            0.339912643737    -0.564547030787     0.403211280535
    H           -2.262913147818    -1.123875470991     0.312564488220
    H           -2.718770794336     0.369026633056     1.152367521987
    H           -1.722146411209    -0.862477770832     1.951172150750
    C            0.839728774008    -0.852238065121    -0.898696569532
    C            2.000782513533     0.043498711880    -1.276607574424
    H            0.035383336884    -0.764243351803    -1.620614198746
    H            1.146070944255    -1.887307376249    -0.865032463780
    H            2.383065427834    -0.244567079818    -2.250197244335
    H            1.692569209641     1.078648329304    -1.314024569942
    H            2.799691956741    -0.052160918495    -0.552006287300

  Mulliken Charges: (a.u.)
   Center  Symbol    Alpha    Beta     Spin     Total
       1     O     4.17691  4.17691  0.00000 -0.35382
       2     C     2.80830  2.80830  0.00000  0.38340
       3     C     3.13397  3.13397  0.00000 -0.26795
       4     O     4.17326  4.17326  0.00000 -0.34653
       5     H     0.45072  0.45072  0.00000  0.09855
       6     H     0.43810  0.43810  0.00000  0.12380
       7     H     0.44293  0.44293  0.00000  0.11414
       8     C     2.98090  2.98090  0.00000  0.03820
       9     C     3.13516  3.13516  0.00000 -0.27032
      10     H     0.46551  0.46551  0.00000  0.06898
      11     H     0.44491  0.44491  0.00000  0.11017
      12     H     0.45566  0.45566  0.00000  0.08869
      13     H     0.44197  0.44197  0.00000  0.11606
      14     H     0.45169  0.45169  0.00000  0.09662

   Total alpha = 24.00000, Total beta = 24.00000, Total charge =  0.00000
