  ==> Input File <==

--------------------------------------------------------------------------
set {
	reference rhf
	basis 6-31G*
}

set_num_threads( 4 )
memory 2 gb

molecule MOL {
0 1

O	 -2.821601	 1.309235	 -0.001213
C	 -2.668563	 0.129746	 -0.000350
C	 -3.801572	 -0.864014	 -0.000442
O	 -1.481751	 -0.454642	 0.000584
H	 -4.417280	 -0.689587	 -0.874708
H	 -3.443784	 -1.883046	 -0.000565
H	 -4.417179	 -0.689832	 0.873954
C	 -0.334255	 0.388708	 0.000906
C	 0.891947	 -0.504646	 0.000751
H	 -0.365390	 1.025305	 -0.873475
H	 -0.365484	 1.024911	 0.875569
C	 2.191998	 0.301789	 0.000897
H	 0.855148	 -1.151283	 -0.871571
H	 0.855132	 -1.151660	 0.872805
C	 2.076957	 1.617886	 -0.770452
H	 2.488908	 0.513100	 1.026703
H	 2.991765	 -0.297311	 -0.431000
C	 3.375084	 2.423944	 -0.769140
H	 1.278429	 2.217961	 -0.339943
H	 1.782569	 1.408428	 -1.796382
H	 3.677923	 2.678174	 0.242626
H	 3.262132	 3.350573	 -1.323068
H	 4.185749	 1.862715	 -1.225049

	symmetry c1
}
set optking {
	frozen_dihedral = ("
		16 12 9 13
	")
}

ee = optimize('scf')
oeprop('DIPOLE', 'QUADRUPOLE', 'MULLIKEN_CHARGES')
f=open( 'psi4out.xyz', 'w' )
f.write( "23  " )
f.write( str(ee) + "\n" )
f.write( MOL.save_string_xyz() )
f.close()
--------------------------------------------------------------------------

    Molecular point group: c1
  Charge       = 0
  Multiplicity = 1
  Basis Set: 6-31G*
  Basis Set:
  @DF-RHF Final Energy:  -422.97200440531680
    Total Energy =                       -422.9720044053160564
    Molecular point group: c1
  Basis Set: 6-31G*
  Basis Set:
  Basis Set: 6-31G*
  Basis Set:
  @DF-RHF Final Energy:  -422.97340621639898
    Total Energy =                       -422.9734062163989847
  Basis Set: 6-31G*
  Basis Set:
  Basis Set: 6-31G*
  Basis Set:
  @DF-RHF Final Energy:  -422.97491244762512
    Total Energy =                       -422.9749124476253428
  Basis Set: 6-31G*
  Basis Set:
  Basis Set: 6-31G*
  Basis Set:
  @DF-RHF Final Energy:  -422.97505445710749
    Total Energy =                       -422.9750544571086266
  Basis Set: 6-31G*
  Basis Set:
  @DF-RHF Final Energy:  -422.97485819740700
    Total Energy =                       -422.9748581974070021
  @DF-RHF Final Energy:  -422.97501167525621
    Total Energy =                       -422.9750116752557005
  Basis Set: 6-31G*
  Basis Set:
  @DF-RHF Final Energy:  -422.97507738250124
    Total Energy =                       -422.9750773825019223
  Basis Set: 6-31G*
  Basis Set:
  Basis Set: 6-31G*
  Basis Set:
  @DF-RHF Final Energy:  -422.97507864381765
    Total Energy =                       -422.9750786438181649
  Basis Set: 6-31G*
  Basis Set:
  Basis Set: 6-31G*
  Basis Set:
  @DF-RHF Final Energy:  -422.97508013028073
    Total Energy =                       -422.9750801302811851
  Basis Set: 6-31G*
  Basis Set:
  Charge       = 0
  Multiplicity = 1
  Basis Set: 6-31G*
  Basis Set:

    Orbital Energies (a.u.)
    -----------------------

    Doubly Occupied:

       1A    -20.602838     2A    -20.540444     3A    -11.373984
       4A    -11.281183     5A    -11.232299     6A    -11.224266
       7A    -11.223649     8A    -11.222323     9A    -11.213175
      10A     -1.467808    11A     -1.360625    12A     -1.092896
      13A     -1.040272    14A     -1.002246    15A     -0.931903
      16A     -0.852987    17A     -0.789107    18A     -0.778981
      19A     -0.689917    20A     -0.684633    21A     -0.668265
      22A     -0.640158    23A     -0.607663    24A     -0.588362
      25A     -0.578375    26A     -0.571987    27A     -0.564447
      28A     -0.528903    29A     -0.525308    30A     -0.512595
      31A     -0.496618    32A     -0.474866    33A     -0.464240
      34A     -0.462139    35A     -0.449489    36A     -0.435693

  @DF-RHF Final Energy:  -422.97508016754051

   => Energetics <=

    Nuclear Repulsion Energy =            456.7376585151312725
    One-Electron Energy =               -1481.0761876181800289
    Two-Electron Energy =                 601.3634489355079040
    DFT Exchange-Correlation Energy =       0.0000000000000000
    Empirical Dispersion Energy =           0.0000000000000000
    PCM Polarization Energy =               0.0000000000000000
    EFP Energy =                            0.0000000000000000
    Total Energy =                       -422.9750801675409093
    Molecular point group: c1
  Basis Set: 6-31G*
  Basis Set:

  -Total Gradient:
     Atom            X                  Y                   Z
    ------   -----------------  -----------------  -----------------
       1        0.000001009203    -0.000001109328     0.000013236605
       2       -0.000001563092    -0.000000700747    -0.000019462771
       3        0.000000495253     0.000000160309     0.000011880844
       4       -0.000002807730     0.000003071680     0.000014194437
       5        0.000001532703    -0.000001391846    -0.000003161630
       6       -0.000000150250    -0.000000163220    -0.000000352513
       7       -0.000002046928     0.000001300665    -0.000003076836
       8        0.000003123634    -0.000000408062    -0.000050317884
       9       -0.002133258347     0.003902138391    -0.003445250569
      10        0.000002263086    -0.000000252650     0.000005339026
      11        0.000000971656     0.000000908424     0.000004846878
      12       -0.002860723491     0.004639789039     0.000465349745
      13        0.002232742534    -0.003993019918     0.002819186957
      14        0.000004009176    -0.000004264713     0.000000937666
      15       -0.000016004014     0.000016747303     0.000033946330
      16        0.002763205746    -0.004555861335     0.000146178089
      17        0.000009032297    -0.000004332095     0.000005600253
      18        0.000005226283    -0.000006982042    -0.000011959615
      19       -0.000005072380     0.000002895219     0.000005743126
      20       -0.000003604569     0.000000150667     0.000005960252
      21       -0.000003556182     0.000004671817    -0.000000423683
      22        0.000003080560    -0.000001654558    -0.000005749837
      23        0.000002094859    -0.000001693000     0.000007355131

  **** Optimization is complete! (in 10 steps) ****
    Final optimized geometry and variables:
    Molecular point group: c1

    Geometry (in Angstrom), charge = 0, multiplicity = 1:

    O           -2.640264598422     0.740693358120     0.207411690231
    C           -2.424526655190    -0.429009398826     0.203466397186
    C           -3.502524302179    -1.481514370850     0.241695664726
    O           -1.209069960129    -0.949684442604     0.165821273661
    H           -4.156562372463    -1.340786665920    -0.610521911798
    H           -3.091362316719    -2.480117624434     0.228293294765
    H           -4.095832599984    -1.339469606474     1.137076532196
    C           -0.108688600690    -0.045688574097     0.124899723595
    C            1.154585239505    -0.884989536749     0.080189279849
    H           -0.214589612571     0.589980643134    -0.742042891749
    H           -0.138673814474     0.583839478006     1.005029458900
    C            2.466732497547    -0.086010567807     0.172057883154
    H            1.155622914070    -1.510214810658    -0.807984670484
    H            1.118003514620    -1.580845783241     0.913756810317
    C            2.521120452487     1.220043056888    -0.624337093263
    H            2.709175825854     0.096165311152     1.216800709785
    H            3.264301467197    -0.735017541888    -0.183211592655
    C            3.902297500651     1.872452869541    -0.575103392726
    H            1.784945833245     1.923657744606    -0.244907744914
    H            2.252712728962     1.023399689685    -1.660412020424
    H            4.189306167255     2.103809631111     0.446738361227
    H            3.918934944331     2.798495429995    -1.140918382649
    H            4.661320019267     1.215942218814    -0.990733330005

  Mulliken Charges: (a.u.)
   Center  Symbol    Alpha    Beta     Spin     Total
       1     O     4.28405  4.28405  0.00000 -0.56809
       2     C     2.61539  2.61539  0.00000  0.76923
       3     C     3.28779  3.28779  0.00000 -0.57557
       4     O     4.31305  4.31305  0.00000 -0.62610
       5     H     0.39753  0.39753  0.00000  0.20493
       6     H     0.39987  0.39987  0.00000  0.20027
       7     H     0.39753  0.39753  0.00000  0.20494
       8     C     2.99873  2.99873  0.00000  0.00254
       9     C     3.16655  3.16655  0.00000 -0.33309
      10     H     0.40805  0.40805  0.00000  0.18390
      11     H     0.41105  0.41105  0.00000  0.17789
      12     C     3.15945  3.15945  0.00000 -0.31890
      13     H     0.41404  0.41404  0.00000  0.17192
      14     H     0.41234  0.41234  0.00000  0.17531
      15     C     3.15923  3.15923  0.00000 -0.31846
      16     H     0.41954  0.41954  0.00000  0.16093
      17     H     0.41841  0.41841  0.00000  0.16318
      18     C     3.23945  3.23945  0.00000 -0.47890
      19     H     0.41841  0.41841  0.00000  0.16318
      20     H     0.42080  0.42080  0.00000  0.15839
      21     H     0.42056  0.42056  0.00000  0.15888
      22     H     0.41722  0.41722  0.00000  0.16556
      23     H     0.42097  0.42097  0.00000  0.15806

   Total alpha = 36.00000, Total beta = 36.00000, Total charge = -0.00000
