  ==> Input File <==

--------------------------------------------------------------------------
set {
	reference rhf
	basis 6-31G*
}

set_num_threads( 4 )
memory 2 gb

molecule MOL {
0 1

H	 3.278464	 0.170978	 -0.056473
N	 2.434251	 -0.367735	 -0.081097
C	 1.267428	 0.496480	 0.024474
H	 2.472846	 -1.001868	 0.694338
C	 -0.016086	 -0.325158	 -0.029487
H	 1.288818	 1.183521	 -0.816092
H	 1.267576	 1.109062	 0.929528
C	 -1.282277	 0.529072	 0.046735
H	 -0.012495	 -0.908639	 -0.945788
H	 -0.015903	 -1.041248	 0.791956
C	 -2.563920	 -0.301775	 -0.006060
H	 -1.284084	 1.244622	 -0.773004
H	 -1.271387	 1.115393	 0.963286
H	 -2.621848	 -0.873522	 -0.927727
H	 -3.445135	 0.329952	 0.047812
H	 -2.609542	 -1.004582	 0.821105

	symmetry c1
}
set optking {
	frozen_dihedral = ("
		1 2 3 6
	")
}

ee = optimize('scf')
oeprop('DIPOLE', 'QUADRUPOLE', 'MULLIKEN_CHARGES')
f=open( 'psi4out.xyz', 'w' )
f.write( "16  " )
f.write( str(ee) + "\n" )
f.write( MOL.save_string_xyz() )
f.close()
--------------------------------------------------------------------------

    Molecular point group: c1
  Charge       = 0
  Multiplicity = 1
  Basis Set: 6-31G*
  Basis Set:
  @DF-RHF Final Energy:  -212.31699377071681
    Total Energy =                       -212.3169937707168629
    Molecular point group: c1
  Basis Set: 6-31G*
  Basis Set:
  Basis Set: 6-31G*
  Basis Set:
  @DF-RHF Final Energy:  -212.31699645491560
    Total Energy =                       -212.3169964549153974
  Basis Set: 6-31G*
  Basis Set:
  Basis Set: 6-31G*
  Basis Set:
  @DF-RHF Final Energy:  -212.31699751916466
    Total Energy =                       -212.3169975191646017
  Basis Set: 6-31G*
  Basis Set:
  Charge       = 0
  Multiplicity = 1
  Basis Set: 6-31G*
  Basis Set:

    Orbital Energies (a.u.)
    -----------------------

    Doubly Occupied:

       1A    -15.532740     2A    -11.239883     3A    -11.215369
       4A    -11.210227     5A    -11.208140     6A     -1.176924
       7A     -1.059781     8A     -0.958824     9A     -0.843837
      10A     -0.792442    11A     -0.662955    12A     -0.638337
      13A     -0.605333    14A     -0.575200    15A     -0.565511
      16A     -0.524877    17A     -0.501101    18A     -0.470386
      19A     -0.465022    20A     -0.461443    21A     -0.381699

  @DF-RHF Final Energy:  -212.31699790223169

   => Energetics <=

    Nuclear Repulsion Energy =            186.2834677220733113
    One-Electron Energy =                -655.0208659533212767
    Two-Electron Energy =                 256.4204003290161040
    DFT Exchange-Correlation Energy =       0.0000000000000000
    Empirical Dispersion Energy =           0.0000000000000000
    PCM Polarization Energy =               0.0000000000000000
    EFP Energy =                            0.0000000000000000
    Total Energy =                       -212.3169979022318898
    Molecular point group: c1
  Basis Set: 6-31G*
  Basis Set:

  -Total Gradient:
     Atom            X                  Y                   Z
    ------   -----------------  -----------------  -----------------
       1        0.000027015012    -0.000051643388     0.000519143176
       2       -0.000101002331    -0.000000663927    -0.000690286205
       3        0.000345908227     0.000355702784     0.000387776191
       4        0.000014218232    -0.000000534581     0.000011688552
       5       -0.000000572224     0.000008179801     0.000000430660
       6       -0.000258354569    -0.000291604809    -0.000260427118
       7       -0.000007642874    -0.000015050857     0.000007378960
       8       -0.000008955442    -0.000004506931     0.000014796182
       9        0.000003726519     0.000006798122    -0.000001111140
      10       -0.000009510932    -0.000007130177     0.000007822722
      11       -0.000000499400     0.000004248509    -0.000005468102
      12        0.000002163983    -0.000006599890     0.000006665155
      13       -0.000005253655     0.000001555967     0.000004960769
      14        0.000001044832    -0.000003838862    -0.000000098584
      15       -0.000002282215     0.000000635895    -0.000004605065
      16       -0.000000003160     0.000004452347     0.000001333849

  **** Optimization is complete! (in 4 steps) ****
    Final optimized geometry and variables:
    Molecular point group: c1

    Geometry (in Angstrom), charge = 0, multiplicity = 1:

    H            3.278204324005     0.171226792506    -0.064640772215
    N            2.433993606786    -0.368011060896    -0.085183593458
    C            1.268064778872     0.496973573259     0.026022962750
    H            2.477273258367    -0.996958734180     0.694448412796
    C           -0.015633753736    -0.324728508537    -0.026660181639
    H            1.285330856149     1.184124883452    -0.814547016112
    H            1.270427772761     1.107095482389     0.932618957011
    C           -1.281733753789     0.529847300128     0.047362462562
    H           -0.012140938019    -0.909559402992    -0.942104325219
    H           -0.016376261033    -1.039395398736     0.796114739654
    C           -2.563490410145    -0.300662434853    -0.008311386082
    H           -1.281612688014     1.245596912773    -0.772069078212
    H           -1.272464031928     1.115745970994     0.964196644083
    H           -2.619320442717    -0.872765519929    -0.929910244755
    H           -3.444587939285     0.331490100948     0.043029042788
    H           -2.611549917935    -1.003083909499     0.819047103387

  Mulliken Charges: (a.u.)
   Center  Symbol    Alpha    Beta     Spin     Total
       1     H     0.33268  0.33268  0.00000  0.33463
       2     N     3.92144  3.92144  0.00000 -0.84287
       3     C     3.05979  3.05979  0.00000 -0.11958
       4     H     0.33559  0.33559  0.00000  0.32881
       5     C     3.15150  3.15150  0.00000 -0.30300
       6     H     0.42066  0.42066  0.00000  0.15869
       7     H     0.43486  0.43486  0.00000  0.13028
       8     C     3.15544  3.15544  0.00000 -0.31088
       9     H     0.41318  0.41318  0.00000  0.17365
      10     H     0.42806  0.42806  0.00000  0.14389
      11     C     3.23873  3.23873  0.00000 -0.47747
      12     H     0.42236  0.42236  0.00000  0.15528
      13     H     0.42371  0.42371  0.00000  0.15258
      14     H     0.42049  0.42049  0.00000  0.15901
      15     H     0.41955  0.41955  0.00000  0.16090
      16     H     0.42196  0.42196  0.00000  0.15607

   Total alpha = 21.00000, Total beta = 21.00000, Total charge =  0.00000
