  ==> Input File <==

--------------------------------------------------------------------------
set {
	reference rhf
	basis 6-31G*
}

set_num_threads( 4 )
memory 2 gb

molecule MOL {
0 1

H	 2.176868	 -0.646004	 -0.217325
O	 1.337496	 -0.537251	 0.205931
C	 0.702312	 0.627605	 -0.264544
C	 -0.714990	 0.596302	 0.266387
H	 0.682322	 0.642550	 -1.350929
H	 1.215941	 1.520383	 0.085680
O	 -1.405996	 -0.526611	 -0.195820
H	 -1.257453	 1.468809	 -0.075599
H	 -0.688972	 0.618407	 1.353696
H	 -2.235027	 -0.230245	 -0.549216

	symmetry c1
}
set optking {
	frozen_dihedral = ("
		10 7 4 3
	")
}

ee = optimize('scf')
oeprop('DIPOLE', 'QUADRUPOLE', 'MULLIKEN_CHARGES')
f=open( 'psi4out.xyz', 'w' )
f.write( "10  " )
f.write( str(ee) + "\n" )
f.write( MOL.save_string_xyz() )
f.close()
--------------------------------------------------------------------------

    Molecular point group: c1
  Charge       = 0
  Multiplicity = 1
  Basis Set: 6-31G*
  Basis Set:
  @DF-RHF Final Energy:  -228.91526262430355
    Total Energy =                       -228.9152626243035229
    Molecular point group: c1
  Basis Set: 6-31G*
  Basis Set:
  Basis Set: 6-31G*
  Basis Set:
  @DF-RHF Final Energy:  -228.91684883041049
    Total Energy =                       -228.9168488304104585
  Basis Set: 6-31G*
  Basis Set:
  Basis Set: 6-31G*
  Basis Set:
  @DF-RHF Final Energy:  -228.91705161942110
    Total Energy =                       -228.9170516194211302
  Basis Set: 6-31G*
  Basis Set:
  Basis Set: 6-31G*
  Basis Set:
  @DF-RHF Final Energy:  -228.91706827866250
    Total Energy =                       -228.9170682786623843
  Basis Set: 6-31G*
  Basis Set:
  Basis Set: 6-31G*
  Basis Set:
  @DF-RHF Final Energy:  -228.91707011654526
    Total Energy =                       -228.9170701165452328
  Basis Set: 6-31G*
  Basis Set:
  Charge       = 0
  Multiplicity = 1
  Basis Set: 6-31G*
  Basis Set:

    Orbital Energies (a.u.)
    -----------------------

    Doubly Occupied:

       1A    -20.552169     2A    -20.551533     3A    -11.270511
       4A    -11.269349     5A     -1.369866     6A     -1.349839
       7A     -1.001510     8A     -0.833343     9A     -0.720886
      10A     -0.691129    11A     -0.635013    12A     -0.594048
      13A     -0.576491    14A     -0.515234    15A     -0.490189
      16A     -0.442791    17A     -0.429461

  @DF-RHF Final Energy:  -228.91707049069817

   => Energetics <=

    Nuclear Repulsion Energy =            133.2117391490918408
    One-Electron Energy =                -577.6708965884456575
    Two-Electron Energy =                 215.5420869486556512
    DFT Exchange-Correlation Energy =       0.0000000000000000
    Empirical Dispersion Energy =           0.0000000000000000
    PCM Polarization Energy =               0.0000000000000000
    EFP Energy =                            0.0000000000000000
    Total Energy =                       -228.9170704906981655
    Molecular point group: c1
  Basis Set: 6-31G*
  Basis Set:

  -Total Gradient:
     Atom            X                  Y                   Z
    ------   -----------------  -----------------  -----------------
       1       -0.000003086707     0.000016082847     0.000000349740
       2       -0.000023013631    -0.000013934095     0.000006054338
       3       -0.000084650629     0.000306787363    -0.000434081249
       4        0.000307868977    -0.000375717034     0.000435532407
       5       -0.000000106804     0.000000473179    -0.000013773027
       6       -0.000014929848    -0.000002774576    -0.000014371697
       7       -0.000536466347    -0.000022145252     0.000804624087
       8       -0.000006044276    -0.000009301933     0.000008713744
       9       -0.000009141926    -0.000007255128     0.000002155162
      10        0.000369571191     0.000107784628    -0.000795203504

  **** Optimization is complete! (in 6 steps) ****
    Final optimized geometry and variables:
    Molecular point group: c1

    Geometry (in Angstrom), charge = 0, multiplicity = 1:

    H            2.228659719993    -0.634317000069    -0.184332861674
    O            1.411212663003    -0.516096727384     0.277187570938
    C            0.712229488034     0.568527502366    -0.266071321384
    C           -0.698869155375     0.558686579055     0.278882837382
    H            0.671282952205     0.508960174166    -1.350806444200
    H            1.189818800478     1.509798261242     0.005893800511
    O           -1.421540381536    -0.527620612015    -0.240774335478
    H           -1.174195845852     1.502448676312     0.021376957807
    H           -0.660249367605     0.488018163530     1.360924186152
    H           -2.250487063587    -0.231901649241    -0.583504635953

  Mulliken Charges: (a.u.)
   Center  Symbol    Alpha    Beta     Spin     Total
       1     H     0.27982  0.27982  0.00000  0.44035
       2     O     4.36520  4.36520  0.00000 -0.73040
       3     C     2.99612  2.99612  0.00000  0.00776
       4     C     3.00233  3.00233  0.00000 -0.00466
       5     H     0.42803  0.42803  0.00000  0.14394
       6     H     0.43385  0.43385  0.00000  0.13229
       7     O     4.36688  4.36688  0.00000 -0.73376
       8     H     0.43268  0.43268  0.00000  0.13463
       9     H     0.41515  0.41515  0.00000  0.16970
      10     H     0.27993  0.27993  0.00000  0.44014

   Total alpha = 17.00000, Total beta = 17.00000, Total charge = -0.00000
