  ==> Input File <==

--------------------------------------------------------------------------
set {
	reference rhf
	basis cc-pvtz
}

set_num_threads( 4 )
memory 2 gb

molecule MOL {
0 1

H	 -0.890513	 2.406703	 0.396520
C	 -0.775000	 1.356832	 0.228108
C	 -1.901098	 0.499056	 0.015321
C	 0.438484	 0.799917	 0.209820
H	 -2.890702	 0.915907	 0.024049
C	 -1.728683	 -0.809949	 -0.192901
H	 1.329389	 1.376566	 0.361162
N	 0.640204	 -0.530428	 -0.000115
H	 -2.546891	 -1.480817	 -0.355479
C	 -0.404154	 -1.413670	 -0.212317
C	 2.006991	 -1.033007	 -0.000020
O	 -0.208720	 -2.584262	 -0.396060
H	 2.182444	 -1.636914	 -0.880881
H	 2.678769	 -0.195442	 -0.002236
H	 2.183828	 -1.633244	 0.883082

	symmetry c1
}
set optking {
	frozen_dihedral = ("
		10 8 11 13
	")
}

ee = optimize('scf')
oeprop('DIPOLE', 'QUADRUPOLE', 'MULLIKEN_CHARGES')
f=open( 'psi4out.xyz', 'w' )
f.write( "15  " )
f.write( str(ee) + "\n" )
f.write( MOL.save_string_xyz() )
f.close()
--------------------------------------------------------------------------

    Molecular point group: c1
  Charge       = 0
  Multiplicity = 1
  Basis Set: CC-PVTZ
  Basis Set:
  @DF-RHF Final Energy:  -360.72290751914147
    Total Energy =                       -360.7229075191411880
    Molecular point group: c1
  Basis Set: CC-PVTZ
  Basis Set:
  Basis Set: CC-PVTZ
  Basis Set:
  @DF-RHF Final Energy:  -360.72350116701506
    Total Energy =                       -360.7235011670146605
  Basis Set: CC-PVTZ
  Basis Set:
  Basis Set: CC-PVTZ
  Basis Set:
  @DF-RHF Final Energy:  -360.72355766948323
    Total Energy =                       -360.7235576694837391
  Basis Set: CC-PVTZ
  Basis Set:
  Basis Set: CC-PVTZ
  Basis Set:
  @DF-RHF Final Energy:  -360.72354487293705
    Total Energy =                       -360.7235448729368272
  Basis Set: CC-PVTZ
  Basis Set:
  Charge       = 0
  Multiplicity = 1
  Basis Set: CC-PVTZ
  Basis Set:

    Orbital Energies (a.u.)
    -----------------------

    Doubly Occupied:

       1A    -20.502015     2A    -15.617850     3A    -11.337599
       4A    -11.294644     5A    -11.266015     6A    -11.258160
       7A    -11.229462     8A    -11.227769     9A     -1.391380
      10A     -1.285933    11A     -1.118833    12A     -1.029359
      13A     -0.972638    14A     -0.876629    15A     -0.839001
      16A     -0.719680    17A     -0.702023    18A     -0.664054
      19A     -0.653273    20A     -0.626350    21A     -0.611951
      22A     -0.575478    23A     -0.552076    24A     -0.551062
      25A     -0.531439    26A     -0.484878    27A     -0.420477
      28A     -0.410691    29A     -0.310028

  @DF-RHF Final Energy:  -360.72356286984780

   => Energetics <=

    Nuclear Repulsion Energy =            358.8928662437652974
    One-Electron Energy =               -1201.1113632962822066
    Two-Electron Energy =                 481.4949341826692262
    DFT Exchange-Correlation Energy =       0.0000000000000000
    Empirical Dispersion Energy =           0.0000000000000000
    PCM Polarization Energy =               0.0000000000000000
    EFP Energy =                            0.0000000000000000
    Total Energy =                       -360.7235628698476830
    Molecular point group: c1
  Basis Set: CC-PVTZ
  Basis Set:

  -Total Gradient:
     Atom            X                  Y                   Z
    ------   -----------------  -----------------  -----------------
       1       -0.000012929123     0.000009586016     0.000008056539
       2        0.000189358683    -0.000079770337     0.000015968744
       3       -0.000117013551    -0.000140006262    -0.000031253593
       4       -0.000160188943     0.000222417272    -0.000012457335
       5        0.000014555490     0.000021442150     0.000004638416
       6       -0.000149657015     0.000119449894     0.000029945233
       7        0.000034025450    -0.000048379979     0.000004684245
       8       -0.000136948879    -0.000429053087     0.000731297899
       9        0.000010501358    -0.000014473277    -0.000005480566
      10        0.000317129361     0.000266506301    -0.000501799011
      11        0.000206060379     0.000579321056    -0.000583222995
      12       -0.000055234336    -0.000080944043     0.000027204359
      13       -0.000178082960    -0.000469392400     0.000313389021
      14        0.000025898601     0.000045244018     0.000009725118
      15        0.000012525482    -0.000001947321    -0.000010696073

  **** Optimization is complete! (in 5 steps) ****
    Final optimized geometry and variables:
    Molecular point group: c1

    Geometry (in Angstrom), charge = 0, multiplicity = 1:

    H           -0.730348392046     2.919786402710     0.445229885913
    C           -0.603683452910     1.871298997403     0.276294221151
    C           -1.720106050966     1.003734283768     0.059347954484
    C            0.618228865482     1.329155757402     0.258307675292
    H           -2.713097975245     1.412566939272     0.065535795544
    C           -1.536824137765    -0.304666624539    -0.150285564817
    H            1.500442967502     1.917103109180     0.410800187210
    N            0.829203612108     0.002774962828     0.045733069369
    H           -2.348503094356    -0.982982942339    -0.315289967070
    C           -0.206350181678    -0.889841765713    -0.160035771173
    C            2.178103772237    -0.541756983420     0.040060750107
    O            0.022073981003    -2.057070486242    -0.328268116701
    H            2.322534112368    -1.151487862263    -0.837145900537
    H            2.886851634312     0.272023636605     0.041651598502
    H            2.339733066961    -1.163508475162     0.909527720482

  Mulliken Charges: (a.u.)
   Center  Symbol    Alpha    Beta     Spin     Total
       1     H     0.41401  0.41401  0.00000  0.17198
       2     C     3.10688  3.10688  0.00000 -0.21377
       3     C     3.05933  3.05933  0.00000 -0.11866
       4     C     3.03882  3.03882  0.00000 -0.07763
       5     H     0.41843  0.41843  0.00000  0.16314
       6     C     3.11841  3.11841  0.00000 -0.23682
       7     H     0.41903  0.41903  0.00000  0.16195
       8     N     3.50847  3.50847  0.00000 -0.01695
       9     H     0.40935  0.40935  0.00000  0.18129
      10     C     2.84565  2.84565  0.00000  0.30871
      11     C     3.09216  3.09216  0.00000 -0.18433
      12     O     4.23565  4.23565  0.00000 -0.47131
      13     H     0.43578  0.43578  0.00000  0.12845
      14     H     0.45530  0.45530  0.00000  0.08939
      15     H     0.44272  0.44272  0.00000  0.11456

   Total alpha = 29.00000, Total beta = 29.00000, Total charge = -0.00000
