                              Psi4 1.0.54 Driver

  ==> Input File <==

--------------------------------------------------------------------------
set {
	reference rhf
	basis cc-pvtz
}

set_num_threads( 4 )
memory 2 gb

molecule MOL {
0 1

H	 1.515524	 0.110072	 -1.957239
O	 0.691481	 -0.009032	 -1.523173
C	 0.700177	 0.619554	 -0.266242
C	 -0.713111	 0.588314	 0.266177
H	 1.031426	 1.649721	 -0.355433
H	 1.361193	 0.100413	 0.422908
O	 -1.421673	 -0.521378	 -0.196983
H	 -1.244794	 1.469161	 -0.069059
H	 -0.685100	 0.604721	 1.352683
H	 -0.933408	 -1.297830	 0.014544

	symmetry c1
}
set optking {
	frozen_dihedral = ("
		5 3 4 7
	")
}

ee,wfn = optimize('scf', return_wfn=True)
oeprop( wfn, 'DIPOLE', 'QUADRUPOLE', 'MULLIKEN_CHARGES')
f=open( 'psi4out.xyz', 'w' )
f.write( "10  " )
f.write( str(ee) + "\n" )
f.write( MOL.save_string_xyz() )
f.close()
--------------------------------------------------------------------------

    Molecular point group: c1
  Charge       = 0
  Multiplicity = 1
  Basis Set: CC-PVTZ
  Basis Set:
  @DF-RHF Final Energy:  -229.01701240931840
    Total Energy =                       -229.0170124093183404
    Molecular point group: c1
  Basis Set: CC-PVTZ
  Basis Set:
  Basis Set: CC-PVTZ
  Basis Set:
  @DF-RHF Final Energy:  -229.01810917872260
    Total Energy =                       -229.0181091787225114
  Basis Set: CC-PVTZ
  Basis Set:
  Basis Set: CC-PVTZ
  Basis Set:
  @DF-RHF Final Energy:  -229.01877769930229
    Total Energy =                       -229.0187776993023760
  Basis Set: CC-PVTZ
  Basis Set:
  Basis Set: CC-PVTZ
  Basis Set:
  @DF-RHF Final Energy:  -229.01904518070546
    Total Energy =                       -229.0190451807053478
  Basis Set: CC-PVTZ
  Basis Set:
  @DF-RHF Final Energy:  -229.01878833976241
    Total Energy =                       -229.0187883397624091
  @DF-RHF Final Energy:  -229.01823710134809
    Total Energy =                       -229.0182371013480065
  @DF-RHF Final Energy:  -229.01944237911451
    Total Energy =                       -229.0194423791144231
  @DF-RHF Final Energy:  -229.01893375183462
    Total Energy =                       -229.0189337518345667
  @DF-RHF Final Energy:  -229.01991206974793
    Total Energy =                       -229.0199120697479316
  @DF-RHF Final Energy:  -229.02097526873990
    Total Energy =                       -229.0209752687400169
  @DF-RHF Final Energy:  -229.02178036494252
    Total Energy =                       -229.0217803649424013
  @DF-RHF Final Energy:  -229.01979379478669
    Total Energy =                       -229.0197937947866080
  @DF-RHF Final Energy:  -229.00415612558143
    Total Energy =                       -229.0041561255813747
  @DF-RHF Final Energy:  -229.02248550718133
    Total Energy =                       -229.0224855071814147
  @DF-RHF Final Energy:  -229.02312577322249
    Total Energy =                       -229.0231257732224606
  @DF-RHF Final Energy:  -229.02345917574962
    Total Energy =                       -229.0234591757495082
  Basis Set: CC-PVTZ
  Basis Set:
  @DF-RHF Final Energy:  -229.02359811251779
    Total Energy =                       -229.0235981125176750
  Basis Set: CC-PVTZ
  Basis Set:
  Basis Set: CC-PVTZ
  Basis Set:
  @DF-RHF Final Energy:  -229.02361378193430
    Total Energy =                       -229.0236137819343298
  Basis Set: CC-PVTZ
  Basis Set:
  Basis Set: CC-PVTZ
  Basis Set:
  @DF-RHF Final Energy:  -229.02361651164858
    Total Energy =                       -229.0236165116485836
  Basis Set: CC-PVTZ
  Basis Set:
  Charge       = 0
  Multiplicity = 1
  Basis Set: CC-PVTZ
  Basis Set:

    Orbital Energies (a.u.)
    -----------------------

    Doubly Occupied:

       1A    -20.564380     2A    -20.536124     3A    -11.278589
       4A    -11.267306     5A     -1.389426     6A     -1.350754
       7A     -1.000591     8A     -0.846957     9A     -0.728414
      10A     -0.682919    11A     -0.658812    12A     -0.596589
      13A     -0.581145    14A     -0.539238    15A     -0.488316
      16A     -0.463110    17A     -0.426469

  @DF-RHF Final Energy:  -229.02361751137718

   => Energetics <=

    Nuclear Repulsion Energy =            135.1997500305775191
    One-Electron Energy =                -581.6484563234871530
    Two-Electron Energy =                 217.4250887815324802
    DFT Exchange-Correlation Energy =       0.0000000000000000
    Empirical Dispersion Energy =           0.0000000000000000
    PCM Polarization Energy =               0.0000000000000000
    EFP Energy =                            0.0000000000000000
    Total Energy =                       -229.0236175113771253
    Molecular point group: c1
  Basis Set: CC-PVTZ
  Basis Set:

  -Total Gradient:
     Atom            X                  Y                   Z
    ------   -----------------  -----------------  -----------------
       1       -0.000008283228     0.000061901732    -0.000025481574
       2       -0.000017230317    -0.000098651987    -0.000049435985
       3        0.002863084934     0.002514321968     0.007060584197
       4        0.002583493100    -0.003176880625     0.005884565608
       5       -0.002954775697    -0.001393759263    -0.007309028325
       6        0.000013284218     0.000014918281     0.000026942930
       7       -0.002462957843     0.002110111929    -0.005560684812
       8        0.000015257808     0.000046389214    -0.000005781922
       9       -0.000012705604    -0.000006513918    -0.000023337880
      10       -0.000019167370    -0.000071837332     0.000001657765

  **** Optimization is complete! (in 19 steps) ****
    Final optimized geometry and variables:
    Molecular point group: c1

    Geometry (in Angstrom), charge = 0, multiplicity = 1:

    H            1.706683329888    -0.188977468408    -1.480774906349
    O            0.856145365936    -0.206391514381    -1.083947526787
    C            0.843675095776     0.571635196019     0.090923945815
    C           -0.565110511453     0.486381594546     0.682882046386
    H            1.048698225675     1.601029476518    -0.183481052637
    H            1.591002761589     0.212949630549     0.789783903623
    O           -1.174370519119    -0.744945250404     0.457171418570
    H           -1.172266707407     1.278160816604     0.250388706325
    H           -0.524231076868     0.652904243050     1.751011982774
    H           -0.916243204426    -1.055286542821    -0.393112339667

  Mulliken Charges: (a.u.)
   Center  Symbol    Alpha    Beta     Spin     Total
       1     H     0.39328  0.39328  0.00000  0.21343
       2     O     4.20452  4.20452  0.00000 -0.40904
       3     C     2.97133  2.97133  0.00000  0.05735
       4     C     2.95740  2.95740  0.00000  0.08520
       5     H     0.47078  0.47078  0.00000  0.05843
       6     H     0.47079  0.47079  0.00000  0.05843
       7     O     4.20921  4.20921  0.00000 -0.41842
       8     H     0.47747  0.47747  0.00000  0.04506
       9     H     0.46346  0.46346  0.00000  0.07309
      10     H     0.38177  0.38177  0.00000  0.23646

   Total alpha = 17.00000, Total beta = 17.00000, Total charge = -0.00000

*** Psi4 exiting successfully. Buy a developer a beer!
