  ==> Input File <==

--------------------------------------------------------------------------
set {
	reference rhf
	basis 6-31G*
}

set_num_threads( 4 )
memory 2 gb

molecule MOL {
0 1

H	 -3.407059	 -1.043082	 0.000000
O	 -3.119761	 -0.140267	 0.000000
C	 -1.777559	 -0.059267	 0.000000
C	 -0.966497	 -1.190275	 0.000000
C	 -1.214614	 1.210835	 0.000000
H	 -1.410881	 -2.171006	 0.000000
C	 0.405051	 -1.046485	 0.000000
H	 -1.861210	 2.067681	 0.000000
C	 0.158768	 1.338338	 0.000000
H	 1.042843	 -1.910384	 0.000000
C	 0.984182	 0.218375	 0.000000
H	 0.595523	 2.322364	 0.000000
C	 2.452467	 0.370529	 0.000000
O	 3.228994	 -0.533774	 0.000000
H	 2.809473	 1.405765	 0.000000

	symmetry c1
}
set optking {
	frozen_dihedral = ("
		5 3 2 1
	")
}

ee = optimize('scf')
oeprop('DIPOLE', 'QUADRUPOLE', 'MULLIKEN_CHARGES')
f=open( 'psi4out.xyz', 'w' )
f.write( "15  " )
f.write( str(ee) + "\n" )
f.write( MOL.save_string_xyz() )
f.close()
--------------------------------------------------------------------------

    Molecular point group: c1
  Charge       = 0
  Multiplicity = 1
  Basis Set: 6-31G*
  Basis Set:

    Orbital Energies (a.u.)
    -----------------------

    Doubly Occupied:

       1A    -20.611165     2A    -20.555678     3A    -11.327889
       4A    -11.323962     5A    -11.260660     6A    -11.256811
       7A    -11.244419     8A    -11.238725     9A    -11.238520
      10A     -1.432272    11A     -1.396975    12A     -1.170570
      13A     -1.041504    14A     -1.038689    15A     -0.888886
      16A     -0.867425    17A     -0.794325    18A     -0.757547
      19A     -0.713687    20A     -0.666239    21A     -0.640991
      22A     -0.628114    23A     -0.608336    24A     -0.608093
      25A     -0.582606    26A     -0.557999    27A     -0.549285
      28A     -0.506384    29A     -0.483734    30A     -0.418432
      31A     -0.358002    32A     -0.326328

  @DF-RHF Final Energy:  -418.29001458527119

   => Energetics <=

    Nuclear Repulsion Energy =            401.3662104025484609
    One-Electron Energy =               -1365.1239459390462798
    Two-Electron Energy =                 545.4677209512265108
    DFT Exchange-Correlation Energy =       0.0000000000000000
    Empirical Dispersion Energy =           0.0000000000000000
    PCM Polarization Energy =               0.0000000000000000
    EFP Energy =                            0.0000000000000000
    Total Energy =                       -418.2900145852713649
    Molecular point group: c1
  Basis Set: 6-31G*
  Basis Set:

  -Total Gradient:
     Atom            X                  Y                   Z
    ------   -----------------  -----------------  -----------------
       1       -0.000101594090    -0.000031259904    -0.000000000000
       2        0.000039695812    -0.000048566249     0.000000000000
       3       -0.000028740726    -0.000037876307     0.000000000000
       4       -0.000147378881     0.000085567961     0.000000000000
       5        0.000113055913     0.000092997416    -0.000000000000
       6       -0.000014392847     0.000001347999     0.000000000000
       7        0.000164373933     0.000082362331     0.000000000000
       8       -0.000019900143    -0.000070366908     0.000000000000
       9       -0.000061965061    -0.000002643691     0.000000000000
      10        0.000008548769     0.000018496687     0.000000000000
      11       -0.000045236397    -0.000037620390    -0.000000000000
      12        0.000022927547    -0.000000594396     0.000000000000
      13        0.000249516957    -0.000253242524    -0.000000000000
      14       -0.000138266240     0.000160512466    -0.000000000000
      15       -0.000040644537     0.000040885511     0.000000000000

  **** Optimization is complete! (in 1 steps) ****
    Final optimized geometry and variables:
    Molecular point group: c1

    Geometry (in Angstrom), charge = 0, multiplicity = 1:

    H           -3.407058815044    -1.043081696782     0.000000000000
    O           -3.119760815044    -0.140266696782     0.000000000000
    C           -1.777558815044    -0.059266696782     0.000000000000
    C           -0.966496815044    -1.190274696782     0.000000000000
    C           -1.214613815044     1.210835303218     0.000000000000
    H           -1.410880815044    -2.171005696782     0.000000000000
    C            0.405051184956    -1.046484696782     0.000000000000
    H           -1.861209815044     2.067681303218     0.000000000000
    C            0.158768184956     1.338338303218     0.000000000000
    H            1.042843184956    -1.910383696782     0.000000000000
    C            0.984182184956     0.218375303218     0.000000000000
    H            0.595523184956     2.322364303218     0.000000000000
    C            2.452467184956     0.370529303218     0.000000000000
    O            3.228994184956    -0.533773696782     0.000000000000
    H            2.809473184956     1.405765303218     0.000000000000

  Mulliken Charges: (a.u.)
   Center  Symbol    Alpha    Beta     Spin     Total
       1     H     0.26845  0.26845  0.00000  0.46309
       2     O     4.37295  4.37295  0.00000 -0.74589
       3     C     2.78500  2.78500  0.00000  0.43000
       4     C     3.14743  3.14743  0.00000 -0.29485
       5     C     3.12854  3.12854  0.00000 -0.25707
       6     H     0.39791  0.39791  0.00000  0.20418
       7     C     3.07760  3.07760  0.00000 -0.15521
       8     H     0.38646  0.38646  0.00000  0.22708
       9     C     3.09196  3.09196  0.00000 -0.18391
      10     H     0.37456  0.37456  0.00000  0.25088
      11     C     3.06936  3.06936  0.00000 -0.13873
      12     H     0.38979  0.38979  0.00000  0.22043
      13     C     2.83023  2.83023  0.00000  0.33954
      14     O     4.25494  4.25494  0.00000 -0.50988
      15     H     0.42482  0.42482  0.00000  0.15035

   Total alpha = 32.00000, Total beta = 32.00000, Total charge = -0.00000
