  ==> Input File <==

--------------------------------------------------------------------------
set {
	reference rhf
	basis 6-31G*
}

set_num_threads( 4 )
memory 2 gb

molecule MOL {
0 1

H	 -1.134823	 -0.780999	 -0.986060
N	 -1.172117	 -0.314371	 -0.100254
C	 -0.024542	 0.565565	 0.069209
H	 -2.024125	 0.213802	 -0.086324
C	 1.271298	 -0.229563	 -0.014192
H	 -0.049409	 1.297310	 -0.731596
H	 -0.046881	 1.125219	 1.006750
H	 1.332152	 -0.753033	 -0.961461
H	 2.134169	 0.422483	 0.080702
H	 1.326077	 -0.968298	 0.781395

	symmetry c1
}
set optking {
	frozen_dihedral = ("
		1 2 3 6
	")
}

ee = optimize('scf')
oeprop('DIPOLE', 'QUADRUPOLE', 'MULLIKEN_CHARGES')
f=open( 'psi4out.xyz', 'w' )
f.write( "10  " )
f.write( str(ee) + "\n" )
f.write( MOL.save_string_xyz() )
f.close()
--------------------------------------------------------------------------

    Molecular point group: c1
  Charge       = 0
  Multiplicity = 1
  Basis Set: 6-31G*
  Basis Set:
  @DF-RHF Final Energy:  -134.24531606085668
    Total Energy =                       -134.2453160608566236
    Molecular point group: c1
  Basis Set: 6-31G*
  Basis Set:
  Basis Set: 6-31G*
  Basis Set:
  @DF-RHF Final Energy:  -134.24737614336212
    Total Energy =                       -134.2473761433621746
  Basis Set: 6-31G*
  Basis Set:
  Basis Set: 6-31G*
  Basis Set:
  @DF-RHF Final Energy:  -134.24767492474618
    Total Energy =                       -134.2476749247461782
  Basis Set: 6-31G*
  Basis Set:
  Basis Set: 6-31G*
  Basis Set:
  @DF-RHF Final Energy:  -134.24767777613408
    Total Energy =                       -134.2476777761340827
  Basis Set: 6-31G*
  Basis Set:
  Charge       = 0
  Multiplicity = 1
  Basis Set: 6-31G*
  Basis Set:

    Orbital Energies (a.u.)
    -----------------------

    Doubly Occupied:

       1A    -15.532960     2A    -11.242540     3A    -11.207023
       4A     -1.176437     5A     -0.987381     6A     -0.824097
       7A     -0.661570     8A     -0.631067     9A     -0.581848
      10A     -0.516164    11A     -0.507429    12A     -0.488458
      13A     -0.381985

  @DF-RHF Final Energy:  -134.24767822119031

   => Energetics <=

    Nuclear Repulsion Energy =             83.3660877750173341
    One-Electron Energy =                -345.7496131615779973
    Two-Electron Energy =                 128.1358471653704214
    DFT Exchange-Correlation Energy =       0.0000000000000000
    Empirical Dispersion Energy =           0.0000000000000000
    PCM Polarization Energy =               0.0000000000000000
    EFP Energy =                            0.0000000000000000
    Total Energy =                       -134.2476782211902560
    Molecular point group: c1
  Basis Set: 6-31G*
  Basis Set:

  -Total Gradient:
     Atom            X                  Y                   Z
    ------   -----------------  -----------------  -----------------
       1        0.000189264324    -0.000229404707     0.000136558980
       2       -0.000300145683     0.000340019803    -0.000104318620
       3        0.000306202411    -0.000319014622    -0.000217293811
       4       -0.000012470883     0.000003391926    -0.000005346895
       5       -0.000010361565     0.000025489382    -0.000001270804
       6       -0.000159848482     0.000166569399     0.000184543490
       7        0.000002655272    -0.000011597313     0.000007956529
       8       -0.000011549195     0.000007325765     0.000003063955
       9        0.000011005410     0.000000886645    -0.000002609920
      10       -0.000014751612     0.000016333722    -0.000001282903

  **** Optimization is complete! (in 5 steps) ****
    Final optimized geometry and variables:
    Molecular point group: c1

    Geometry (in Angstrom), charge = 0, multiplicity = 1:

    H           -1.170414892462    -0.792625508240    -0.925911412477
    N           -1.173823759928    -0.321693054352    -0.040945015023
    C           -0.025183850143     0.565807978536     0.069120123901
    H           -2.030447270556     0.195003646990     0.011115241652
    C            1.269980156650    -0.233258985326     0.025735692274
    H           -0.002596591844     1.337538913715    -0.703386728771
    H           -0.097538505722     1.081407551595     1.021272726976
    H            1.373581156973    -0.755459671264    -0.922108916389
    H            2.131824114186     0.416969733115     0.140201631689
    H            1.283534095487    -0.972722580934     0.818289884942

  Mulliken Charges: (a.u.)
   Center  Symbol    Alpha    Beta     Spin     Total
       1     H     0.33556  0.33556  0.00000  0.32889
       2     N     3.91896  3.91896  0.00000 -0.83792
       3     C     3.06243  3.06243  0.00000 -0.12486
       4     H     0.33263  0.33263  0.00000  0.33474
       5     C     3.23874  3.23874  0.00000 -0.47748
       6     H     0.43413  0.43413  0.00000  0.13174
       7     H     0.41957  0.41957  0.00000  0.16086
       8     H     0.42516  0.42516  0.00000  0.14969
       9     H     0.42144  0.42144  0.00000  0.15712
      10     H     0.41138  0.41138  0.00000  0.17723

   Total alpha = 13.00000, Total beta = 13.00000, Total charge = -0.00000
