                              Psi4 1.0.54 Driver

  ==> Input File <==

--------------------------------------------------------------------------
set {
	reference rhf
	basis cc-pvtz
}

set_num_threads( 4 )
memory 2 gb

molecule MOL {
0 1

H	 3.003058	 -0.856456	 1.450991
O	 2.094336	 -1.085114	 1.524237
C	 1.324647	 -0.284267	 0.761550
C	 1.856895	 0.733985	 -0.014694
C	 -0.037500	 -0.504516	 0.769757
H	 2.918234	 0.904166	 -0.019902
C	 1.027258	 1.528503	 -0.779809
H	 -0.451624	 -1.290134	 1.368212
C	 -0.861704	 0.296439	 0.000000
H	 1.450299	 2.313293	 -1.376436
C	 -0.336456	 1.314737	 -0.777179
C	 -2.330689	 0.069587	 0.000000
H	 -0.984089	 1.930937	 -1.371113
O	 -2.848621	 -0.993976	 0.000000
H	 -2.934306	 0.982410	 0.000000

	symmetry c1
}
set optking {
	frozen_dihedral = ("
		11 9 12 14
	")
}

ee,wfn = optimize('scf', return_wfn=True)
oeprop( wfn, 'DIPOLE', 'QUADRUPOLE', 'MULLIKEN_CHARGES')
f=open( 'psi4out.xyz', 'w' )
f.write( "15  " )
f.write( str(ee) + "\n" )
f.write( MOL.save_string_xyz() )
f.close()
--------------------------------------------------------------------------

    Molecular point group: c1
  Charge       = 0
  Multiplicity = 1
  Basis Set: CC-PVTZ
  Basis Set:
  @DF-RHF Final Energy:  -418.43416618570325
    Total Energy =                       -418.4341661857033614
    Molecular point group: c1
  Basis Set: CC-PVTZ
  Basis Set:
  Basis Set: CC-PVTZ
  Basis Set:
  @DF-RHF Final Energy:  -418.43231973620095
    Total Energy =                       -418.4323197362008386
  Basis Set: CC-PVTZ
  Basis Set:
  Basis Set: CC-PVTZ
  Basis Set:
  @DF-RHF Final Energy:  -418.43450138317615
    Total Energy =                       -418.4345013831759843
  Basis Set: CC-PVTZ
  Basis Set:
  Basis Set: CC-PVTZ
  Basis Set:
  @DF-RHF Final Energy:  -418.43471022450200
    Total Energy =                       -418.4347102245017140
  Basis Set: CC-PVTZ
  Basis Set:
  Basis Set: CC-PVTZ
  Basis Set:
  @DF-RHF Final Energy:  -418.43471270714593
    Total Energy =                       -418.4347127071458772
  Basis Set: CC-PVTZ
  Basis Set:
  Charge       = 0
  Multiplicity = 1
  Basis Set: CC-PVTZ
  Basis Set:

    Orbital Energies (a.u.)
    -----------------------

    Doubly Occupied:

       1A    -20.595712     2A    -20.557820     3A    -11.329374
       4A    -11.311611     5A    -11.252490     6A    -11.250461
       7A    -11.244446     8A    -11.241078     9A    -11.237258
      10A     -1.427522    11A     -1.413074    12A     -1.173469
      13A     -1.051418    14A     -1.029779    15A     -0.902245
      16A     -0.848827    17A     -0.818167    18A     -0.740932
      19A     -0.705410    20A     -0.688163    21A     -0.649626
      22A     -0.642845    23A     -0.616068    24A     -0.607726
      25A     -0.582908    26A     -0.550880    27A     -0.542492
      28A     -0.516802    29A     -0.494079    30A     -0.427300
      31A     -0.357784    32A     -0.329727

  @DF-RHF Final Energy:  -418.43471295512023

   => Energetics <=

    Nuclear Repulsion Energy =            403.9607106521755782
    One-Electron Energy =               -1370.5158582709254915
    Two-Electron Energy =                 548.1204346636293394
    DFT Exchange-Correlation Energy =       0.0000000000000000
    Empirical Dispersion Energy =           0.0000000000000000
    PCM Polarization Energy =               0.0000000000000000
    EFP Energy =                            0.0000000000000000
    Total Energy =                       -418.4347129551206308
    Molecular point group: c1
  Basis Set: CC-PVTZ
  Basis Set:

  -Total Gradient:
     Atom            X                  Y                   Z
    ------   -----------------  -----------------  -----------------
       1       -0.000004186037     0.000011030677     0.000017697751
       2        0.000016074089    -0.000011877354    -0.000029091989
       3       -0.000070719674    -0.000039218400     0.000038654865
       4       -0.000016969815     0.000037392802    -0.000052087386
       5        0.000067925959     0.000039689575     0.000096767291
       6        0.000001351519    -0.000003624594    -0.000006683707
       7        0.000058231313     0.000018202221     0.000035068547
       8       -0.000007352870     0.000020453527    -0.000001584049
       9       -0.000992443893     0.004315241315     0.002345750275
      10        0.000000068378    -0.000003163501    -0.000000847328
      11        0.000742759658    -0.003113504679    -0.003545106603
      12       -0.000260386085    -0.001068868606     0.007060163469
      13        0.000000491440     0.000005171724     0.000006459710
      14        0.000370265970    -0.000083612583    -0.005981871216
      15        0.000094890045    -0.000123312126     0.000016710366

  **** Optimization is complete! (in 6 steps) ****
    Final optimized geometry and variables:
    Molecular point group: c1

    Geometry (in Angstrom), charge = 0, multiplicity = 1:

    H            3.005578082154    -0.914447502554     1.268407391614
    O            2.096386839383    -1.141679408453     1.342607597327
    C            1.329028413255    -0.339039442268     0.580552056520
    C            1.859929008827     0.684722737058    -0.186817603437
    C           -0.032856458283    -0.571865580988     0.573953423481
    H            2.920547093608     0.859132059794    -0.188395894981
    C            1.027287526171     1.478929351310    -0.950254709144
    H           -0.437547544025    -1.383235105067     1.144642191393
    C           -0.859350420366     0.243982937289    -0.174275152402
    H            1.449032923604     2.263077858304    -1.548840081792
    C           -0.336628001759     1.270185666998    -0.943552809472
    C           -2.320394537096    -0.040930766334    -0.247889239770
    H           -0.984718935285     1.894198442406    -1.529122859838
    O           -2.785340004522    -1.127667600945    -0.254641281980
    H           -2.960744582312     0.839622875658    -0.359718676183

  Mulliken Charges: (a.u.)
   Center  Symbol    Alpha    Beta     Spin     Total
       1     H     0.38700  0.38700  0.00000  0.22600
       2     O     4.17022  4.17022  0.00000 -0.34045
       3     C     2.83946  2.83946  0.00000  0.32108
       4     C     3.13127  3.13127  0.00000 -0.26253
       5     C     3.12316  3.12316  0.00000 -0.24633
       6     H     0.43183  0.43183  0.00000  0.13634
       7     C     3.06079  3.06079  0.00000 -0.12157
       8     H     0.40945  0.40945  0.00000  0.18110
       9     C     2.95017  2.95017  0.00000  0.09967
      10     H     0.41948  0.41948  0.00000  0.16104
      11     C     3.11276  3.11276  0.00000 -0.22552
      12     C     2.92133  2.92133  0.00000  0.15734
      13     H     0.42406  0.42406  0.00000  0.15188
      14     O     4.16267  4.16267  0.00000 -0.32535
      15     H     0.45635  0.45635  0.00000  0.08730

   Total alpha = 32.00000, Total beta = 32.00000, Total charge = -0.00000

*** Psi4 exiting successfully. Buy a developer a beer!
