  ==> Input File <==

--------------------------------------------------------------------------
set {
	reference rhf
	basis 6-31G*
}

set_num_threads( 1 )
memory 2 gb

molecule MOL {
0 1

H	 2.591676	 2.013956	 0.335017
O	 3.341076	 1.666752	 -0.126416
C	 3.569581	 0.339145	 0.272707
C	 2.539767	 -0.640285	 -0.279495
H	 4.553106	 0.084646	 -0.100901
H	 3.608576	 0.269204	 1.359154
C	 1.115811	 -0.397273	 0.226630
H	 2.556196	 -0.582511	 -1.364741
H	 2.852081	 -1.648031	 -0.010655
C	 0.661390	 1.053077	 0.040068
H	 1.060751	 -0.662248	 1.278829
H	 0.426759	 -1.057947	 -0.299733
C	 -0.788697	 1.331625	 0.452377
H	 1.326438	 1.710994	 0.596578
H	 0.778645	 1.320378	 -1.008026
C	 -1.071351	 1.189603	 1.950514
H	 -1.042459	 2.344394	 0.146239
H	 -1.453485	 0.672762	 -0.104214
C	 -2.502460	 1.579278	 2.326700
H	 -0.372408	 1.811320	 2.508239
H	 -0.890700	 0.166114	 2.270104
C	 -2.789167	 1.432305	 3.820641
H	 -2.686897	 2.607698	 2.023674
H	 -3.202357	 0.965729	 1.763151
H	 -2.126419	 2.059184	 4.410566
H	 -3.809945	 1.717668	 4.055622
H	 -2.649397	 0.405819	 4.147988

	symmetry c1
}
set optking {
	frozen_dihedral = ("
		14 10 7 4,
		14 10 13 16,
		8 4 3 2,
		10 13 16 20,
		20 16 19 22,
		4 3 2 1
	")
}

ee = energy('scf')
oeprop('DIPOLE', 'QUADRUPOLE', 'MULLIKEN_CHARGES')
f=open( 'psi4out.xyz', 'w' )
f.write( "27  " )
f.write( str(ee) + "\n" )
f.write( MOL.save_string_xyz() )
f.close()
--------------------------------------------------------------------------

    Molecular point group: c1

    Geometry (in Angstrom), charge = 0, multiplicity = 1:

       Center              X                  Y                   Z               Mass
    ------------   -----------------  -----------------  -----------------  -----------------
           H          2.101489696722     1.156240264415    -0.632271172555     1.007825032070
           O          2.850889696722     0.809036264415    -1.093704172555    15.994914619560
           C          3.079394696722    -0.518570735585    -0.694581172555    12.000000000000
           C          2.049580696722    -1.498000735585    -1.246783172555    12.000000000000
           H          4.062919696722    -0.773069735585    -1.068189172555     1.007825032070
           H          3.118389696722    -0.588511735585     0.391865827445     1.007825032070
           C          0.625624696722    -1.254988735585    -0.740658172555    12.000000000000
           H          2.066009696722    -1.440226735585    -2.332029172555     1.007825032070
           H          2.361894696722    -2.505746735585    -0.977943172555     1.007825032070
           C          0.171203696722     0.195361264415    -0.927220172555    12.000000000000
           H          0.570564696722    -1.519963735585     0.311540827445     1.007825032070
           H         -0.063427303278    -1.915662735585    -1.267021172555     1.007825032070
           C         -1.278883303278     0.473909264415    -0.514911172555    12.000000000000
           H          0.836251696722     0.853278264415    -0.370710172555     1.007825032070
           H          0.288458696722     0.462662264415    -1.975314172555     1.007825032070
           C         -1.561537303278     0.331887264415     0.983225827445    12.000000000000
           H         -1.532645303278     1.486678264415    -0.821049172555     1.007825032070
           H         -1.943671303278    -0.184953735585    -1.071502172555     1.007825032070
           C         -2.992646303278     0.721562264415     1.359411827445    12.000000000000
           H         -0.862594303278     0.953604264415     1.540950827445     1.007825032070
           H         -1.380886303278    -0.691601735585     1.302815827445     1.007825032070
           C         -3.279353303278     0.574589264415     2.853352827445    12.000000000000
           H         -3.177083303278     1.749982264415     1.056385827445     1.007825032070
           H         -3.692543303278     0.108013264415     0.795862827445     1.007825032070
           H         -2.616605303278     1.201468264415     3.443277827445     1.007825032070
           H         -4.300131303278     0.859952264415     3.088333827445     1.007825032070
           H         -3.139583303278    -0.451896735585     3.180699827445     1.007825032070

  Charge       = 0
  Multiplicity = 1
  Basis Set: 6-31G*
  Basis Set:

    Orbital Energies (a.u.)
    -----------------------

    Doubly Occupied:

       1A    -20.542764     2A    -11.265467     3A    -11.224454
       4A    -11.221075     5A    -11.218369     6A    -11.217857
       7A    -11.216871     8A    -11.215504     9A    -11.210783
      10A     -1.357639    11A     -1.098504    12A     -1.062822
      13A     -1.015229    14A     -0.952535    15A     -0.888803
      16A     -0.822700    17A     -0.804319    18A     -0.786591
      19A     -0.704089    20A     -0.647917    21A     -0.630445
      22A     -0.622873    23A     -0.594098    24A     -0.582778
      25A     -0.576459    26A     -0.556141    27A     -0.552651
      28A     -0.532018    29A     -0.521598    30A     -0.499181
      31A     -0.487491    32A     -0.476874    33A     -0.468857
      34A     -0.454985    35A     -0.449981    36A     -0.441875
      37A     -0.416550

  @DF-RHF Final Energy:  -388.26143301040190

   => Energetics <=

    Nuclear Repulsion Energy =            473.7419383629475078
    One-Electron Energy =               -1465.3284175775443146
    Two-Electron Energy =                 603.3250462041922901
    DFT Exchange-Correlation Energy =       0.0000000000000000
    Empirical Dispersion Energy =           0.0000000000000000
    PCM Polarization Energy =               0.0000000000000000
    EFP Energy =                            0.0000000000000000
    Total Energy =                       -388.2614330104045166

  Mulliken Charges: (a.u.)
   Center  Symbol    Alpha    Beta     Spin     Total
       1     H     0.26623  0.26623  0.00000  0.46753
       2     O     4.37635  4.37635  0.00000 -0.75271
       3     C     3.00174  3.00174  0.00000 -0.00347
       4     C     3.16348  3.16348  0.00000 -0.32696
       5     H     0.41391  0.41391  0.00000  0.17217
       6     H     0.43232  0.43232  0.00000  0.13535
       7     C     3.15866  3.15866  0.00000 -0.31731
       8     H     0.41569  0.41569  0.00000  0.16863
       9     H     0.42151  0.42151  0.00000  0.15697
      10     C     3.15292  3.15292  0.00000 -0.30584
      11     H     0.42065  0.42065  0.00000  0.15869
      12     H     0.41785  0.41785  0.00000  0.16430
      13     C     3.15238  3.15238  0.00000 -0.30477
      14     H     0.45658  0.45658  0.00000  0.08685
      15     H     0.40840  0.40840  0.00000  0.18321
      16     C     3.15350  3.15350  0.00000 -0.30700
      17     H     0.42047  0.42047  0.00000  0.15906
      18     H     0.42208  0.42208  0.00000  0.15584
      19     C     3.15129  3.15129  0.00000 -0.30258
      20     H     0.42553  0.42553  0.00000  0.14894
      21     H     0.42163  0.42163  0.00000  0.15674
      22     C     3.23936  3.23936  0.00000 -0.47872
      23     H     0.42258  0.42258  0.00000  0.15484
      24     H     0.42255  0.42255  0.00000  0.15489
      25     H     0.42171  0.42171  0.00000  0.15659
      26     H     0.41877  0.41877  0.00000  0.16246
      27     H     0.42186  0.42186  0.00000  0.15629

   Total alpha = 37.00000, Total beta = 37.00000, Total charge =  0.00000
