                              Psi4 1.0.54 Driver

  ==> Input File <==

--------------------------------------------------------------------------
set {
	reference rhf
	basis cc-pvtz
}

set_num_threads( 4 )
memory 2 gb

molecule MOL {
0 1

O	 2.041570	 1.654834	 -0.946471
C	 0.923178	 1.354155	 -0.640676
C	 -0.206360	 2.345449	 -0.831235
N	 0.622280	 0.144970	 -0.099307
H	 -0.696239	 2.570662	 0.107723
H	 0.221548	 3.247733	 -1.235302
H	 -0.952892	 1.965765	 -1.517897
C	 1.664396	 -0.854993	 0.000772
C	 -0.723263	 -0.345916	 0.080412
H	 2.462727	 -0.615153	 -0.690869
H	 1.261798	 -1.821849	 -0.240651
H	 2.081615	 -0.891605	 1.003877
H	 -0.757303	 -0.977100	 0.959095
H	 -1.423946	 0.457593	 0.229784
H	 -1.055832	 -0.939032	 -0.768502

	symmetry c1
}
set optking {
	frozen_dihedral = ("
		2 4 8 10
	")
}

ee,wfn = optimize('scf', return_wfn=True)
oeprop( wfn, 'DIPOLE', 'QUADRUPOLE', 'MULLIKEN_CHARGES')
f=open( 'psi4out.xyz', 'w' )
f.write( "15  " )
f.write( str(ee) + "\n" )
f.write( MOL.save_string_xyz() )
f.close()
--------------------------------------------------------------------------

    Molecular point group: c1
  Charge       = 0
  Multiplicity = 1
  Basis Set: CC-PVTZ
  Basis Set:
  @DF-RHF Final Energy:  -286.13425167000628
    Total Energy =                       -286.1342516700061651
    Molecular point group: c1
  Basis Set: CC-PVTZ
  Basis Set:
  Basis Set: CC-PVTZ
  Basis Set:
  @DF-RHF Final Energy:  -286.13473671066083
    Total Energy =                       -286.1347367106608317
  Basis Set: CC-PVTZ
  Basis Set:
  Basis Set: CC-PVTZ
  Basis Set:
  @DF-RHF Final Energy:  -286.13452333304673
    Total Energy =                       -286.1345233330468432
  Basis Set: CC-PVTZ
  Basis Set:
  Basis Set: CC-PVTZ
  Basis Set:
  @DF-RHF Final Energy:  -286.13516644662320
    Total Energy =                       -286.1351664466232023
  Basis Set: CC-PVTZ
  Basis Set:
  @DF-RHF Final Energy:  -286.13527109725169
    Total Energy =                       -286.1352710972515752
  @DF-RHF Final Energy:  -286.13532704018519
    Total Energy =                       -286.1353270401851319
  @DF-RHF Final Energy:  -286.13537940951784
    Total Energy =                       -286.1353794095177818
  @DF-RHF Final Energy:  -286.13531954271605
    Total Energy =                       -286.1353195427160472
  @DF-RHF Final Energy:  -286.13547075010922
    Total Energy =                       -286.1354707501093344
  @DF-RHF Final Energy:  -286.13535929273115
    Total Energy =                       -286.1353592927312661
  @DF-RHF Final Energy:  -286.13558037353420
    Total Energy =                       -286.1355803735344239
  Basis Set: CC-PVTZ
  Basis Set:
  @DF-RHF Final Energy:  -286.13562780169093
    Total Energy =                       -286.1356278016909300
  Basis Set: CC-PVTZ
  Basis Set:
  Basis Set: CC-PVTZ
  Basis Set:
  @DF-RHF Final Energy:  -286.13560934683744
    Total Energy =                       -286.1356093468374411
  Basis Set: CC-PVTZ
  Basis Set:
  Basis Set: CC-PVTZ
  Basis Set:
  @DF-RHF Final Energy:  -286.13564030909407
    Total Energy =                       -286.1356403090941853
  Basis Set: CC-PVTZ
  Basis Set:
  Charge       = 0
  Multiplicity = 1
  Basis Set: CC-PVTZ
  Basis Set:

    Orbital Energies (a.u.)
    -----------------------

    Doubly Occupied:

       1A    -20.503480     2A    -15.578531     3A    -11.335160
       4A    -11.264017     5A    -11.246433     6A    -11.226461
       7A     -1.387273     8A     -1.246366     9A     -1.015106
      10A     -0.973227    11A     -0.920965    12A     -0.739114
      13A     -0.683317    14A     -0.661971    15A     -0.653848
      16A     -0.590430    17A     -0.578177    18A     -0.567418
      19A     -0.561625    20A     -0.548448    21A     -0.530405
      22A     -0.507282    23A     -0.413657    24A     -0.370426

  @DF-RHF Final Energy:  -286.13564099890755

   => Energetics <=

    Nuclear Repulsion Energy =            252.8866743527430287
    One-Electron Energy =                -889.8383555934829019
    Two-Electron Energy =                 350.8160402418325248
    DFT Exchange-Correlation Energy =       0.0000000000000000
    Empirical Dispersion Energy =           0.0000000000000000
    PCM Polarization Energy =               0.0000000000000000
    EFP Energy =                            0.0000000000000000
    Total Energy =                       -286.1356409989073200
    Molecular point group: c1
  Basis Set: CC-PVTZ
  Basis Set:

  -Total Gradient:
     Atom            X                  Y                   Z
    ------   -----------------  -----------------  -----------------
       1       -0.000016957032     0.000010433294    -0.000008571458
       2       -0.000014346124    -0.000015641886     0.000017191339
       3       -0.000001349156     0.000025112391     0.000014265204
       4        0.000036035594     0.000025994262     0.000023236479
       5        0.000026358980    -0.000000318120    -0.000053048342
       6       -0.000027635810    -0.000040509567     0.000014361955
       7        0.000014310726     0.000010841806     0.000019308909
       8       -0.000005068339    -0.000100530653    -0.000002938057
       9        0.000031288612     0.000016347103    -0.000011313654
      10        0.000000817660     0.000007494717    -0.000016278762
      11        0.000017160334     0.000063742213     0.000026490859
      12       -0.000014433766     0.000011463298    -0.000014460179
      13        0.000011293683     0.000005265687     0.000042185269
      14       -0.000043811428     0.000052640145    -0.000022951694
      15       -0.000013663935    -0.000072334689    -0.000027477870

  **** Optimization is complete! (in 15 steps) ****
    Final optimized geometry and variables:
    Molecular point group: c1

    Geometry (in Angstrom), charge = 0, multiplicity = 1:

    O            1.350904459585     0.989574813274    -0.380112010217
    C            0.213819692567     0.656220124691    -0.204516296180
    C           -0.899708746597     1.676725180472    -0.321586477350
    N           -0.126563350286    -0.626936599060     0.081860389037
    H           -1.436892923812     1.783708812300     0.612591920621
    H           -0.446486664639     2.619066305092    -0.580261418519
    H           -1.610821084806     1.398956228142    -1.089303944979
    C            0.923002104825    -1.601835663425     0.289965440112
    C           -1.444212733640    -1.043695146637     0.497591755216
    H            1.837464707612    -1.247471277894    -0.149650773542
    H            0.642218625762    -2.540608985929    -0.171902139371
    H            1.090169644396    -1.779789440895     1.349086668542
    H           -1.526156284744    -1.101135517131     1.580584278499
    H           -2.206927224706    -0.376977904710     0.133978695770
    H           -1.651158248107    -2.028239863163     0.097040228282

  Mulliken Charges: (a.u.)
   Center  Symbol    Alpha    Beta     Spin     Total
       1     O     4.22093  4.22093  0.00000 -0.44187
       2     C     2.84567  2.84567  0.00000  0.30866
       3     C     3.16075  3.16075  0.00000 -0.32150
       4     N     3.56135  3.56135  0.00000 -0.12270
       5     H     0.44923  0.44923  0.00000  0.10154
       6     H     0.42857  0.42857  0.00000  0.14285
       7     H     0.44903  0.44903  0.00000  0.10193
       8     C     3.09894  3.09894  0.00000 -0.19787
       9     C     3.09524  3.09524  0.00000 -0.19049
      10     H     0.42626  0.42626  0.00000  0.14747
      11     H     0.45677  0.45677  0.00000  0.08646
      12     H     0.45775  0.45775  0.00000  0.08450
      13     H     0.45467  0.45467  0.00000  0.09067
      14     H     0.44505  0.44505  0.00000  0.10991
      15     H     0.44978  0.44978  0.00000  0.10043

   Total alpha = 24.00000, Total beta = 24.00000, Total charge =  0.00000

*** Psi4 exiting successfully. Buy a developer a beer!
