                              Psi4 1.0.54 Driver

  ==> Input File <==

--------------------------------------------------------------------------
set {
	reference rhf
	basis cc-pvtz
}

set_num_threads( 4 )
memory 2 gb

molecule MOL {
0 1

O	 -2.081319	 -0.951530	 -0.502732
N	 -1.613558	 0.006676	 0.014756
C	 -0.329345	 -0.171618	 0.743966
O	 -2.068523	 1.100482	 -0.024385
C	 -0.601552	 -0.766595	 2.119827
H	 0.114005	 0.807811	 0.811633
H	 0.271200	 -0.826821	 0.135455
C	 0.692267	 -0.968660	 2.904281
H	 -1.265637	 -0.105292	 2.664095
H	 -1.113117	 -1.714369	 1.998324
C	 0.448416	 -1.570382	 4.283755
H	 1.202545	 -0.015892	 3.010520
H	 1.358850	 -1.614846	 2.340793
H	 -0.188502	 -0.929103	 4.882750
H	 -0.033110	 -2.538946	 4.208050
H	 1.381034	 -1.704287	 4.818035

	symmetry c1
}
set optking {
	frozen_dihedral = ("
		5 3 2 1
	")
}

ee,wfn = optimize('scf', return_wfn=True)
oeprop( wfn, 'DIPOLE', 'QUADRUPOLE', 'MULLIKEN_CHARGES')
f=open( 'psi4out.xyz', 'w' )
f.write( "16  " )
f.write( str(ee) + "\n" )
f.write( MOL.save_string_xyz() )
f.close()
--------------------------------------------------------------------------

    Molecular point group: c1
  Charge       = 0
  Multiplicity = 1
  Basis Set: CC-PVTZ
  Basis Set:
  @DF-RHF Final Energy:  -360.90929411300152
    Total Energy =                       -360.9092941130014083
    Molecular point group: c1
  Basis Set: CC-PVTZ
  Basis Set:
  Basis Set: CC-PVTZ
  Basis Set:
  @DF-RHF Final Energy:  -360.90387380482292
    Total Energy =                       -360.9038738048232631
  Basis Set: CC-PVTZ
  Basis Set:
  Basis Set: CC-PVTZ
  Basis Set:
  @DF-RHF Final Energy:  -360.90779870423239
    Total Energy =                       -360.9077987042327322
  Basis Set: CC-PVTZ
  Basis Set:
  Basis Set: CC-PVTZ
  Basis Set:
  @DF-RHF Final Energy:  -360.90946114759828
    Total Energy =                       -360.9094611475983356
  Basis Set: CC-PVTZ
  Basis Set:
  Basis Set: CC-PVTZ
  Basis Set:
  @DF-RHF Final Energy:  -360.90949946018787
    Total Energy =                       -360.9094994601880444
  Basis Set: CC-PVTZ
  Basis Set:
  Basis Set: CC-PVTZ
  Basis Set:
  @DF-RHF Final Energy:  -360.90950163714399
    Total Energy =                       -360.9095016371438760
  Basis Set: CC-PVTZ
  Basis Set:
  Charge       = 0
  Multiplicity = 1
  Basis Set: CC-PVTZ
  Basis Set:

    Orbital Energies (a.u.)
    -----------------------

    Doubly Occupied:

       1A    -20.590565     2A    -20.588833     3A    -15.836260
       4A    -11.296308     5A    -11.250461     6A    -11.241824
       7A    -11.225862     8A     -1.635259     9A     -1.419558
      10A     -1.136560    11A     -1.060129    12A     -0.948777
      13A     -0.843392    14A     -0.829057    15A     -0.757844
      16A     -0.738223    17A     -0.728104    18A     -0.679265
      19A     -0.615656    20A     -0.607826    21A     -0.567776
      22A     -0.541989    23A     -0.517351    24A     -0.504158
      25A     -0.496691    26A     -0.486189    27A     -0.469928
      28A     -0.452270

  @DF-RHF Final Energy:  -360.90950198935343

   => Energetics <=

    Nuclear Repulsion Energy =            312.9928395878955598
    One-Electron Energy =               -1111.6724519755475740
    Two-Electron Energy =                 437.7701103982987547
    DFT Exchange-Correlation Energy =       0.0000000000000000
    Empirical Dispersion Energy =           0.0000000000000000
    PCM Polarization Energy =               0.0000000000000000
    EFP Energy =                            0.0000000000000000
    Total Energy =                       -360.9095019893532594
    Molecular point group: c1
  Basis Set: CC-PVTZ
  Basis Set:

  -Total Gradient:
     Atom            X                  Y                   Z
    ------   -----------------  -----------------  -----------------
       1       -0.000084311785    -0.000031294403     0.000184864072
       2        0.000116698796    -0.000014155037    -0.000280429141
       3       -0.000056908471     0.000199196978     0.000140990765
       4        0.000022594338    -0.000006057567     0.000014916241
       5        0.000011277386    -0.000149685940    -0.000049232177
       6        0.000003163662     0.000001914039    -0.000003612711
       7       -0.000010010152    -0.000000424408    -0.000001572161
       8       -0.000000567382     0.000003615196    -0.000002081231
       9        0.000003875917     0.000002494917    -0.000006743795
      10       -0.000005799466    -0.000003049790     0.000006305689
      11       -0.000001549866    -0.000003715437    -0.000003322563
      12       -0.000001295227     0.000000565785     0.000001017923
      13        0.000002729205     0.000000630409     0.000000628497
      14        0.000000975252     0.000000788011    -0.000001087141
      15       -0.000001061876    -0.000000296864     0.000001057488
      16        0.000000189666    -0.000000525887    -0.000001699763

  **** Optimization is complete! (in 7 steps) ****
    Final optimized geometry and variables:
    Molecular point group: c1

    Geometry (in Angstrom), charge = 0, multiplicity = 1:

    O           -1.234167285671    -0.511458878731    -1.851957964093
    N           -0.779211258889     0.455528887657    -1.338482182465
    C            0.498701756918     0.289663187141    -0.594927883858
    O           -1.270558001275     1.533793817404    -1.346878572224
    C            0.219964022557    -0.295701836632     0.783493672349
    H            0.940569545081     1.269711520440    -0.537017997203
    H            1.105004010388    -0.371903129143    -1.192182519369
    C            1.508399625330    -0.473324795449     1.582665221863
    H           -0.456977930488     0.363313060291     1.315939967128
    H           -0.279663564874    -1.249458118997     0.666193336524
    C            1.257702946266    -1.058236343666     2.968152834557
    H            2.008785369862     0.485550680499     1.680283158172
    H            2.186240385745    -1.120876073886     1.034243083113
    H            0.608442796966    -0.415397901391     3.552085539313
    H            0.786998557530    -2.032746982913     2.901556788677
    H            2.186503173451    -1.174731077272     3.513064576949

  Mulliken Charges: (a.u.)
   Center  Symbol    Alpha    Beta     Spin     Total
       1     O     4.17521  4.17521  0.00000 -0.35042
       2     N     3.27576  3.27576  0.00000  0.44847
       3     C     3.04029  3.04029  0.00000 -0.08059
       4     O     4.17246  4.17246  0.00000 -0.34492
       5     C     3.10129  3.10129  0.00000 -0.20258
       6     H     0.43337  0.43337  0.00000  0.13325
       7     H     0.43460  0.43460  0.00000  0.13080
       8     C     3.09352  3.09352  0.00000 -0.18705
       9     H     0.43970  0.43970  0.00000  0.12060
      10     H     0.43606  0.43606  0.00000  0.12788
      11     C     3.14825  3.14825  0.00000 -0.29650
      12     H     0.45031  0.45031  0.00000  0.09937
      13     H     0.45050  0.45050  0.00000  0.09900
      14     H     0.45183  0.45183  0.00000  0.09633
      15     H     0.45163  0.45163  0.00000  0.09675
      16     H     0.44520  0.44520  0.00000  0.10960

   Total alpha = 28.00000, Total beta = 28.00000, Total charge = -0.00000

*** Psi4 exiting successfully. Buy a developer a beer!
