  ==> Input File <==

--------------------------------------------------------------------------
set {
	reference rhf
	basis cc-pvtz
}

set_num_threads( 4 )
memory 2 gb

molecule MOL {
0 1

H	 1.352625	 -1.540121	 0.308172
O	 1.583947	 -0.677544	 -0.001533
C	 0.489979	 0.078084	 0.002623
C	 -0.763662	 -0.754014	 0.000816
O	 0.539051	 1.259395	 -0.000088
C	 -2.038001	 0.074705	 -0.000833
H	 -0.712945	 -1.405886	 -0.864342
H	 -0.715137	 -1.405770	 0.866182
H	 -2.087267	 0.710831	 -0.874232
H	 -2.903419	 -0.576199	 -0.001922
H	 -2.089467	 0.710909	 0.872389

	symmetry c1
}
set optking {
	frozen_dihedral = ("
		1 2 3 5
	")
}

ee = optimize('scf')
oeprop('DIPOLE', 'QUADRUPOLE', 'MULLIKEN_CHARGES')
f=open( 'psi4out.xyz', 'w' )
f.write( "11  " )
f.write( str(ee) + "\n" )
f.write( MOL.save_string_xyz() )
f.close()
--------------------------------------------------------------------------

    Molecular point group: c1
  Charge       = 0
  Multiplicity = 1
  Basis Set: CC-PVTZ
  Basis Set:
  @DF-RHF Final Energy:  -266.94117421273262
    Total Energy =                       -266.9411742127326761
    Molecular point group: c1
  Basis Set: CC-PVTZ
  Basis Set:
  Basis Set: CC-PVTZ
  Basis Set:
  @DF-RHF Final Energy:  -266.94239540867284
    Total Energy =                       -266.9423954086728372
  Basis Set: CC-PVTZ
  Basis Set:
  Basis Set: CC-PVTZ
  Basis Set:
  @DF-RHF Final Energy:  -266.94204356383864
    Total Energy =                       -266.9420435638384674
  Basis Set: CC-PVTZ
  Basis Set:
  Basis Set: CC-PVTZ
  Basis Set:
  @DF-RHF Final Energy:  -266.94262148509404
    Total Energy =                       -266.9426214850941506
  Basis Set: CC-PVTZ
  Basis Set:
  Basis Set: CC-PVTZ
  Basis Set:
  @DF-RHF Final Energy:  -266.94262387792605
    Total Energy =                       -266.9426238779259961
  Basis Set: CC-PVTZ
  Basis Set:
  Charge       = 0
  Multiplicity = 1
  Basis Set: CC-PVTZ
  Basis Set:

    Orbital Energies (a.u.)
    -----------------------

    Doubly Occupied:

       1A    -20.603684     2A    -20.538843     3A    -11.373750
       4A    -11.253614     5A    -11.224269     6A     -1.471623
       7A     -1.374621     8A     -1.069712     9A     -0.909441
      10A     -0.831113    11A     -0.719932    12A     -0.670175
      13A     -0.662054    14A     -0.614375    15A     -0.594630
      16A     -0.535071    17A     -0.528939    18A     -0.513478
      19A     -0.483655    20A     -0.445912

  @DF-RHF Final Energy:  -266.94262405934109

   => Energetics <=

    Nuclear Repulsion Energy =            180.0264308753679643
    One-Electron Energy =                -721.1003280850990222
    Two-Electron Energy =                 274.1312731503899727
    DFT Exchange-Correlation Energy =       0.0000000000000000
    Empirical Dispersion Energy =           0.0000000000000000
    PCM Polarization Energy =               0.0000000000000000
    EFP Energy =                            0.0000000000000000
    Total Energy =                       -266.9426240593410853
    Molecular point group: c1
  Basis Set: CC-PVTZ
  Basis Set:

  -Total Gradient:
     Atom            X                  Y                   Z
    ------   -----------------  -----------------  -----------------
       1        0.000808655349     0.001318897530     0.004238900426
       2       -0.001088832691    -0.001684037878    -0.003639894404
       3        0.000304931656     0.000334062277    -0.004469325717
       4        0.000031144463     0.000005468380    -0.000033456988
       5       -0.000067358339     0.000022510503     0.003886492484
       6        0.000009617256     0.000013518416     0.000006327922
       7       -0.000007469048    -0.000011330054     0.000007857381
       8        0.000010685598     0.000002050557     0.000012683339
       9       -0.000004245852     0.000002974977    -0.000001038058
      10        0.000000602247    -0.000002571112    -0.000002942087
      11        0.000002269363    -0.000001543598    -0.000005604296

  **** Optimization is complete! (in 6 steps) ****
    Final optimized geometry and variables:
    Molecular point group: c1

    Geometry (in Angstrom), charge = 0, multiplicity = 1:

    H            1.490764766676    -1.512961458142     0.307445088603
    O            1.631812515498    -0.632577221319     0.005924023361
    C            0.500621595567     0.081206594428    -0.004716623697
    C           -0.770398889357    -0.738398405610    -0.007220677505
    O            0.540485553117     1.256051196156    -0.009800072375
    C           -2.034027014842     0.106532390823    -0.005917777641
    H           -0.736405363108    -1.387852879685    -0.876613290798
    H           -0.745895367652    -1.392313666889     0.861198940136
    H           -2.070865308167     0.744732649903    -0.877861298959
    H           -2.909060546173    -0.531538911796    -0.008443447353
    H           -2.073481704732     0.741557223294     0.868387083925

  Mulliken Charges: (a.u.)
   Center  Symbol    Alpha    Beta     Spin     Total
       1     H     0.38796  0.38796  0.00000  0.22407
       2     O     4.14771  4.14771  0.00000 -0.29542
       3     C     2.80563  2.80563  0.00000  0.38874
       4     C     3.11503  3.11503  0.00000 -0.23006
       5     O     4.17366  4.17366  0.00000 -0.34731
       6     C     3.14039  3.14039  0.00000 -0.28078
       7     H     0.43883  0.43883  0.00000  0.12233
       8     H     0.45006  0.45006  0.00000  0.09987
       9     H     0.44451  0.44451  0.00000  0.11098
      10     H     0.45043  0.45043  0.00000  0.09913
      11     H     0.44578  0.44578  0.00000  0.10844

   Total alpha = 20.00000, Total beta = 20.00000, Total charge =  0.00000
