  ==> Input File <==

--------------------------------------------------------------------------
set {
	reference rhf
	basis 6-31G*
}

set_num_threads( 4 )
memory 2 gb

molecule MOL {
0 1

H	 -1.384106	 -1.445559	 4.065043
C	 -0.723981	 -1.261325	 3.237175
C	 -0.839845	 -1.999927	 2.064457
C	 0.251191	 -0.288967	 3.320903
H	 -1.594261	 -2.762010	 1.981311
C	 0.004806	 -1.766515	 1.000840
H	 0.355568	 0.292131	 4.220078
C	 1.111515	 -0.041040	 2.256556
H	 -0.073748	 -2.329591	 0.089463
C	 0.987358	 -0.782940	 1.092404
H	 1.859586	 0.721773	 2.352327
O	 1.765256	 -0.628444	 0.000000
C	 2.778419	 0.335181	 0.000000
H	 2.731280	 0.961222	 -0.884976
H	 3.711703	 -0.207767	 0.000000
H	 2.731280	 0.961222	 0.884976

	symmetry c1
}
set optking {
	frozen_dihedral = ("
		10 12 13 14
	")
}

ee = optimize('scf')
oeprop('DIPOLE', 'QUADRUPOLE', 'MULLIKEN_CHARGES')
f=open( 'psi4out.xyz', 'w' )
f.write( "16  " )
f.write( str(ee) + "\n" )
f.write( MOL.save_string_xyz() )
f.close()
--------------------------------------------------------------------------

    Molecular point group: c1
  Charge       = 0
  Multiplicity = 1
  Basis Set: 6-31G*
  Basis Set:
  @DF-RHF Final Energy:  -344.57381773588691
    Total Energy =                       -344.5738177358870189
    Molecular point group: c1
  Basis Set: 6-31G*
  Basis Set:
  Basis Set: 6-31G*
  Basis Set:
  @DF-RHF Final Energy:  -344.57259334173887
    Total Energy =                       -344.5725933417390934
  Basis Set: 6-31G*
  Basis Set:
  Basis Set: 6-31G*
  Basis Set:
  @DF-RHF Final Energy:  -344.57691692359293
    Total Energy =                       -344.5769169235926483
  Basis Set: 6-31G*
  Basis Set:
  Basis Set: 6-31G*
  Basis Set:
  @DF-RHF Final Energy:  -344.57755809567459
    Total Energy =                       -344.5775580956747604
  Basis Set: 6-31G*
  Basis Set:
  @DF-RHF Final Energy:  -344.57867640932267
    Total Energy =                       -344.5786764093228385
  @DF-RHF Final Energy:  -344.57895466771112
    Total Energy =                       -344.5789546677110593
  Basis Set: 6-31G*
  Basis Set:
  @DF-RHF Final Energy:  -344.57897808057118
    Total Energy =                       -344.5789780805712894
  Basis Set: 6-31G*
  Basis Set:
  Basis Set: 6-31G*
  Basis Set:
  @DF-RHF Final Energy:  -344.57898260216456
    Total Energy =                       -344.5789826021645013
  Basis Set: 6-31G*
  Basis Set:
  Basis Set: 6-31G*
  Basis Set:
  @DF-RHF Final Energy:  -344.57898377700155
    Total Energy =                       -344.5789837770013264
  Basis Set: 6-31G*
  Basis Set:
  Charge       = 0
  Multiplicity = 1
  Basis Set: 6-31G*
  Basis Set:

    Orbital Energies (a.u.)
    -----------------------

    Doubly Occupied:

       1A    -20.577540     2A    -11.291686     3A    -11.278134
       4A    -11.233141     5A    -11.231595     6A    -11.224549
       7A    -11.221310     8A    -11.220159     9A     -1.405933
      10A     -1.146090    11A     -1.019705    12A     -1.013278
      13A     -0.938694    14A     -0.831783    15A     -0.804995
      16A     -0.717760    17A     -0.664056    18A     -0.661564
      19A     -0.648040    20A     -0.614187    21A     -0.590035
      22A     -0.581054    23A     -0.525440    24A     -0.513362
      25A     -0.507044    26A     -0.480000    27A     -0.449784
      28A     -0.334385    29A     -0.308842

  @DF-RHF Final Energy:  -344.57898391021894

   => Energetics <=

    Nuclear Repulsion Energy =            347.6489736614005892
    One-Electron Energy =               -1156.3876246918639481
    Two-Electron Energy =                 464.1596671202441939
    DFT Exchange-Correlation Energy =       0.0000000000000000
    Empirical Dispersion Energy =           0.0000000000000000
    PCM Polarization Energy =               0.0000000000000000
    EFP Energy =                            0.0000000000000000
    Total Energy =                       -344.5789839102192218
    Molecular point group: c1
  Basis Set: 6-31G*
  Basis Set:

  -Total Gradient:
     Atom            X                  Y                   Z
    ------   -----------------  -----------------  -----------------
       1       -0.000004965421    -0.000004731263    -0.000004663118
       2       -0.000001306103    -0.000018152238    -0.000017015968
       3       -0.000023608839     0.000019227150     0.000011503144
       4        0.000020587985    -0.000003393685     0.000006652110
       5       -0.000004342301    -0.000007108180     0.000010152676
       6        0.000009114951    -0.000015881402    -0.000019083340
       7       -0.000004863505     0.000001375677    -0.000004701448
       8        0.000011446268     0.000018839972    -0.000003772899
       9       -0.000002380685     0.000003080723     0.000010894672
      10       -0.001515014505     0.000454017430    -0.001313134564
      11       -0.000004810466    -0.000004539377    -0.000006212050
      12        0.001771086475    -0.000403317522     0.002049654109
      13        0.001780555378    -0.001152235174    -0.001028747716
      14       -0.002029662098     0.001120635187     0.000303554803
      15       -0.000005850983    -0.000007354755     0.000000775166
      16        0.000004013843    -0.000000462544     0.000004144427

  **** Optimization is complete! (in 10 steps) ****
    Final optimized geometry and variables:
    Molecular point group: c1

    Geometry (in Angstrom), charge = 0, multiplicity = 1:

    H           -2.331891220984    -0.489641281133     2.352607223664
    C           -1.584683784210    -0.379340149656     1.587848388525
    C           -1.700286234094    -1.067523804663     0.388171866479
    C           -0.493347983691     0.446225378716     1.788974362030
    H           -2.542375803716    -1.714872706259     0.218721194764
    C           -0.744761454581    -0.924067051461    -0.599979136174
    H           -0.384623148977     0.977797240875     2.717724651674
    C            0.477460373785     0.591434501719     0.808479755532
    H           -0.823656034548    -1.447456475748    -1.534651606633
    C            0.345985356612    -0.089354758349    -0.393072513847
    H            1.332836059865     1.216224163716     0.988306232016
    O            1.266519125365    -0.024463029206    -1.383258651893
    C            1.892749755265     1.196290375441    -1.686471724507
    H            1.818807294482     1.349678854921    -2.755249639048
    H            2.935575821500     1.163641422101    -1.394902016174
    H            1.409007315546     2.027812929218    -1.190187497606

  Mulliken Charges: (a.u.)
   Center  Symbol    Alpha    Beta     Spin     Total
       1     H     0.40087  0.40087  0.00000  0.19827
       2     C     3.11041  3.11041  0.00000 -0.22082
       3     C     3.09338  3.09338  0.00000 -0.18676
       4     C     3.09288  3.09288  0.00000 -0.18576
       5     H     0.39871  0.39871  0.00000  0.20258
       6     C     3.12454  3.12454  0.00000 -0.24909
       7     H     0.39928  0.39928  0.00000  0.20143
       8     C     3.13460  3.13460  0.00000 -0.26920
       9     H     0.39330  0.39330  0.00000  0.21340
      10     C     2.78930  2.78930  0.00000  0.42139
      11     H     0.39752  0.39752  0.00000  0.20496
      12     O     4.33126  4.33126  0.00000 -0.66251
      13     C     3.08613  3.08613  0.00000 -0.17226
      14     H     0.41108  0.41108  0.00000  0.17784
      15     H     0.41688  0.41688  0.00000  0.16624
      16     H     0.41985  0.41985  0.00000  0.16029

   Total alpha = 29.00000, Total beta = 29.00000, Total charge = -0.00000
