  ==> Input File <==

--------------------------------------------------------------------------
set {
	reference rhf
	basis 6-31G*
}

set_num_threads( 4 )
memory 2 gb

molecule MOL {
0 1

H	 1.971324	 -0.889203	 1.188305
C	 1.951159	 -0.223429	 0.317018
C	 0.692068	 0.589600	 0.160137
O	 2.880155	 -0.180379	 -0.422741
C	 -0.558097	 -0.297372	 0.091132
H	 0.791645	 1.202255	 -0.728243
H	 0.616171	 1.253469	 1.020572
C	 -1.850991	 0.512573	 -0.019058
H	 -0.476753	 -0.965681	 -0.762987
H	 -0.604799	 -0.930658	 0.975228
C	 -3.096943	 -0.368295	 -0.099594
H	 -1.800724	 1.150330	 -0.898172
H	 -1.931651	 1.177355	 0.838044
H	 -3.060452	 -1.020287	 -0.967456
H	 -3.996858	 0.233488	 -0.175704
H	 -3.191959	 -0.995686	 0.782074

	symmetry c1
}
set optking {
	frozen_dihedral = ("
		4 2 3 6
	")
}

ee = optimize('scf')
oeprop('DIPOLE', 'QUADRUPOLE', 'MULLIKEN_CHARGES')
f=open( 'psi4out.xyz', 'w' )
f.write( "16  " )
f.write( str(ee) + "\n" )
f.write( MOL.save_string_xyz() )
f.close()
--------------------------------------------------------------------------

    Molecular point group: c1
  Charge       = 0
  Multiplicity = 1
  Basis Set: 6-31G*
  Basis Set:
  @DF-RHF Final Energy:  -270.01992612584172
    Total Energy =                       -270.0199261258420620
    Molecular point group: c1
  Basis Set: 6-31G*
  Basis Set:
  Basis Set: 6-31G*
  Basis Set:
  @DF-RHF Final Energy:  -270.01988008822178
    Total Energy =                       -270.0198800882217256
  Basis Set: 6-31G*
  Basis Set:
  Basis Set: 6-31G*
  Basis Set:
  @DF-RHF Final Energy:  -270.01992647541874
    Total Energy =                       -270.0199264754186856
  Basis Set: 6-31G*
  Basis Set:
  Basis Set: 6-31G*
  Basis Set:
  @DF-RHF Final Energy:  -270.01992460044136
    Total Energy =                       -270.0199246004412998
  Basis Set: 6-31G*
  Basis Set:
  Basis Set: 6-31G*
  Basis Set:
  @DF-RHF Final Energy:  -270.01992725202069
    Total Energy =                       -270.0199272520206932
  Basis Set: 6-31G*
  Basis Set:
  Charge       = 0
  Multiplicity = 1
  Basis Set: 6-31G*
  Basis Set:

    Orbital Energies (a.u.)
    -----------------------

    Doubly Occupied:

       1A    -20.562487     2A    -11.326551     3A    -11.236694
       4A    -11.235255     5A    -11.229397     6A    -11.218491
       7A     -1.402272     8A     -1.096598     9A     -1.018952
      10A     -0.906021    11A     -0.812169    12A     -0.793573
      13A     -0.678120    14A     -0.647314    15A     -0.630317
      16A     -0.602977    17A     -0.581874    18A     -0.550500
      19A     -0.527779    20A     -0.508917    21A     -0.487921
      22A     -0.481994    23A     -0.478551    24A     -0.409056

  @DF-RHF Final Energy:  -270.01992736208206

   => Energetics <=

    Nuclear Repulsion Energy =            228.8509095740612622
    One-Electron Energy =                -818.8941118955351612
    Two-Electron Energy =                 320.0232749593920971
    DFT Exchange-Correlation Energy =       0.0000000000000000
    Empirical Dispersion Energy =           0.0000000000000000
    PCM Polarization Energy =               0.0000000000000000
    EFP Energy =                            0.0000000000000000
    Total Energy =                       -270.0199273620818303
    Molecular point group: c1
  Basis Set: 6-31G*
  Basis Set:

  -Total Gradient:
     Atom            X                  Y                   Z
    ------   -----------------  -----------------  -----------------
       1        0.000000996366    -0.000002064133     0.000005678046
       2        0.000019208790     0.000036657801     0.000020149758
       3       -0.000008554874    -0.000035825671    -0.000025088234
       4        0.000003268205    -0.000023814060    -0.000021740636
       5        0.000000103661     0.000013548911     0.000030065853
       6        0.000010640390     0.000024099990     0.000014820696
       7       -0.000004125062    -0.000002951829     0.000002601151
       8       -0.000000555263    -0.000016986406    -0.000037237344
       9        0.000000793276     0.000014907023     0.000003466793
      10       -0.000004720085    -0.000011980707     0.000001518509
      11       -0.000012900175     0.000012729556     0.000012220865
      12       -0.000007389086     0.000002442699    -0.000004453794
      13        0.000007511598    -0.000008975639    -0.000005788865
      14        0.000003895362     0.000006388462    -0.000002066080
      15       -0.000008609993    -0.000004189549     0.000003382375
      16        0.000000436886    -0.000003986446     0.000002470908

  **** Optimization is complete! (in 6 steps) ****
    Final optimized geometry and variables:
    Molecular point group: c1

    Geometry (in Angstrom), charge = 0, multiplicity = 1:

    H            1.967964597305    -0.889991684965     1.189049698528
    C            1.951050729002    -0.221806677203     0.319669247361
    C            0.692663945070     0.591474714996     0.160099655875
    O            2.881364148771    -0.179395954313    -0.418506722866
    C           -0.557102898192    -0.295940467012     0.088479190191
    H            0.793933687416     1.203644215527    -0.728374585703
    H            0.614757714216     1.255553731570     1.020137973464
    C           -1.850222707771     0.513780699787    -0.019608229704
    H           -0.475183689578    -0.962307109735    -0.767137892584
    H           -0.603555767902    -0.931232172981     0.971129095115
    C           -3.096046703139    -0.367364528523    -0.097488775949
    H           -1.801585731844     1.151122982951    -0.899141456556
    H           -1.929477250759     1.179104624235     0.837248482013
    H           -3.060922048833    -1.020229382941    -0.964734616323
    H           -3.996103773016     0.234298980715    -0.172766961137
    H           -3.189714178132    -0.994034027314     0.784816945311

  Mulliken Charges: (a.u.)
   Center  Symbol    Alpha    Beta     Spin     Total
       1     H     0.43206  0.43206  0.00000  0.13588
       2     C     2.82988  2.82988  0.00000  0.34025
       3     C     3.20792  3.20792  0.00000 -0.41585
       4     O     4.23709  4.23709  0.00000 -0.47417
       5     C     3.16435  3.16435  0.00000 -0.32871
       6     H     0.39930  0.39930  0.00000  0.20140
       7     H     0.40992  0.40992  0.00000  0.18016
       8     C     3.15153  3.15153  0.00000 -0.30306
       9     H     0.41272  0.41272  0.00000  0.17455
      10     H     0.41933  0.41933  0.00000  0.16133
      11     C     3.24049  3.24049  0.00000 -0.48098
      12     H     0.41831  0.41831  0.00000  0.16337
      13     H     0.42089  0.42089  0.00000  0.15822
      14     H     0.41925  0.41925  0.00000  0.16150
      15     H     0.41640  0.41640  0.00000  0.16721
      16     H     0.42055  0.42055  0.00000  0.15889

   Total alpha = 24.00000, Total beta = 24.00000, Total charge =  0.00000
