  ==> Input File <==

--------------------------------------------------------------------------
set {
	reference rhf
	basis 6-31G*
}

set_num_threads( 1 )
memory 2 gb

molecule MOL {
0 1

O	 3.225979	 0.970355	 -0.599647
C	 2.701189	 0.057885	 -0.047330
C	 1.245376	 -0.013843	 0.345420
O	 3.347903	 -1.046386	 0.304773
C	 0.455112	 1.231400	 -0.050772
H	 0.838542	 -0.913825	 -0.103701
H	 1.208210	 -0.175333	 1.419774
C	 -0.998893	 1.219485	 0.433193
H	 0.482531	 1.345121	 -1.130325
H	 0.957290	 2.103070	 0.354729
C	 -2.009164	 1.828231	 -0.543481
H	 -1.046535	 1.769720	 1.370046
H	 -1.294381	 0.198011	 0.668326
C	 -3.426264	 1.892866	 0.029799
H	 -1.684807	 2.831867	 -0.814269
H	 -2.029992	 1.254298	 -1.467137
C	 -4.445350	 2.494641	 -0.939459
H	 -3.416482	 2.477369	 0.948218
H	 -3.747110	 0.890948	 0.310723
C	 -5.857209	 2.559110	 -0.357912
H	 -4.125749	 3.495476	 -1.221994
H	 -4.459715	 1.909169	 -1.856409
H	 -6.556285	 2.989941	 -1.068042
H	 -5.883120	 3.167165	 0.541973
H	 -6.219317	 1.568670	 -0.096798
C	 4.728119	 -1.109107	 -0.004993
H	 4.882018	 -1.033965	 -1.071845
H	 5.068212	 -2.067527	 0.355250
H	 5.265056	 -0.311663	 0.488280

	symmetry c1
}
set optking {
	frozen_dihedral = ("
		21 17 14 11,
		17 14 11 15,
		15 11 8 5,
		6 3 5 9,
		2 4 26 27,
		1 2 4 26,
		6 3 2 1
	")
}

ee = energy('scf')
oeprop('DIPOLE', 'QUADRUPOLE', 'MULLIKEN_CHARGES')
f=open( 'psi4out.xyz', 'w' )
f.write( "29  " )
f.write( str(ee) + "\n" )
f.write( MOL.save_string_xyz() )
f.close()
--------------------------------------------------------------------------

    Molecular point group: c1

    Geometry (in Angstrom), charge = 0, multiplicity = 1:

       Center              X                  Y                   Z               Mass
    ------------   -----------------  -----------------  -----------------  -----------------
           O          3.277001649016     0.069969032155    -0.468523325255    15.994914619560
           C          2.752211649016    -0.842500967845     0.083793674745    12.000000000000
           C          1.296398649016    -0.914228967845     0.476543674745    12.000000000000
           O          3.398925649016    -1.946771967845     0.435896674745    15.994914619560
           C          0.506134649016     0.331014032155     0.080351674745    12.000000000000
           H          0.889564649016    -1.814210967845     0.027422674745     1.007825032070
           H          1.259232649016    -1.075718967845     1.550897674745     1.007825032070
           C         -0.947870350984     0.319099032155     0.564316674745    12.000000000000
           H          0.533553649016     0.444735032155    -0.999201325255     1.007825032070
           H          1.008312649016     1.202684032155     0.485852674745     1.007825032070
           C         -1.958141350984     0.927845032155    -0.412357325255    12.000000000000
           H         -0.995512350984     0.869334032155     1.501169674745     1.007825032070
           H         -1.243358350984    -0.702374967845     0.799449674745     1.007825032070
           C         -3.375241350984     0.992480032155     0.160922674745    12.000000000000
           H         -1.633784350984     1.931481032155    -0.683145325255     1.007825032070
           H         -1.978969350984     0.353912032155    -1.336013325255     1.007825032070
           C         -4.394327350984     1.594255032155    -0.808335325255    12.000000000000
           H         -3.365459350984     1.576983032155     1.079341674745     1.007825032070
           H         -3.696087350984    -0.009437967845     0.441846674745     1.007825032070
           C         -5.806186350984     1.658724032155    -0.226788325255    12.000000000000
           H         -4.074726350984     2.595090032155    -1.090870325255     1.007825032070
           H         -4.408692350984     1.008783032155    -1.725285325255     1.007825032070
           H         -6.505262350984     2.089555032155    -0.936918325255     1.007825032070
           H         -5.832097350984     2.266779032155     0.673096674745     1.007825032070
           H         -6.168294350984     0.668284032155     0.034325674745     1.007825032070
           C          4.779141649016    -2.009492967845     0.126130674745    12.000000000000
           H          4.933040649016    -1.934350967845    -0.940721325255     1.007825032070
           H          5.119234649016    -2.967912967845     0.486373674745     1.007825032070
           H          5.316078649016    -1.212048967845     0.619403674745     1.007825032070

  Charge       = 0
  Multiplicity = 1
  Basis Set: 6-31G*
  Basis Set:

    Orbital Energies (a.u.)
    -----------------------

    Doubly Occupied:

       1A    -20.603467     2A    -20.545333     3A    -11.372004
       4A    -11.280768     5A    -11.235958     6A    -11.217965
       7A    -11.216530     8A    -11.215055     9A    -11.214764
      10A    -11.213199    11A    -11.208247    12A     -1.469184
      13A     -1.362611    14A     -1.096201    15A     -1.067097
      16A     -1.020140    17A     -0.977497    18A     -0.927210
      19A     -0.856675    20A     -0.800472    21A     -0.790083
      22A     -0.766755    23A     -0.698267    24A     -0.682767
      25A     -0.672000    26A     -0.653215    27A     -0.629466
      28A     -0.598581    29A     -0.595176    30A     -0.583023
      31A     -0.565942    32A     -0.549169    33A     -0.530067
      34A     -0.528576    35A     -0.514924    36A     -0.510938
      37A     -0.495699    38A     -0.477116    39A     -0.467157
      40A     -0.461093    41A     -0.460136    42A     -0.455239
      43A     -0.445019    44A     -0.431905

  @DF-RHF Final Energy:  -501.04135917663859

   => Energetics <=

    Nuclear Repulsion Energy =            602.0068355648494389
    One-Electron Energy =               -1875.1710111166855768
    Two-Electron Energy =                 772.1228163751949296
    DFT Exchange-Correlation Energy =       0.0000000000000000
    Empirical Dispersion Energy =           0.0000000000000000
    PCM Polarization Energy =               0.0000000000000000
    EFP Energy =                            0.0000000000000000
    Total Energy =                       -501.0413591766413219

  Mulliken Charges: (a.u.)
   Center  Symbol    Alpha    Beta     Spin     Total
       1     O     4.28582  4.28582  0.00000 -0.57165
       2     C     2.60538  2.60538  0.00000  0.78923
       3     C     3.20990  3.20990  0.00000 -0.41980
       4     O     4.30762  4.30762  0.00000 -0.61524
       5     C     3.15440  3.15440  0.00000 -0.30880
       6     H     0.40017  0.40017  0.00000  0.19965
       7     H     0.40047  0.40047  0.00000  0.19907
       8     C     3.15617  3.15617  0.00000 -0.31235
       9     H     0.41139  0.41139  0.00000  0.17722
      10     H     0.40901  0.40901  0.00000  0.18197
      11     C     3.15351  3.15351  0.00000 -0.30701
      12     H     0.42060  0.42060  0.00000  0.15881
      13     H     0.42327  0.42327  0.00000  0.15345
      14     C     3.15152  3.15152  0.00000 -0.30304
      15     H     0.42131  0.42131  0.00000  0.15737
      16     H     0.42277  0.42277  0.00000  0.15446
      17     C     3.15149  3.15149  0.00000 -0.30298
      18     H     0.42382  0.42382  0.00000  0.15237
      19     H     0.42427  0.42427  0.00000  0.15146
      20     C     3.23925  3.23925  0.00000 -0.47849
      21     H     0.42255  0.42255  0.00000  0.15490
      22     H     0.42315  0.42315  0.00000  0.15371
      23     H     0.41925  0.41925  0.00000  0.16150
      24     H     0.42178  0.42178  0.00000  0.15644
      25     H     0.42202  0.42202  0.00000  0.15596
      26     C     3.09243  3.09243  0.00000 -0.18487
      27     H     0.40907  0.40907  0.00000  0.18187
      28     H     0.40849  0.40849  0.00000  0.18302
      29     H     0.40911  0.40911  0.00000  0.18177

   Total alpha = 44.00000, Total beta = 44.00000, Total charge = -0.00000
