  ==> Input File <==

--------------------------------------------------------------------------
set {
	reference rhf
	basis 6-31G*
}

set_num_threads( 1 )
memory 2 gb

molecule MOL {
0 1

H	 3.463771	 0.168298	 -0.756243
C	 2.752674	 -0.045734	 0.033351
C	 1.322923	 0.120767	 -0.479465
H	 2.934561	 -1.059086	 0.377456
H	 2.958358	 0.631174	 0.856809
C	 0.306652	 -0.176050	 0.621399
H	 1.144658	 -0.551717	 -1.312180
H	 1.166477	 1.131798	 -0.836680
N	 -1.068537	 -0.011044	 0.085269
H	 0.372515	 -1.192590	 0.973735
H	 0.391664	 0.520566	 1.441230
O	 -1.207322	 -0.054049	 -1.098058
O	 -1.938282	 0.186015	 0.878197

	symmetry c1
}
set optking {
	frozen_dihedral = ("
		7 3 6 9
	")
}

ee = energy('scf')
oeprop('DIPOLE', 'QUADRUPOLE', 'MULLIKEN_CHARGES')
f=open( 'psi4out.xyz', 'w' )
f.write( "13  " )
f.write( str(ee) + "\n" )
f.write( MOL.save_string_xyz() )
f.close()
--------------------------------------------------------------------------

    Molecular point group: c1

    Geometry (in Angstrom), charge = 0, multiplicity = 1:

       Center              X                  Y                   Z               Mass
    ------------   -----------------  -----------------  -----------------  -----------------
           H          3.465570005517     0.163922557369    -0.762203177973     1.007825032070
           C          2.754473005517    -0.050109442631     0.027390822027    12.000000000000
           C          1.324722005517     0.116391557369    -0.485425177973    12.000000000000
           H          2.936360005517    -1.063461442631     0.371495822027     1.007825032070
           H          2.960157005517     0.626798557369     0.850848822027     1.007825032070
           C          0.308451005517    -0.180425442631     0.615438822027    12.000000000000
           H          1.146457005517    -0.556092442631    -1.318140177973     1.007825032070
           H          1.168276005517     1.127422557369    -0.842640177973     1.007825032070
           N         -1.066737994483    -0.015419442631     0.079308822027    14.003074004780
           H          0.374314005517    -1.196965442631     0.967774822027     1.007825032070
           H          0.393463005517     0.516190557369     1.435269822027     1.007825032070
           O         -1.205522994483    -0.058424442631    -1.104018177973    15.994914619560
           O         -1.936482994483     0.181639557369     0.872236822027    15.994914619560

  Charge       = 0
  Multiplicity = 1
  Basis Set: 6-31G*
  Basis Set:

    Orbital Energies (a.u.)
    -----------------------

    Doubly Occupied:

       1A    -20.603161     2A    -20.600468     3A    -15.848769
       4A    -11.300378     5A    -11.247549     6A    -11.235147
       7A     -1.632168     8A     -1.417963     9A     -1.133632
      10A     -1.025819    11A     -0.882672    12A     -0.824151
      13A     -0.762187    14A     -0.749526    15A     -0.726518
      16A     -0.657506    17A     -0.604656    18A     -0.580588
      19A     -0.550366    20A     -0.519006    21A     -0.510229
      22A     -0.484298    23A     -0.472734    24A     -0.449116

  @DF-RHF Final Energy:  -321.73336404585694

   => Energetics <=

    Nuclear Repulsion Energy =            248.1853497064686849
    One-Electron Energy =                -930.2002775475436920
    Two-Electron Energy =                 360.2815637952181191
    DFT Exchange-Correlation Energy =       0.0000000000000000
    Empirical Dispersion Energy =           0.0000000000000000
    PCM Polarization Energy =               0.0000000000000000
    EFP Energy =                            0.0000000000000000
    Total Energy =                       -321.7333640458568311

  Mulliken Charges: (a.u.)
   Center  Symbol    Alpha    Beta     Spin     Total
       1     H     0.40823  0.40823  0.00000  0.18355
       2     C     3.24872  3.24872  0.00000 -0.49744
       3     C     3.16703  3.16703  0.00000 -0.33406
       4     H     0.41729  0.41729  0.00000  0.16543
       5     H     0.41761  0.41761  0.00000  0.16478
       6     C     3.09143  3.09143  0.00000 -0.18286
       7     H     0.39621  0.39621  0.00000  0.20757
       8     H     0.40500  0.40500  0.00000  0.19000
       9     N     3.22206  3.22206  0.00000  0.55588
      10     H     0.38467  0.38467  0.00000  0.23066
      11     H     0.38526  0.38526  0.00000  0.22948
      12     O     4.22703  4.22703  0.00000 -0.45406
      13     O     4.22946  4.22946  0.00000 -0.45892

   Total alpha = 24.00000, Total beta = 24.00000, Total charge = -0.00000
