                              Psi4 1.0.54 Driver

  ==> Input File <==

--------------------------------------------------------------------------
set {
	reference rhf
	basis cc-pvtz
}

set_num_threads( 4 )
memory 2 gb

molecule MOL {
0 1

H	 3.283750	 -0.486419	 -0.006941
C	 2.228218	 -0.291958	 -0.005294
C	 1.765747	 0.998519	 0.204760
C	 1.339195	 -1.327498	 -0.212206
H	 2.462852	 1.798028	 0.364837
C	 0.412456	 1.252282	 0.207644
H	 1.699818	 -2.324554	 -0.374398
C	 -0.019631	 -1.071079	 -0.209029
H	 0.035693	 2.242701	 0.368193
C	 -0.486398	 0.214248	 0.000000
H	 -0.717138	 -1.872288	 -0.369413
C	 -1.946525	 0.470130	 0.000000
O	 -2.779618	 -0.371226	 0.000000
H	 -2.227127	 1.528393	 0.000000

	symmetry c1
}
set optking {
	frozen_dihedral = ("
		8 10 12 14
	")
}

ee,wfn = optimize('scf', return_wfn=True)
oeprop( wfn, 'DIPOLE', 'QUADRUPOLE', 'MULLIKEN_CHARGES')
f=open( 'psi4out.xyz', 'w' )
f.write( "14  " )
f.write( str(ee) + "\n" )
f.write( MOL.save_string_xyz() )
f.close()
--------------------------------------------------------------------------

    Molecular point group: c1
  Charge       = 0
  Multiplicity = 1
  Basis Set: CC-PVTZ
  Basis Set:
  @DF-RHF Final Energy:  -343.54948505748541
    Total Energy =                       -343.5494850574855832
    Molecular point group: c1
  Basis Set: CC-PVTZ
  Basis Set:
  Basis Set: CC-PVTZ
  Basis Set:
  @DF-RHF Final Energy:  -343.54911340940305
    Total Energy =                       -343.5491134094028780
  Basis Set: CC-PVTZ
  Basis Set:
  Basis Set: CC-PVTZ
  Basis Set:
  @DF-RHF Final Energy:  -343.54956338489768
    Total Energy =                       -343.5495633848978514
  Basis Set: CC-PVTZ
  Basis Set:
  Basis Set: CC-PVTZ
  Basis Set:
  @DF-RHF Final Energy:  -343.54979913158877
    Total Energy =                       -343.5497991315887134
  Basis Set: CC-PVTZ
  Basis Set:
  Basis Set: CC-PVTZ
  Basis Set:
  @DF-RHF Final Energy:  -343.54980497839159
    Total Energy =                       -343.5498049783912506
  Basis Set: CC-PVTZ
  Basis Set:
  Charge       = 0
  Multiplicity = 1
  Basis Set: CC-PVTZ
  Basis Set:

    Orbital Energies (a.u.)
    -----------------------

    Doubly Occupied:

       1A    -20.552848     2A    -11.327036     3A    -11.252637
       4A    -11.250146     5A    -11.246702     6A    -11.245416
       7A    -11.243921     8A    -11.242328     9A     -1.408708
      10A     -1.177129    11A     -1.051809    12A     -1.036212
      13A     -0.892714    14A     -0.848455    15A     -0.794567
      16A     -0.725557    17A     -0.682355    18A     -0.656594
      19A     -0.623774    20A     -0.621338    21A     -0.606113
      22A     -0.561662    23A     -0.530279    24A     -0.510167
      25A     -0.508412    26A     -0.425582    27A     -0.355805
      28A     -0.352594

  @DF-RHF Final Energy:  -343.54980640525901

   => Energetics <=

    Nuclear Repulsion Energy =            323.9527721559898055
    One-Electron Energy =               -1107.5434422328105484
    Two-Electron Energy =                 440.0408636715615103
    DFT Exchange-Correlation Energy =       0.0000000000000000
    Empirical Dispersion Energy =           0.0000000000000000
    PCM Polarization Energy =               0.0000000000000000
    EFP Energy =                            0.0000000000000000
    Total Energy =                       -343.5498064052592326
    Molecular point group: c1
  Basis Set: CC-PVTZ
  Basis Set:

  -Total Gradient:
     Atom            X                  Y                   Z
    ------   -----------------  -----------------  -----------------
       1       -0.000004219509    -0.000003941448     0.000010246077
       2       -0.000014712668    -0.000010237477    -0.000036747359
       3       -0.000007709346     0.000033073530    -0.000023910390
       4        0.000011141353     0.000015671091     0.000036629876
       5        0.000001540681    -0.000005403026    -0.000000645848
       6       -0.000005123466    -0.000010974163     0.000076632109
       7       -0.000000662902    -0.000000563260    -0.000005006354
       8        0.000104504539     0.000319537964    -0.001515530013
       9        0.000014708500    -0.000011241217    -0.000015527128
      10       -0.000107935762    -0.000457144493     0.001638354568
      11       -0.000011132657    -0.000001649407    -0.000007020040
      12       -0.000014333371     0.000085468106     0.001680295604
      13       -0.000014543958     0.000000254531     0.000020356459
      14        0.000048478564     0.000047149266    -0.001858127562

  **** Optimization is complete! (in 6 steps) ****
    Final optimized geometry and variables:
    Molecular point group: c1

    Geometry (in Angstrom), charge = 0, multiplicity = 1:

    H            3.291056909027    -0.458919946252     0.015390351203
    C            2.235028821141    -0.266918394727     0.014478024567
    C            1.769887138683     1.014906885456     0.228267088675
    C            1.345823316902    -1.308457011577    -0.205280792464
    H            2.459732502908     1.819065717528     0.395654232227
    C            0.408213318734     1.257108537728     0.220259329051
    H            1.715212304404    -2.301054608493    -0.376181786539
    C           -0.009686009214    -1.067153518588    -0.205470770602
    H            0.039929385651     2.254030616935     0.377870762212
    C           -0.483208641716     0.220034575566     0.013048329805
    H           -0.712416221215    -1.859289297615    -0.371485778692
    C           -1.939292111143     0.500362258592    -0.004034267434
    O           -2.785186481045    -0.326592442496    -0.048986497513
    H           -2.201815115478     1.563425683835     0.006708506157

  Mulliken Charges: (a.u.)
   Center  Symbol    Alpha    Beta     Spin     Total
       1     H     0.41952  0.41952  0.00000  0.16097
       2     C     3.06988  3.06988  0.00000 -0.13976
       3     C     3.07360  3.07360  0.00000 -0.14721
       4     C     3.07236  3.07236  0.00000 -0.14472
       5     H     0.42059  0.42059  0.00000  0.15883
       6     C     3.08730  3.08730  0.00000 -0.17460
       7     H     0.41953  0.41953  0.00000  0.16093
       8     C     3.08014  3.08014  0.00000 -0.16028
       9     H     0.42296  0.42296  0.00000  0.15408
      10     C     2.98421  2.98421  0.00000  0.03157
      11     H     0.40880  0.40880  0.00000  0.18241
      12     C     2.91016  2.91016  0.00000  0.17969
      13     O     4.17255  4.17255  0.00000 -0.34510
      14     H     0.45841  0.45841  0.00000  0.08318

   Total alpha = 28.00000, Total beta = 28.00000, Total charge =  0.00000

*** Psi4 exiting successfully. Buy a developer a beer!
