  ==> Input File <==

--------------------------------------------------------------------------
set {
	reference rhf
	basis cc-pvtz
}

set_num_threads( 4 )
memory 2 gb

molecule MOL {
0 1

H	 -3.162190	 0.493205	 -0.000107
C	 -2.363908	 -0.234727	 0.000005
O	 -1.158738	 0.454634	 -0.000087
H	 -2.464314	 -0.863616	 -0.882153
H	 -2.464327	 -0.863359	 0.882345
C	 -0.028611	 -0.359694	 0.000037
C	 1.212847	 0.509314	 -0.000053
H	 -0.034155	 -1.007047	 -0.877198
H	 -0.034195	 -1.006836	 0.877430
C	 1.455617	 1.177788	 -1.348592
H	 1.109123	 1.259919	 0.775678
H	 2.064424	 -0.104916	 0.271037
H	 0.624889	 1.817161	 -1.628199
H	 2.347401	 1.791747	 -1.320396
H	 1.586871	 0.443217	 -2.136149

	symmetry c1
}
set optking {
	frozen_dihedral = ("
		11 7 6 8
	")
}

ee = optimize('scf')
oeprop('DIPOLE', 'QUADRUPOLE', 'MULLIKEN_CHARGES')
f=open( 'psi4out.xyz', 'w' )
f.write( "15  " )
f.write( str(ee) + "\n" )
f.write( MOL.save_string_xyz() )
f.close()
--------------------------------------------------------------------------

    Molecular point group: c1
  Charge       = 0
  Multiplicity = 1
  Basis Set: CC-PVTZ
  Basis Set:
  @DF-RHF Final Energy:  -232.22765608325034
    Total Energy =                       -232.2276560832502810
    Molecular point group: c1
  Basis Set: CC-PVTZ
  Basis Set:
  Basis Set: CC-PVTZ
  Basis Set:
  @DF-RHF Final Energy:  -232.22779452859200
    Total Energy =                       -232.2277945285921987
  Basis Set: CC-PVTZ
  Basis Set:
  Basis Set: CC-PVTZ
  Basis Set:
  @DF-RHF Final Energy:  -232.22782386176272
    Total Energy =                       -232.2278238617626016
  Basis Set: CC-PVTZ
  Basis Set:
  Charge       = 0
  Multiplicity = 1
  Basis Set: CC-PVTZ
  Basis Set:

    Orbital Energies (a.u.)
    -----------------------

    Doubly Occupied:

       1A    -20.547795     2A    -11.264785     3A    -11.262094
       4A    -11.213414     5A    -11.202969     6A     -1.381818
       7A     -1.055451     8A     -0.951839     9A     -0.885046
      10A     -0.801422    11A     -0.671274    12A     -0.664044
      13A     -0.634044    14A     -0.589817    15A     -0.571584
      16A     -0.546607    17A     -0.498703    18A     -0.484111
      19A     -0.481468    20A     -0.461025    21A     -0.416107

  @DF-RHF Final Energy:  -232.22782442706284

   => Energetics <=

    Nuclear Repulsion Energy =            192.7564856405810474
    One-Electron Energy =                -696.7977827791362415
    Two-Electron Energy =                 271.8134727114923521
    DFT Exchange-Correlation Energy =       0.0000000000000000
    Empirical Dispersion Energy =           0.0000000000000000
    PCM Polarization Energy =               0.0000000000000000
    EFP Energy =                            0.0000000000000000
    Total Energy =                       -232.2278244270628420
    Molecular point group: c1
  Basis Set: CC-PVTZ
  Basis Set:

  -Total Gradient:
     Atom            X                  Y                   Z
    ------   -----------------  -----------------  -----------------
       1       -0.000000244882    -0.000005646498     0.000001274149
       2       -0.000059280393     0.000000868431    -0.000019050015
       3        0.000074513380    -0.000062021383    -0.000039962082
       4       -0.000002866120     0.000001136230     0.000006514335
       5        0.000009552520     0.000004220777    -0.000001791606
       6        0.001030309223    -0.001480953285     0.001155197096
       7        0.000959253398    -0.001219069270     0.001429800767
       8       -0.001077235328     0.001505041555    -0.001116684205
       9        0.000044558193    -0.000023658587    -0.000007593011
      10       -0.000025730432    -0.000002705941    -0.000011753403
      11       -0.000961647624     0.001293566754    -0.001385923596
      12        0.000003854661    -0.000010650168     0.000005142700
      13        0.000000605073     0.000010094065    -0.000003691934
      14       -0.000005606345    -0.000012395357     0.000005681174
      15        0.000009964677     0.000002172677    -0.000017160369

  **** Optimization is complete! (in 4 steps) ****
    Final optimized geometry and variables:
    Molecular point group: c1

    Geometry (in Angstrom), charge = 0, multiplicity = 1:

    H           -2.947870917533     0.201163226460     0.259936013140
    C           -2.152457501966    -0.530096213583     0.260522915998
    O           -0.944315400289     0.153027231301     0.280718269312
    H           -2.246562707881    -1.149473208801    -0.629059557830
    H           -2.265049610607    -1.167729840771     1.135087522184
    C            0.184242483501    -0.667925196152     0.292247081454
    C            1.429964617591     0.198360441434     0.265039416084
    H            0.162427158427    -1.323791407760    -0.578377279411
    H            0.177018533288    -1.294692428909     1.182482710507
    C            1.658331048188     0.882413929830    -1.079536153882
    H            1.330973637440     0.952670022114     1.037977253671
    H            2.286912098469    -0.418283617781     0.517180009950
    H            0.811053356770     1.501323727418    -1.345653574333
    H            2.538998236033     1.513489597349    -1.048517420823
    H            1.802462511502     0.152711121545    -1.869922864037

  Mulliken Charges: (a.u.)
   Center  Symbol    Alpha    Beta     Spin     Total
       1     H     0.44723  0.44723  0.00000  0.10554
       2     C     3.03245  3.03245  0.00000 -0.06490
       3     O     4.17568  4.17568  0.00000 -0.35136
       4     H     0.47207  0.47207  0.00000  0.05586
       5     H     0.47157  0.47157  0.00000  0.05687
       6     C     2.96923  2.96923  0.00000  0.06154
       7     C     3.07947  3.07947  0.00000 -0.15894
       8     H     0.47471  0.47471  0.00000  0.05059
       9     H     0.46506  0.46506  0.00000  0.06987
      10     C     3.15066  3.15066  0.00000 -0.30132
      11     H     0.45214  0.45214  0.00000  0.09573
      12     H     0.45471  0.45471  0.00000  0.09057
      13     H     0.44648  0.44648  0.00000  0.10704
      14     H     0.45017  0.45017  0.00000  0.09965
      15     H     0.45837  0.45837  0.00000  0.08326

   Total alpha = 21.00000, Total beta = 21.00000, Total charge = -0.00000
