  ==> Input File <==

--------------------------------------------------------------------------
set {
	reference rhf
	basis 6-31G*
}

set_num_threads( 1 )
memory 2 gb

molecule MOL {
0 1

H	 -3.261111	 -0.295142	 1.469456
C	 -3.306842	 -0.277400	 0.373456
C	 -2.660244	 0.921717	 -0.272021
O	 -3.838538	 -1.161155	 -0.216482
C	 -1.220012	 1.144545	 0.209990
H	 -2.705793	 0.797307	 -1.347733
H	 -3.263782	 1.790044	 -0.010477
C	 -0.252658	 0.041456	 -0.226725
H	 -0.873521	 2.100229	 -0.171974
H	 -1.211708	 1.231594	 1.295398
C	 1.180775	 0.282413	 0.250794
H	 -0.266029	 -0.034465	 -1.312038
H	 -0.597733	 -0.921000	 0.146291
C	 2.148627	 -0.814315	 -0.201312
H	 1.516199	 1.249228	 -0.115937
H	 1.192670	 0.346017	 1.338083
C	 3.580890	 -0.659131	 0.322722
H	 2.166869	 -0.852443	 -1.289387
H	 1.762857	 -1.776509	 0.128956
C	 4.128408	 0.767860	 0.263214
H	 4.231482	 -1.305936	 -0.260648
H	 3.631201	 -1.023335	 1.346805
H	 4.075390	 1.164292	 -0.747379
H	 3.578864	 1.441522	 0.912179
H	 5.168581	 0.794322	 0.573593

	symmetry c1
}
set optking {
	frozen_dihedral = ("
		6 3 5 8,
		6 3 2 4,
		3 5 8 12,
		12 8 11 14,
		8 11 14 18
	")
}

ee = energy('scf')
oeprop('DIPOLE', 'QUADRUPOLE', 'MULLIKEN_CHARGES')
f=open( 'psi4out.xyz', 'w' )
f.write( "25  " )
f.write( str(ee) + "\n" )
f.write( MOL.save_string_xyz() )
f.close()
--------------------------------------------------------------------------

    Molecular point group: c1

    Geometry (in Angstrom), charge = 0, multiplicity = 1:

       Center              X                  Y                   Z               Mass
    ------------   -----------------  -----------------  -----------------  -----------------
           H         -3.238110568932    -0.318992371667     1.413654517971     1.007825032070
           C         -3.283841568932    -0.301250371667     0.317654517971    12.000000000000
           C         -2.637243568932     0.897866628333    -0.327822482029    12.000000000000
           O         -3.815537568932    -1.185005371667    -0.272283482029    15.994914619560
           C         -1.197011568932     1.120694628333     0.154188517971    12.000000000000
           H         -2.682792568932     0.773456628333    -1.403534482029     1.007825032070
           H         -3.240781568932     1.766193628333    -0.066278482029     1.007825032070
           C         -0.229657568932     0.017605628333    -0.282526482029    12.000000000000
           H         -0.850520568932     2.076378628333    -0.227775482029     1.007825032070
           H         -1.188707568932     1.207743628333     1.239596517971     1.007825032070
           C          1.203775431068     0.258562628333     0.194992517971    12.000000000000
           H         -0.243028568932    -0.058315371667    -1.367839482029     1.007825032070
           H         -0.574732568932    -0.944850371667     0.090489517971     1.007825032070
           C          2.171627431068    -0.838165371667    -0.257113482029    12.000000000000
           H          1.539199431068     1.225377628333    -0.171738482029     1.007825032070
           H          1.215670431068     0.322166628333     1.282281517971     1.007825032070
           C          3.603890431068    -0.682981371667     0.266920517971    12.000000000000
           H          2.189869431068    -0.876293371667    -1.345188482029     1.007825032070
           H          1.785857431068    -1.800359371667     0.073154517971     1.007825032070
           C          4.151408431068     0.744009628333     0.207412517971    12.000000000000
           H          4.254482431068    -1.329786371667    -0.316449482029     1.007825032070
           H          3.654201431068    -1.047185371667     1.291003517971     1.007825032070
           H          4.098390431068     1.140441628333    -0.803180482029     1.007825032070
           H          3.601864431068     1.417671628333     0.856377517971     1.007825032070
           H          5.191581431068     0.770471628333     0.517791517971     1.007825032070

  Charge       = 0
  Multiplicity = 1
  Basis Set: 6-31G*
  Basis Set:

    Orbital Energies (a.u.)
    -----------------------

    Doubly Occupied:

       1A    -20.561978     2A    -11.326109     3A    -11.235251
       4A    -11.234576     5A    -11.223715     6A    -11.219637
       7A    -11.217803     8A    -11.216779     9A    -11.210716
      10A     -1.401945    11A     -1.104187    12A     -1.070173
      13A     -1.012361    14A     -0.941691    15A     -0.877979
      16A     -0.822515    17A     -0.787882    18A     -0.776415
      19A     -0.664665    20A     -0.662702    21A     -0.635946
      22A     -0.625198    23A     -0.601382    24A     -0.593118
      25A     -0.575409    26A     -0.550462    27A     -0.536557
      28A     -0.523126    29A     -0.511158    30A     -0.495301
      31A     -0.490457    32A     -0.480343    33A     -0.461169
      34A     -0.458030    35A     -0.441920    36A     -0.409504

  @DF-RHF Final Energy:  -387.11986486268745

   => Energetics <=

    Nuclear Repulsion Energy =            440.7101324656557608
    One-Electron Energy =               -1397.7438344053643959
    Two-Electron Energy =                 569.9138370770224356
    DFT Exchange-Correlation Energy =       0.0000000000000000
    Empirical Dispersion Energy =           0.0000000000000000
    PCM Polarization Energy =               0.0000000000000000
    EFP Energy =                            0.0000000000000000
    Total Energy =                       -387.1198648626861996

  Mulliken Charges: (a.u.)
   Center  Symbol    Alpha    Beta     Spin     Total
       1     H     0.43262  0.43262  0.00000  0.13477
       2     C     2.83082  2.83082  0.00000  0.33836
       3     C     3.20813  3.20813  0.00000 -0.41626
       4     O     4.23777  4.23777  0.00000 -0.47553
       5     C     3.16654  3.16654  0.00000 -0.33309
       6     H     0.39970  0.39970  0.00000  0.20060
       7     H     0.40672  0.40672  0.00000  0.18656
       8     C     3.15443  3.15443  0.00000 -0.30887
       9     H     0.41288  0.41288  0.00000  0.17423
      10     H     0.41969  0.41969  0.00000  0.16062
      11     C     3.15642  3.15642  0.00000 -0.31284
      12     H     0.41807  0.41807  0.00000  0.16385
      13     H     0.41857  0.41857  0.00000  0.16287
      14     C     3.15308  3.15308  0.00000 -0.30617
      15     H     0.41940  0.41940  0.00000  0.16119
      16     H     0.42386  0.42386  0.00000  0.15229
      17     C     3.15193  3.15193  0.00000 -0.30386
      18     H     0.42260  0.42260  0.00000  0.15479
      19     H     0.42034  0.42034  0.00000  0.15933
      20     C     3.24384  3.24384  0.00000 -0.48768
      21     H     0.41990  0.41990  0.00000  0.16019
      22     H     0.42249  0.42249  0.00000  0.15502
      23     H     0.42224  0.42224  0.00000  0.15551
      24     H     0.41952  0.41952  0.00000  0.16095
      25     H     0.41843  0.41843  0.00000  0.16314

   Total alpha = 36.00000, Total beta = 36.00000, Total charge =  0.00000
