  ==> Input File <==

--------------------------------------------------------------------------
set {
	reference rhf
	basis 6-31G*
}

set_num_threads( 1 )
memory 2 gb

molecule MOL {
0 1

H	 0.393942	 2.775193	 1.810357
C	 0.011128	 1.870232	 2.298334
C	 -1.280572	 1.338422	 1.731502
O	 0.606307	 1.382672	 3.203761
C	 -1.220012	 1.144545	 0.209990
H	 -1.522959	 0.413478	 2.241832
H	 -2.057121	 2.064405	 1.969358
C	 -0.252658	 0.041456	 -0.226725
H	 -2.218629	 0.910709	 -0.146899
H	 -0.942140	 2.085066	 -0.263258
C	 1.180775	 0.282413	 0.250794
H	 -0.266029	 -0.034465	 -1.312038
H	 -0.597733	 -0.921000	 0.146291
C	 2.148627	 -0.814315	 -0.201312
H	 1.516199	 1.249228	 -0.115937
H	 1.192670	 0.346017	 1.338083
C	 3.580890	 -0.659131	 0.322722
H	 2.166869	 -0.852443	 -1.289387
H	 1.762857	 -1.776509	 0.128956
C	 4.324889	 0.564933	 -0.213704
H	 4.142010	 -1.551473	 0.056605
H	 3.564836	 -0.624694	 1.410140
H	 4.342616	 0.565491	 -1.300421
H	 3.866655	 1.493402	 0.110242
H	 5.353900	 0.572371	 0.132816

	symmetry c1
}
set optking {
	frozen_dihedral = ("
		6 3 5 8,
		6 3 2 4,
		12 8 11 14,
		8 11 14 18,
		20 17 14 18
	")
}

ee = energy('scf')
oeprop('DIPOLE', 'QUADRUPOLE', 'MULLIKEN_CHARGES')
f=open( 'psi4out.xyz', 'w' )
f.write( "25  " )
f.write( str(ee) + "\n" )
f.write( MOL.save_string_xyz() )
f.close()
--------------------------------------------------------------------------

    Molecular point group: c1

    Geometry (in Angstrom), charge = 0, multiplicity = 1:

       Center              X                  Y                   Z               Mass
    ------------   -----------------  -----------------  -----------------  -----------------
           H         -0.640045033409     2.196784997106     0.980992234018     1.007825032070
           C         -1.022859033409     1.291823997106     1.468969234018    12.000000000000
           C         -2.314559033409     0.760013997106     0.902137234018    12.000000000000
           O         -0.427680033409     0.804263997106     2.374396234018    15.994914619560
           C         -2.253999033409     0.566136997106    -0.619374765982    12.000000000000
           H         -2.556946033409    -0.164930002894     1.412467234018     1.007825032070
           H         -3.091108033409     1.485996997106     1.139993234018     1.007825032070
           C         -1.286645033409    -0.536952002894    -1.056089765982    12.000000000000
           H         -3.252616033409     0.332300997106    -0.976263765982     1.007825032070
           H         -1.976127033409     1.506657997106    -1.092622765982     1.007825032070
           C          0.146787966591    -0.295995002894    -0.578570765982    12.000000000000
           H         -1.300016033409    -0.612873002894    -2.141402765982     1.007825032070
           H         -1.631720033409    -1.499408002894    -0.683073765982     1.007825032070
           C          1.114639966591    -1.392723002894    -1.030676765982    12.000000000000
           H          0.482211966591     0.670819997106    -0.945301765982     1.007825032070
           H          0.158682966591    -0.232391002894     0.508718234018     1.007825032070
           C          2.546902966591    -1.237539002894    -0.506642765982    12.000000000000
           H          1.132881966591    -1.430851002894    -2.118751765982     1.007825032070
           H          0.728869966591    -2.354917002894    -0.700408765982     1.007825032070
           C          3.290901966591    -0.013475002894    -1.043068765982    12.000000000000
           H          3.108022966591    -2.129881002894    -0.772759765982     1.007825032070
           H          2.530848966591    -1.203102002894     0.580775234018     1.007825032070
           H          3.308628966591    -0.012917002894    -2.129785765982     1.007825032070
           H          2.832667966591     0.914993997106    -0.719122765982     1.007825032070
           H          4.319912966591    -0.006037002894    -0.696548765982     1.007825032070

  Charge       = 0
  Multiplicity = 1
  Basis Set: 6-31G*
  Basis Set:

    Orbital Energies (a.u.)
    -----------------------

    Doubly Occupied:

       1A    -20.558584     2A    -11.328723     3A    -11.236018
       4A    -11.235064     5A    -11.222018     6A    -11.213012
       7A    -11.211971     8A    -11.211321     9A    -11.205896
      10A     -1.403548    11A     -1.105290    12A     -1.065080
      13A     -1.007196    14A     -0.943108    15A     -0.880465
      16A     -0.811267    17A     -0.790094    18A     -0.777289
      19A     -0.666294    20A     -0.655835    21A     -0.642857
      22A     -0.620698    23A     -0.608092    24A     -0.578531
      25A     -0.565619    26A     -0.557968    27A     -0.540073
      28A     -0.524415    29A     -0.510867    30A     -0.504697
      31A     -0.482844    32A     -0.469666    33A     -0.455533
      34A     -0.445401    35A     -0.440650    36A     -0.408707

  @DF-RHF Final Energy:  -387.11137687944660

   => Energetics <=

    Nuclear Repulsion Energy =            464.3292287695787195
    One-Electron Energy =               -1445.1118973482500678
    Two-Electron Energy =                 593.6712916992239570
    DFT Exchange-Correlation Energy =       0.0000000000000000
    Empirical Dispersion Energy =           0.0000000000000000
    PCM Polarization Energy =               0.0000000000000000
    EFP Energy =                            0.0000000000000000
    Total Energy =                       -387.1113768794473344

  Mulliken Charges: (a.u.)
   Center  Symbol    Alpha    Beta     Spin     Total
       1     H     0.42978  0.42978  0.00000  0.14043
       2     C     2.83216  2.83216  0.00000  0.33568
       3     C     3.20466  3.20466  0.00000 -0.40933
       4     O     4.24346  4.24346  0.00000 -0.48691
       5     C     3.16814  3.16814  0.00000 -0.33629
       6     H     0.39957  0.39957  0.00000  0.20086
       7     H     0.40561  0.40561  0.00000  0.18879
       8     C     3.14980  3.14980  0.00000 -0.29961
       9     H     0.41139  0.41139  0.00000  0.17722
      10     H     0.41931  0.41931  0.00000  0.16137
      11     C     3.18277  3.18277  0.00000 -0.36554
      12     H     0.41875  0.41875  0.00000  0.16251
      13     H     0.41978  0.41978  0.00000  0.16044
      14     C     3.14950  3.14950  0.00000 -0.29899
      15     H     0.42417  0.42417  0.00000  0.15166
      16     H     0.39700  0.39700  0.00000  0.20601
      17     C     3.15355  3.15355  0.00000 -0.30711
      18     H     0.42578  0.42578  0.00000  0.14843
      19     H     0.42168  0.42168  0.00000  0.15664
      20     C     3.24082  3.24082  0.00000 -0.48164
      21     H     0.42168  0.42168  0.00000  0.15664
      22     H     0.41767  0.41767  0.00000  0.16466
      23     H     0.42372  0.42372  0.00000  0.15256
      24     H     0.42049  0.42049  0.00000  0.15902
      25     H     0.41875  0.41875  0.00000  0.16250

   Total alpha = 36.00000, Total beta = 36.00000, Total charge =  0.00000
