  ==> Input File <==

--------------------------------------------------------------------------
set {
	reference rhf
	basis 6-31G*
}

set_num_threads( 4 )
memory 2 gb

molecule MOL {
0 1

O	 -1.931345	 0.097116	 2.098176
C	 -2.196682	 -0.512739	 1.112129
C	 -3.381776	 -1.435583	 0.988923
O	 -1.481751	 -0.454642	 0.000584
H	 -4.284742	 -0.870711	 1.187511
H	 -3.439714	 -1.888587	 0.010216
H	 -3.303474	 -2.205517	 1.747178
C	 -0.334255	 0.388708	 0.000906
C	 0.891947	 -0.504646	 0.000751
H	 -0.365390	 1.025305	 -0.873475
H	 -0.365484	 1.024911	 0.875569
C	 2.191998	 0.301789	 0.000897
H	 0.855148	 -1.151283	 -0.871571
H	 0.855132	 -1.151660	 0.872805
C	 3.441114	 -0.581407	 0.000108
H	 2.215074	 0.954890	 -0.869742
H	 2.215465	 0.953923	 0.872248
C	 4.739576	 0.224112	 -0.001102
H	 3.419457	 -1.233487	 -0.870178
H	 3.420834	 -1.233096	 0.870717
H	 4.804918	 0.861552	 -0.878265
H	 5.606527	 -0.429058	 -0.001824
H	 4.806469	 0.861674	 0.875853

	symmetry c1
}
set optking {
	frozen_dihedral = ("
		2 4 8 10
	")
}

ee = optimize('scf')
oeprop('DIPOLE', 'QUADRUPOLE', 'MULLIKEN_CHARGES')
f=open( 'psi4out.xyz', 'w' )
f.write( "23  " )
f.write( str(ee) + "\n" )
f.write( MOL.save_string_xyz() )
f.close()
--------------------------------------------------------------------------

    Molecular point group: c1
  Charge       = 0
  Multiplicity = 1
  Basis Set: 6-31G*
  Basis Set:
  @DF-RHF Final Energy:  -422.97682889044171
    Total Energy =                       -422.9768288904424480
    Molecular point group: c1
  Basis Set: 6-31G*
  Basis Set:
  Basis Set: 6-31G*
  Basis Set:
  @DF-RHF Final Energy:  -422.97742718386172
    Total Energy =                       -422.9774271838614368
  Basis Set: 6-31G*
  Basis Set:
  Basis Set: 6-31G*
  Basis Set:
  @DF-RHF Final Energy:  -422.97772968643130
    Total Energy =                       -422.9777296864310756
  Basis Set: 6-31G*
  Basis Set:
  Basis Set: 6-31G*
  Basis Set:
  @DF-RHF Final Energy:  -422.97785729621938
    Total Energy =                       -422.9778572962194403
  Basis Set: 6-31G*
  Basis Set:
  @DF-RHF Final Energy:  -422.97791684879115
    Total Energy =                       -422.9779168487913239
  Basis Set: 6-31G*
  Basis Set:
  @DF-RHF Final Energy:  -422.97788904505876
    Total Energy =                       -422.9778890450591007
  Basis Set: 6-31G*
  Basis Set:
  Basis Set: 6-31G*
  Basis Set:
  @DF-RHF Final Energy:  -422.97791929965496
    Total Energy =                       -422.9779192996541042
  Basis Set: 6-31G*
  Basis Set:
  Basis Set: 6-31G*
  Basis Set:
  @DF-RHF Final Energy:  -422.97792034784459
    Total Energy =                       -422.9779203478444742
  Basis Set: 6-31G*
  Basis Set:
  Charge       = 0
  Multiplicity = 1
  Basis Set: 6-31G*
  Basis Set:

    Orbital Energies (a.u.)
    -----------------------

    Doubly Occupied:

       1A    -20.602247     2A    -20.540224     3A    -11.375771
       4A    -11.279952     5A    -11.231914     6A    -11.223381
       7A    -11.222785     8A    -11.220764     9A    -11.212204
      10A     -1.465623    11A     -1.361315    12A     -1.092806
      13A     -1.041472    14A     -1.002688    15A     -0.931491
      16A     -0.847880    17A     -0.800081    18A     -0.770159
      19A     -0.698528    20A     -0.678660    21A     -0.657040
      22A     -0.649358    23A     -0.605060    24A     -0.588133
      25A     -0.585629    26A     -0.572537    27A     -0.549978
      28A     -0.539887    29A     -0.522213    30A     -0.509453
      31A     -0.487256    32A     -0.478485    33A     -0.474375
      34A     -0.469902    35A     -0.438782    36A     -0.435415

  @DF-RHF Final Energy:  -422.97792041351943

   => Energetics <=

    Nuclear Repulsion Energy =            452.8285014016997820
    One-Electron Energy =               -1473.2859447017883667
    Two-Electron Energy =                 597.4795228865692707
    DFT Exchange-Correlation Energy =       0.0000000000000000
    Empirical Dispersion Energy =           0.0000000000000000
    PCM Polarization Energy =               0.0000000000000000
    EFP Energy =                            0.0000000000000000
    Total Energy =                       -422.9779204135193140
    Molecular point group: c1
  Basis Set: 6-31G*
  Basis Set:

  -Total Gradient:
     Atom            X                  Y                   Z
    ------   -----------------  -----------------  -----------------
       1       -0.000011961422     0.000004461422     0.000005377497
       2       -0.000561866524     0.000799292300    -0.000327675288
       3       -0.000013899254     0.000022348491    -0.000005143337
       4        0.000729893326    -0.001012313258     0.000601092564
       5        0.000002683590    -0.000006119599     0.000009971233
       6        0.000003070257    -0.000003679128     0.000001289356
       7        0.000005094147    -0.000008811479    -0.000003874684
       8        0.000436135306    -0.000577238060    -0.000828370767
       9       -0.000014221555    -0.000011539913    -0.000004875733
      10       -0.000560414322     0.000786121479     0.000571589957
      11        0.000000047429     0.000000740040     0.000007251749
      12       -0.000008955180     0.000006932786    -0.000009612716
      13        0.000000215450     0.000011678507    -0.000012059924
      14        0.000000467656    -0.000005003617     0.000004730485
      15       -0.000004712237    -0.000003946369    -0.000000625931
      16        0.000001092036    -0.000009304295    -0.000014509121
      17       -0.000003407457     0.000003471607    -0.000010780159
      18       -0.000000407946     0.000001539382     0.000017793912
      19        0.000002716645     0.000010152562    -0.000004794831
      20       -0.000002412209    -0.000008484801    -0.000000913087
      21       -0.000002739822    -0.000004635359     0.000000250362
      22        0.000000311675     0.000000540208     0.000003890813
      23        0.000003270410     0.000003797095    -0.000000002350

  **** Optimization is complete! (in 9 steps) ****
    Final optimized geometry and variables:
    Molecular point group: c1

    Geometry (in Angstrom), charge = 0, multiplicity = 1:

    O           -2.207335839556     0.317377101897     1.668628175104
    C           -2.439404900470    -0.244704802058     0.646553424075
    C           -3.642964284522    -1.127498407884     0.437217026391
    O           -1.678773192620    -0.174541716619    -0.435327472366
    H           -4.537393361691    -0.542315085387     0.614690182880
    H           -3.668515893357    -1.545679636280    -0.558095905242
    H           -3.621672726982    -1.923711019126     1.171700642438
    C           -0.505648186626     0.636103284709    -0.418508710931
    C            0.733328082179    -0.243135774462    -0.427826732079
    H           -0.560691228700     1.250658218968    -1.307657237764
    H           -0.527342490065     1.277243710747     0.447965775489
    C            2.022093647657     0.578643716973    -0.491021863441
    H            0.679589261282    -0.918912122291    -1.276964620438
    H            0.730078539731    -0.858505238333     0.468048061611
    C            3.283081578867    -0.287505889277    -0.492163266839
    H            2.013850876859     1.199121092689    -1.385811927213
    H            2.058324802526     1.262338525469     0.355196141654
    C            4.569695473171     0.534622055964    -0.552657585419
    H            3.249699766196    -0.969675599226    -1.338744344418
    H            3.292609602294    -0.908366087474     0.400746375512
    H            4.605567540173     1.141619728286    -1.452895107582
    H            5.445486306126    -0.106651091321    -0.551386681040
    H            4.648168096805     1.203343634459     0.299749651026

  Mulliken Charges: (a.u.)
   Center  Symbol    Alpha    Beta     Spin     Total
       1     O     4.28413  4.28413  0.00000 -0.56825
       2     C     2.61529  2.61529  0.00000  0.76941
       3     C     3.28832  3.28832  0.00000 -0.57665
       4     O     4.31366  4.31366  0.00000 -0.62731
       5     H     0.39755  0.39755  0.00000  0.20490
       6     H     0.39981  0.39981  0.00000  0.20039
       7     H     0.39775  0.39775  0.00000  0.20451
       8     C     3.00625  3.00625  0.00000 -0.01249
       9     C     3.16414  3.16414  0.00000 -0.32828
      10     H     0.41328  0.41328  0.00000  0.17343
      11     H     0.39503  0.39503  0.00000  0.20995
      12     C     3.16128  3.16128  0.00000 -0.32256
      13     H     0.41489  0.41489  0.00000  0.17023
      14     H     0.41370  0.41370  0.00000  0.17259
      15     C     3.15140  3.15140  0.00000 -0.30280
      16     H     0.42226  0.42226  0.00000  0.15548
      17     H     0.41912  0.41912  0.00000  0.16177
      18     C     3.23990  3.23990  0.00000 -0.47980
      19     H     0.42174  0.42174  0.00000  0.15651
      20     H     0.42056  0.42056  0.00000  0.15888
      21     H     0.42142  0.42142  0.00000  0.15715
      22     H     0.41804  0.41804  0.00000  0.16393
      23     H     0.42049  0.42049  0.00000  0.15902

   Total alpha = 36.00000, Total beta = 36.00000, Total charge = -0.00000
