  ==> Input File <==

--------------------------------------------------------------------------
set {
	reference rhf
	basis cc-pvtz
}

set_num_threads( 4 )
memory 2 gb

molecule MOL {
0 1

H	 -2.713965	 0.517634	 -0.563704
C	 -2.014754	 0.939830	 -1.272982
C	 -0.731809	 0.124913	 -1.325678
H	 -1.815511	 1.958176	 -0.967222
H	 -2.486736	 0.961075	 -2.248013
C	 0.000000	 0.039916	 0.000014
H	 -0.041811	 0.537566	 -2.056786
H	 -0.932427	 -0.890466	 -1.656811
C	 1.286532	 -0.763243	 0.000268
O	 -0.410100	 0.570908	 0.979934
C	 2.547023	 0.087626	 -0.000114
H	 1.264245	 -1.421103	 -0.864380
H	 1.264290	 -1.420353	 0.865489
H	 2.584452	 0.725630	 -0.872909
H	 3.427035	 -0.544422	 0.000125
H	 2.584484	 0.726356	 0.872143

	symmetry c1
}
set optking {
	frozen_dihedral = ("
		3 6 9 12
	")
}

ee = optimize('scf')
oeprop('DIPOLE', 'QUADRUPOLE', 'MULLIKEN_CHARGES')
f=open( 'psi4out.xyz', 'w' )
f.write( "16  " )
f.write( str(ee) + "\n" )
f.write( MOL.save_string_xyz() )
f.close()
--------------------------------------------------------------------------

    Molecular point group: c1
  Charge       = 0
  Multiplicity = 1
  Basis Set: CC-PVTZ
  Basis Set:
  @DF-RHF Final Energy:  -270.12907926732726
    Total Energy =                       -270.1290792673271994
    Molecular point group: c1
  Basis Set: CC-PVTZ
  Basis Set:
  Basis Set: CC-PVTZ
  Basis Set:
  @DF-RHF Final Energy:  -270.12950207148543
    Total Energy =                       -270.1295020714857174
  Basis Set: CC-PVTZ
  Basis Set:
  Basis Set: CC-PVTZ
  Basis Set:
  @DF-RHF Final Energy:  -270.12988482509161
    Total Energy =                       -270.1298848250914943
  Basis Set: CC-PVTZ
  Basis Set:
  Basis Set: CC-PVTZ
  Basis Set:
  @DF-RHF Final Energy:  -270.12998670384712
    Total Energy =                       -270.1299867038470666
  Basis Set: CC-PVTZ
  Basis Set:
  Basis Set: CC-PVTZ
  Basis Set:
  @DF-RHF Final Energy:  -270.12999252624286
    Total Energy =                       -270.1299925262431429
  Basis Set: CC-PVTZ
  Basis Set:
  Charge       = 0
  Multiplicity = 1
  Basis Set: CC-PVTZ
  Basis Set:

    Orbital Energies (a.u.)
    -----------------------

    Doubly Occupied:

       1A    -20.537293     2A    -11.317288     3A    -11.232984
       4A    -11.230350     5A    -11.224012     6A    -11.211827
       7A     -1.397726     8A     -1.071781     9A     -1.037839
      10A     -0.913498    11A     -0.854730    12A     -0.727789
      13A     -0.666470    14A     -0.644577    15A     -0.625170
      16A     -0.602650    17A     -0.567827    18A     -0.539456
      19A     -0.532147    20A     -0.512593    21A     -0.503512
      22A     -0.499018    23A     -0.480347    24A     -0.398251

  @DF-RHF Final Energy:  -270.12999386159316

   => Energetics <=

    Nuclear Repulsion Energy =            240.8963191702387689
    One-Electron Energy =                -843.3943547519214690
    Two-Electron Energy =                 332.3680417200897637
    DFT Exchange-Correlation Energy =       0.0000000000000000
    Empirical Dispersion Energy =           0.0000000000000000
    PCM Polarization Energy =               0.0000000000000000
    EFP Energy =                            0.0000000000000000
    Total Energy =                       -270.1299938615928795
    Molecular point group: c1
  Basis Set: CC-PVTZ
  Basis Set:

  -Total Gradient:
     Atom            X                  Y                   Z
    ------   -----------------  -----------------  -----------------
       1       -0.000003886125    -0.000002057849     0.000002211667
       2        0.000016229964     0.000020828515    -0.000010546090
       3       -0.000016033244    -0.000069539566     0.000057079379
       4       -0.000002152045    -0.000010701751     0.000000866698
       5       -0.000004953126    -0.000000927902     0.000002601857
       6        0.000058397272     0.000033225419    -0.000056323310
       7        0.000008150470     0.000006698686     0.000001351125
       8        0.000004195456     0.000015132665    -0.000014945330
       9        0.000036327377    -0.000068111823    -0.000036938607
      10       -0.000051165372     0.000025289895     0.000048881182
      11       -0.000022361353     0.000029036851     0.000037739472
      12       -0.000020324805    -0.000013027621    -0.000015423438
      13       -0.000010524797     0.000039225277    -0.000033400056
      14       -0.000016374829    -0.000017378049     0.000012498643
      15       -0.000003450537    -0.000016994933     0.000004100339
      16        0.000027925691     0.000029302185     0.000000246470

  **** Optimization is complete! (in 6 steps) ****
    Final optimized geometry and variables:
    Molecular point group: c1

    Geometry (in Angstrom), charge = 0, multiplicity = 1:

    H           -2.793457184658     0.478424179470    -0.273371881263
    C           -2.078546602364     0.836354275273    -1.001708309806
    C           -0.856765214559    -0.066508640451    -1.053305734824
    H           -1.804140191307     1.844613343110    -0.720422961355
    H           -2.563017839092     0.871423831080    -1.970180660654
    C           -0.118015970843    -0.188329748218     0.262191454879
    H           -0.146589996227     0.276150389862    -1.801797241134
    H           -1.130693596084    -1.074163791393    -1.357382197016
    C            1.185408221785    -0.965937334958     0.251233224866
    O           -0.519716803329     0.310268542604     1.263071492123
    C            2.387029745944    -0.016892842297     0.261584882920
    H            1.231908341465    -1.615269010973    -0.615216818159
    H            1.202381495858    -1.584699055581     1.139199482250
    H            2.397154827645     0.619617721893    -0.616473824459
    H            3.312377592101    -0.578956124009     0.272767256214
    H            2.361403387542     0.617052096187     1.137811758309

  Mulliken Charges: (a.u.)
   Center  Symbol    Alpha    Beta     Spin     Total
       1     H     0.44640  0.44640  0.00000  0.10719
       2     C     3.14099  3.14099  0.00000 -0.28198
       3     C     3.10517  3.10517  0.00000 -0.21034
       4     H     0.44904  0.44904  0.00000  0.10193
       5     H     0.45075  0.45075  0.00000  0.09851
       6     C     2.86287  2.86287  0.00000  0.27425
       7     H     0.44530  0.44530  0.00000  0.10940
       8     H     0.44479  0.44479  0.00000  0.11041
       9     C     3.09587  3.09587  0.00000 -0.19174
      10     O     4.17827  4.17827  0.00000 -0.35654
      11     C     3.14749  3.14749  0.00000 -0.29498
      12     H     0.44901  0.44901  0.00000  0.10197
      13     H     0.43987  0.43987  0.00000  0.12025
      14     H     0.45501  0.45501  0.00000  0.08998
      15     H     0.44703  0.44703  0.00000  0.10594
      16     H     0.44213  0.44213  0.00000  0.11575

   Total alpha = 24.00000, Total beta = 24.00000, Total charge = -0.00000
