  ==> Input File <==

--------------------------------------------------------------------------
set {
	reference rhf
	basis 6-31G*
}

set_num_threads( 4 )
memory 2 gb

molecule MOL {
0 1

O	 2.367903	 2.123611	 0.053204
C	 1.276545	 2.593175	 0.159060
C	 0.022809	 1.736988	 0.153732
C	 1.071204	 4.086890	 0.306737
C	 0.291004	 0.242674	 0.000989
H	 -0.521911	 1.938121	 1.075260
H	 -0.622592	 2.096107	 -0.646826
C	 -0.994322	 -0.586602	 0.000262
H	 0.941966	 -0.085912	 0.804984
H	 0.840963	 0.072160	 -0.919129
C	 -2.259874	 0.272531	 0.000494
H	 -1.004862	 -1.240012	 -0.870939
H	 -1.005220	 -1.241071	 0.870675
C	 -3.549786	 -0.549746	 -0.000374
H	 -2.250389	 0.926680	 -0.869574
H	 -2.250838	 0.925513	 0.871430
C	 -4.809590	 0.315458	 -0.000369
H	 -3.560515	 -1.202009	 -0.871156
H	 -3.561123	 -1.202955	 0.869711
H	 -4.844746	 0.956611	 -0.876632
H	 -5.706986	 -0.295590	 -0.001609
H	 -4.845960	 0.954827	 0.877144
H	 0.553136	 4.308267	 1.235293
H	 2.028483	 4.589274	 0.298852
H	 0.455970	 4.466500	 -0.503829

	symmetry c1
}
set optking {
	frozen_dihedral = ("
		9 5 8 12
	")
}

ee = optimize('scf')
oeprop('DIPOLE', 'QUADRUPOLE', 'MULLIKEN_CHARGES')
f=open( 'psi4out.xyz', 'w' )
f.write( "25  " )
f.write( str(ee) + "\n" )
f.write( MOL.save_string_xyz() )
f.close()
--------------------------------------------------------------------------

    Molecular point group: c1
  Charge       = 0
  Multiplicity = 1
  Basis Set: 6-31G*
  Basis Set:
  @DF-RHF Final Energy:  -387.12119849882544
    Total Energy =                       -387.1211984988249242
    Molecular point group: c1
  Basis Set: 6-31G*
  Basis Set:
  Basis Set: 6-31G*
  Basis Set:
  @DF-RHF Final Energy:  -387.12076671060441
    Total Energy =                       -387.1207667106037889
  Basis Set: 6-31G*
  Basis Set:
  Basis Set: 6-31G*
  Basis Set:
  @DF-RHF Final Energy:  -387.12559835219213
    Total Energy =                       -387.1255983521920143
  Basis Set: 6-31G*
  Basis Set:
  Basis Set: 6-31G*
  Basis Set:
  @DF-RHF Final Energy:  -387.12639381082948
    Total Energy =                       -387.1263938108293132
  Basis Set: 6-31G*
  Basis Set:
  @DF-RHF Final Energy:  -387.12638106485451
    Total Energy =                       -387.1263810648546269
  Basis Set: 6-31G*
  Basis Set:
  @DF-RHF Final Energy:  -387.12418700132082
    Total Energy =                       -387.1241870013212747
  Basis Set: 6-31G*
  Basis Set:
  Basis Set: 6-31G*
  Basis Set:
  @DF-RHF Final Energy:  -387.12651341450271
    Total Energy =                       -387.1265134145033926
  Basis Set: 6-31G*
  Basis Set:
  Basis Set: 6-31G*
  Basis Set:
  @DF-RHF Final Energy:  -387.12653013000164
    Total Energy =                       -387.1265301300019246
  Basis Set: 6-31G*
  Basis Set:
  Charge       = 0
  Multiplicity = 1
  Basis Set: 6-31G*
  Basis Set:

    Orbital Energies (a.u.)
    -----------------------

    Doubly Occupied:

       1A    -20.550187     2A    -11.325986     3A    -11.231224
       4A    -11.228058     5A    -11.217987     6A    -11.217499
       7A    -11.217187     8A    -11.216753     9A    -11.211262
      10A     -1.395550    11A     -1.092041    12A     -1.055327
      13A     -1.012912    14A     -0.967757    15A     -0.899736
      16A     -0.817730    17A     -0.786195    18A     -0.726462
      19A     -0.661191    20A     -0.654380    21A     -0.632160
      22A     -0.621259    23A     -0.595503    24A     -0.584109
      25A     -0.567987    26A     -0.560545    27A     -0.542909
      28A     -0.525491    29A     -0.523804    30A     -0.493712
      31A     -0.489989    32A     -0.477360    33A     -0.460315
      34A     -0.450729    35A     -0.447056    36A     -0.400694

  @DF-RHF Final Energy:  -387.12652960521933

   => Energetics <=

    Nuclear Repulsion Energy =            445.7351301594825941
    One-Electron Energy =               -1408.0052276464857641
    Two-Electron Energy =                 575.1435678817842927
    DFT Exchange-Correlation Energy =       0.0000000000000000
    Empirical Dispersion Energy =           0.0000000000000000
    PCM Polarization Energy =               0.0000000000000000
    EFP Energy =                            0.0000000000000000
    Total Energy =                       -387.1265296052188205
    Molecular point group: c1
  Basis Set: 6-31G*
  Basis Set:

  -Total Gradient:
     Atom            X                  Y                   Z
    ------   -----------------  -----------------  -----------------
       1        0.000001773117    -0.000003171717     0.000000063969
       2       -0.000006291010     0.000002938215     0.000014620925
       3        0.000004396850     0.000005734915    -0.000013806302
       4        0.000005665710     0.000006023770     0.000017239266
       5        0.000842556674    -0.001337175017    -0.001846516603
       6       -0.000042270210    -0.000007562248     0.000003066704
       7        0.000055089984     0.000012730707     0.000011277743
       8        0.000927653237    -0.001463980867     0.001597666206
       9       -0.000846993079     0.001341666048     0.001270800619
      10       -0.000009736889     0.000004573389     0.000025999654
      11       -0.000002379374    -0.000007546665    -0.000055920678
      12       -0.000902965858     0.001445582873    -0.001076920172
      13       -0.000018809431    -0.000005274848    -0.000018678346
      14        0.000002830221     0.000002032764     0.000064971397
      15       -0.000063920286    -0.000040777463     0.000015748177
      16        0.000054800826     0.000034432998     0.000026416363
      17       -0.000002533090     0.000000510288    -0.000035589693
      18        0.000013408899    -0.000003129819     0.000015610219
      19       -0.000009474183     0.000004627419     0.000014001776
      20       -0.000003034697     0.000015810940     0.000001973687
      21       -0.000002454047     0.000000869170    -0.000015714658
      22        0.000002023540    -0.000015914022     0.000000785475
      23        0.000001097525    -0.000009528872    -0.000008941795
      24       -0.000000285072     0.000004768167    -0.000005241981
      25       -0.000000149362     0.000011759874    -0.000002911951

  **** Optimization is complete! (in 9 steps) ****
    Final optimized geometry and variables:
    Molecular point group: c1

    Geometry (in Angstrom), charge = 0, multiplicity = 1:

    O            3.190441635805     0.897496823938    -0.023640494699
    C            2.144645216290     1.460457878817     0.086863543306
    C            0.816538477830     0.722836146412     0.085235181615
    C            2.073670361875     2.966685133802     0.237557853994
    C            0.969790506036    -0.790977037102    -0.072070337637
    H            0.303985547403     0.975743271346     1.010844805670
    H            0.208980025289     1.149765447734    -0.709083147448
    C           -0.341919470792    -1.624866162251    -0.070427550971
    H            1.609464642116    -1.132542030448     0.733130761394
    H            1.521392892072    -0.978423749488    -0.985297023302
    C           -1.672075530019    -0.860934422006    -0.074822064948
    H           -0.338905103894    -2.268894792060    -0.945493504750
    H           -0.337744252638    -2.287975229369     0.790005467388
    C           -2.878851716025    -1.802159151779    -0.078555790225
    H           -1.729596349634    -0.214804560634    -0.948225583345
    H           -1.738579587716    -0.210476325905     0.794174067734
    C           -4.214949777225    -1.060250501173    -0.092873572618
    H           -2.821441185708    -2.457905540425    -0.944617089304
    H           -2.834327874970    -2.447970742055     0.795759761486
    H           -4.304512340204    -0.429757904738    -0.973113821959
    H           -5.049967897377    -1.753954486720    -0.097530328337
    H           -4.319713868941    -0.423253976128     0.780987913904
    H            1.578560324092     3.232079854063     1.167050712322
    H            3.072147235214     3.381183864943     0.229335185338
    H            1.494332222364     3.401592567755    -0.571675563447

  Mulliken Charges: (a.u.)
   Center  Symbol    Alpha    Beta     Spin     Total
       1     O     4.26106  4.26106  0.00000 -0.52213
       2     C     2.73593  2.73593  0.00000  0.52814
       3     C     3.21332  3.21332  0.00000 -0.42665
       4     C     3.28622  3.28622  0.00000 -0.57244
       5     C     3.15291  3.15291  0.00000 -0.30583
       6     H     0.40936  0.40936  0.00000  0.18127
       7     H     0.40888  0.40888  0.00000  0.18224
       8     C     3.15794  3.15794  0.00000 -0.31588
       9     H     0.40965  0.40965  0.00000  0.18071
      10     H     0.40954  0.40954  0.00000  0.18092
      11     C     3.15477  3.15477  0.00000 -0.30954
      12     H     0.41925  0.41925  0.00000  0.16150
      13     H     0.41959  0.41959  0.00000  0.16082
      14     C     3.15102  3.15102  0.00000 -0.30204
      15     H     0.42468  0.42468  0.00000  0.15064
      16     H     0.42482  0.42482  0.00000  0.15035
      17     C     3.23919  3.23919  0.00000 -0.47838
      18     H     0.42225  0.42225  0.00000  0.15550
      19     H     0.42235  0.42235  0.00000  0.15531
      20     H     0.42215  0.42215  0.00000  0.15570
      21     H     0.41855  0.41855  0.00000  0.16289
      22     H     0.42229  0.42229  0.00000  0.15542
      23     H     0.40892  0.40892  0.00000  0.18215
      24     H     0.39656  0.39656  0.00000  0.20688
      25     H     0.40878  0.40878  0.00000  0.18245

   Total alpha = 36.00000, Total beta = 36.00000, Total charge = -0.00000
