  ==> Input File <==

--------------------------------------------------------------------------
set {
	reference rhf
	basis cc-pvtz
}

set_num_threads( 4 )
memory 2 gb

molecule MOL {
0 1

H	 2.190573	 -0.629143	 -0.208718
O	 1.355408	 -0.529451	 0.208662
C	 0.700177	 0.619554	 -0.266242
C	 -0.713111	 0.588314	 0.266177
H	 0.678680	 0.627133	 -1.351786
H	 1.199747	 1.521489	 0.077736
O	 -1.421673	 -0.521378	 -0.196983
H	 -1.244794	 1.469161	 -0.069059
H	 -0.685100	 0.604721	 1.352683
H	 -0.993861	 -0.848774	 -0.968872

	symmetry c1
}
set optking {
	frozen_dihedral = ("
		10 7 4 3
	")
}

ee = optimize('scf')
oeprop('DIPOLE', 'QUADRUPOLE', 'MULLIKEN_CHARGES')
f=open( 'psi4out.xyz', 'w' )
f.write( "10  " )
f.write( str(ee) + "\n" )
f.write( MOL.save_string_xyz() )
f.close()
--------------------------------------------------------------------------

    Molecular point group: c1
  Charge       = 0
  Multiplicity = 1
  Basis Set: CC-PVTZ
  Basis Set:
  @DF-RHF Final Energy:  -229.02163613757929
    Total Energy =                       -229.0216361375794349
    Molecular point group: c1
  Basis Set: CC-PVTZ
  Basis Set:
  Basis Set: CC-PVTZ
  Basis Set:
  @DF-RHF Final Energy:  -229.02288540006811
    Total Energy =                       -229.0228854000681622
  Basis Set: CC-PVTZ
  Basis Set:
  Basis Set: CC-PVTZ
  Basis Set:
  @DF-RHF Final Energy:  -229.02312275007290
    Total Energy =                       -229.0231227500728437
  Basis Set: CC-PVTZ
  Basis Set:
  Basis Set: CC-PVTZ
  Basis Set:
  @DF-RHF Final Energy:  -229.02313346297220
    Total Energy =                       -229.0231334629721118
  Basis Set: CC-PVTZ
  Basis Set:
  Charge       = 0
  Multiplicity = 1
  Basis Set: CC-PVTZ
  Basis Set:

    Orbital Energies (a.u.)
    -----------------------

    Doubly Occupied:

       1A    -20.558394     2A    -20.542957     3A    -11.279640
       4A    -11.268005     5A     -1.383835     6A     -1.356667
       7A     -1.006179     8A     -0.850663     9A     -0.724038
      10A     -0.675560    11A     -0.663639    12A     -0.602058
      13A     -0.575742    14A     -0.554127    15A     -0.473266
      16A     -0.455413    17A     -0.441246

  @DF-RHF Final Energy:  -229.02313432086623

   => Energetics <=

    Nuclear Repulsion Energy =            133.9462164833345241
    One-Electron Energy =                -579.1158381684174401
    Two-Electron Energy =                 216.1464873642165685
    DFT Exchange-Correlation Energy =       0.0000000000000000
    Empirical Dispersion Energy =           0.0000000000000000
    PCM Polarization Energy =               0.0000000000000000
    EFP Energy =                            0.0000000000000000
    Total Energy =                       -229.0231343208663475
    Molecular point group: c1
  Basis Set: CC-PVTZ
  Basis Set:

  -Total Gradient:
     Atom            X                  Y                   Z
    ------   -----------------  -----------------  -----------------
       1       -0.000002192526     0.000008883843    -0.000007538407
       2       -0.000049822819     0.000093949521    -0.000007551477
       3        0.000066996266    -0.000250209682     0.000276502626
       4       -0.000218905605     0.000275606350    -0.000490415557
       5        0.000008831130    -0.000003479993    -0.000000499411
       6        0.000041469490     0.000008785203     0.000025783919
       7        0.000416141024    -0.000494205174     0.000543744934
       8        0.000034660365     0.000018719983    -0.000007706999
       9        0.000004057702     0.000012782002     0.000011192703
      10       -0.000301235029     0.000329167945    -0.000343512332

  **** Optimization is complete! (in 5 steps) ****
    Final optimized geometry and variables:
    Molecular point group: c1

    Geometry (in Angstrom), charge = 0, multiplicity = 1:

    H            2.262125658681    -0.554396797202    -0.126075836358
    O            1.377904069326    -0.550978688030     0.190911385723
    C            0.711672724313     0.599081846779    -0.245375105324
    C           -0.707097750514     0.586348925447     0.274375026091
    H            0.700131247097     0.645870492965    -1.334379867120
    H            1.200757723589     1.500137131673     0.116234205486
    O           -1.457684577293    -0.512912730687    -0.153266200228
    H           -1.186763875674     1.511306064573    -0.036629941204
    H           -0.690337418211     0.566216739730     1.356797463131
    H           -1.074212208013    -0.899125890989    -0.918699524597

  Mulliken Charges: (a.u.)
   Center  Symbol    Alpha    Beta     Spin     Total
       1     H     0.39379  0.39379  0.00000  0.21243
       2     O     4.19484  4.19484  0.00000 -0.38968
       3     C     2.98137  2.98137  0.00000  0.03726
       4     C     2.94843  2.94843  0.00000  0.10313
       5     H     0.47589  0.47589  0.00000  0.04823
       6     H     0.46918  0.46918  0.00000  0.06164
       7     O     4.20282  4.20282  0.00000 -0.40564
       8     H     0.47688  0.47688  0.00000  0.04624
       9     H     0.46529  0.46529  0.00000  0.06943
      10     H     0.39151  0.39151  0.00000  0.21697

   Total alpha = 17.00000, Total beta = 17.00000, Total charge = -0.00000
