  ==> Input File <==

--------------------------------------------------------------------------
set {
	reference rhf
	basis 6-31G*
}

set_num_threads( 4 )
memory 2 gb

molecule MOL {
0 1

H	 3.474263	 -0.670432	 -1.110551
O	 2.557844	 -0.887484	 -0.969770
C	 2.077727	 -0.067559	 -0.035091
C	 0.624473	 -0.343591	 0.253101
O	 2.750329	 0.764681	 0.480660
C	 -0.265902	 0.883932	 0.072916
H	 0.324016	 -1.163849	 -0.390541
H	 0.565024	 -0.726111	 1.268924
C	 -1.728698	 0.646073	 0.462102
H	 -0.209144	 1.219470	 -0.958188
H	 0.135059	 1.692851	 0.673903
C	 -2.482460	 -0.343073	 -0.431425
H	 -2.245265	 1.602650	 0.432430
H	 -1.779332	 0.308348	 1.496285
C	 -3.960546	 -0.461025	 -0.060175
H	 -2.395034	 -0.026811	 -1.468912
H	 -2.024850	 -1.327147	 -0.371646
H	 -4.472726	 -1.168004	 -0.705284
H	 -4.465146	 0.496508	 -0.151489
H	 -4.081218	 -0.800940	 0.964585

	symmetry c1
}
set optking {
	frozen_dihedral = ("
		5 3 4 7
	")
}

ee = optimize('scf')
oeprop('DIPOLE', 'QUADRUPOLE', 'MULLIKEN_CHARGES')
f=open( 'psi4out.xyz', 'w' )
f.write( "20  " )
f.write( str(ee) + "\n" )
f.write( MOL.save_string_xyz() )
f.close()
--------------------------------------------------------------------------

    Molecular point group: c1
  Charge       = 0
  Multiplicity = 1
  Basis Set: 6-31G*
  Basis Set:
  @DF-RHF Final Energy:  -383.94662142009992
    Total Energy =                       -383.9466214200999730
    Molecular point group: c1
  Basis Set: 6-31G*
  Basis Set:
  Basis Set: 6-31G*
  Basis Set:
  @DF-RHF Final Energy:  -383.94701568231147
    Total Energy =                       -383.9470156823114166
  Basis Set: 6-31G*
  Basis Set:
  Basis Set: 6-31G*
  Basis Set:
  @DF-RHF Final Energy:  -383.94625417166293
    Total Energy =                       -383.9462541716629289
  Basis Set: 6-31G*
  Basis Set:
  Basis Set: 6-31G*
  Basis Set:
  @DF-RHF Final Energy:  -383.94722740805986
    Total Energy =                       -383.9472274080599732
  Basis Set: 6-31G*
  Basis Set:
  Basis Set: 6-31G*
  Basis Set:
  @DF-RHF Final Energy:  -383.94722595974366
    Total Energy =                       -383.9472259597438324
  Basis Set: 6-31G*
  Basis Set:
  Basis Set: 6-31G*
  Basis Set:
  @DF-RHF Final Energy:  -383.94722704572490
    Total Energy =                       -383.9472270457247873
  Basis Set: 6-31G*
  Basis Set:
  Basis Set: 6-31G*
  Basis Set:
  @DF-RHF Final Energy:  -383.94723122228044
    Total Energy =                       -383.9472312222805499
  Basis Set: 6-31G*
  Basis Set:
  Charge       = 0
  Multiplicity = 1
  Basis Set: 6-31G*
  Basis Set:

    Orbital Energies (a.u.)
    -----------------------

    Doubly Occupied:

       1A    -20.614755     2A    -20.548469     3A    -11.380656
       4A    -11.238737     5A    -11.229026     6A    -11.222527
       7A    -11.221350     8A    -11.213223     9A     -1.474930
      10A     -1.364458    11A     -1.097675    12A     -1.041161
      13A     -0.960873    14A     -0.867870    15A     -0.818683
      16A     -0.784455    17A     -0.701680    18A     -0.688432
      19A     -0.645567    20A     -0.642149    21A     -0.611408
      22A     -0.593579    23A     -0.575474    24A     -0.554294
      25A     -0.546534    26A     -0.513401    27A     -0.500218
      28A     -0.478216    29A     -0.472924    30A     -0.465745
      31A     -0.458902    32A     -0.439986

  @DF-RHF Final Energy:  -383.94723118884485

   => Energetics <=

    Nuclear Repulsion Energy =            376.0007578929839838
    One-Electron Energy =               -1267.9612584353208149
    Two-Electron Energy =                 508.0132693534922623
    DFT Exchange-Correlation Energy =       0.0000000000000000
    Empirical Dispersion Energy =           0.0000000000000000
    PCM Polarization Energy =               0.0000000000000000
    EFP Energy =                            0.0000000000000000
    Total Energy =                       -383.9472311888445688
    Molecular point group: c1
  Basis Set: 6-31G*
  Basis Set:

  -Total Gradient:
     Atom            X                  Y                   Z
    ------   -----------------  -----------------  -----------------
       1        0.000001259749    -0.000003299270    -0.000000562988
       2        0.000017281531    -0.000005155013    -0.000014232327
       3       -0.000261763058     0.000666649735    -0.000671951296
       4       -0.000166846402     0.000392871061    -0.000420136444
       5        0.000215138077    -0.000537657657     0.000555561434
       6       -0.000000798366    -0.000007883502    -0.000002717366
       7        0.000199463053    -0.000507092530     0.000543977946
       8       -0.000002997343    -0.000001119889     0.000004852350
       9       -0.000010695027     0.000012418544    -0.000010724130
      10       -0.000001677410     0.000008993353    -0.000001726288
      11        0.000003988971    -0.000009808231     0.000003155008
      12        0.000011031613    -0.000013551826     0.000013636639
      13       -0.000012698026    -0.000003594642     0.000001117096
      14        0.000005504568     0.000000444192    -0.000002582361
      15       -0.000002404005     0.000009460146    -0.000003366909
      16        0.000007568223    -0.000001141096     0.000007860766
      17        0.000000879229    -0.000003420878    -0.000000279324
      18       -0.000000275826     0.000003181145    -0.000002612404
      19       -0.000002670393     0.000001636477     0.000003076526
      20        0.000000710830    -0.000001930118    -0.000002345930

  **** Optimization is complete! (in 8 steps) ****
    Final optimized geometry and variables:
    Molecular point group: c1

    Geometry (in Angstrom), charge = 0, multiplicity = 1:

    H            3.547598944952    -0.609411157896    -1.016962893716
    O            2.633830921021    -0.861716906900    -0.922892983668
    C            2.085085893902    -0.081778447436     0.005006709132
    C            0.631582261146    -0.397063601347     0.258400684421
    O            2.704926148532     0.762775640052     0.567307521401
    C           -0.249476979963     0.848206358492     0.090833232575
    H            0.323511506145    -1.206261691908    -0.388703451706
    H            0.566798950639    -0.750206710076     1.284021466451
    C           -1.710868032207     0.629430288530     0.494034765776
    H           -0.205201427455     1.183449202547    -0.943122407273
    H            0.172852206903     1.643429084646     0.694373583092
    C           -2.483815494762    -0.355608582183    -0.387121667188
    H           -2.215811574800     1.592284920944     0.464969622021
    H           -1.752297272450     0.297599187012     1.530218902812
    C           -3.959535598990    -0.454412938907    -0.001233206522
    H           -2.402543593835    -0.046145091552    -1.427165850092
    H           -2.036194670106    -1.343983161003    -0.326129021435
    H           -4.485664034823    -1.158781932587    -0.637838137016
    H           -4.454131376059     0.508322260544    -0.092788028409
    H           -4.074399063030    -0.787713895584     1.026330725217

  Mulliken Charges: (a.u.)
   Center  Symbol    Alpha    Beta     Spin     Total
       1     H     0.26838  0.26838  0.00000  0.46325
       2     O     4.34784  4.34784  0.00000 -0.69569
       3     C     2.62500  2.62500  0.00000  0.75000
       4     C     3.20950  3.20950  0.00000 -0.41900
       5     O     4.28045  4.28045  0.00000 -0.56091
       6     C     3.16411  3.16411  0.00000 -0.32823
       7     H     0.39706  0.39706  0.00000  0.20588
       8     H     0.39947  0.39947  0.00000  0.20107
       9     C     3.15470  3.15470  0.00000 -0.30940
      10     H     0.41634  0.41634  0.00000  0.16733
      11     H     0.40029  0.40029  0.00000  0.19943
      12     C     3.15474  3.15474  0.00000 -0.30948
      13     H     0.41776  0.41776  0.00000  0.16448
      14     H     0.42174  0.42174  0.00000  0.15652
      15     C     3.23946  3.23946  0.00000 -0.47891
      16     H     0.42173  0.42173  0.00000  0.15653
      17     H     0.42167  0.42167  0.00000  0.15665
      18     H     0.41806  0.41806  0.00000  0.16387
      19     H     0.42069  0.42069  0.00000  0.15861
      20     H     0.42100  0.42100  0.00000  0.15800

   Total alpha = 32.00000, Total beta = 32.00000, Total charge = -0.00000
