                              Psi4 1.0.54 Driver

  ==> Input File <==

--------------------------------------------------------------------------
set {
	reference rhf
	basis cc-pvtz
}

set_num_threads( 4 )
memory 2 gb

molecule MOL {
0 1

H	 -2.644180	 -0.653737	 1.272255
C	 -2.092774	 -0.380414	 0.391915
O	 -0.808934	 -0.154049	 0.752536
F	 -2.163230	 -1.351640	 -0.507133
F	 -2.627232	 0.691260	 -0.169301
C	 0.085006	 0.250800	 -0.215074
C	 1.032701	 -0.916815	 -0.479324
Cl	 1.003450	 1.672561	 0.314637
H	 -0.397082	 0.506955	 -1.142232
F	 1.902673	 -0.600425	 -1.404563
F	 0.337261	 -1.941745	 -0.911985
F	 1.677482	 -1.283551	 0.593995

	symmetry c1
}
set optking {
	frozen_dihedral = ("
		9 6 3 2
	")
}

ee,wfn = optimize('scf', return_wfn=True)
oeprop( wfn, 'DIPOLE', 'QUADRUPOLE', 'MULLIKEN_CHARGES')
f=open( 'psi4out.xyz', 'w' )
f.write( "12  " )
f.write( str(ee) + "\n" )
f.write( MOL.save_string_xyz() )
f.close()
--------------------------------------------------------------------------

    Molecular point group: c1
  Charge       = 0
  Multiplicity = 1
  Basis Set: CC-PVTZ
  Basis Set:
  @DF-RHF Final Energy: -1146.61710273286917
    Total Energy =                      -1146.6171027328696255
    Molecular point group: c1
  Basis Set: CC-PVTZ
  Basis Set:
  Basis Set: CC-PVTZ
  Basis Set:
  @DF-RHF Final Energy: -1146.61806798901671
    Total Energy =                      -1146.6180679890167085
  Basis Set: CC-PVTZ
  Basis Set:
  Basis Set: CC-PVTZ
  Basis Set:
  @DF-RHF Final Energy: -1146.61845420452710
    Total Energy =                      -1146.6184542045261878
  Basis Set: CC-PVTZ
  Basis Set:
  Basis Set: CC-PVTZ
  Basis Set:
  @DF-RHF Final Energy: -1146.61859528397781
    Total Energy =                      -1146.6185952839773563
  Basis Set: CC-PVTZ
  Basis Set:
  Basis Set: CC-PVTZ
  Basis Set:
  @DF-RHF Final Energy: -1146.61862459271538
    Total Energy =                      -1146.6186245927156051
  Basis Set: CC-PVTZ
  Basis Set:
  Basis Set: CC-PVTZ
  Basis Set:
  @DF-RHF Final Energy: -1146.61863049215390
    Total Energy =                      -1146.6186304921529882
  Basis Set: CC-PVTZ
  Basis Set:
  Charge       = 0
  Multiplicity = 1
  Basis Set: CC-PVTZ
  Basis Set:

    Orbital Energies (a.u.)
    -----------------------

    Doubly Occupied:

       1A   -104.857173     2A    -26.354552     3A    -26.353815
       4A    -26.352700     5A    -26.343530     6A    -26.342579
       7A    -20.640611     8A    -11.519906     9A    -11.484086
      10A    -11.401909    11A    -10.582661    12A     -8.049461
      13A     -8.047466    14A     -8.047389    15A     -1.767927
      16A     -1.724714    17A     -1.662466    18A     -1.661308
      19A     -1.644607    20A     -1.486054    21A     -1.179250
      22A     -1.048630    23A     -0.993103    24A     -0.924018
      25A     -0.862839    26A     -0.859425    27A     -0.851207
      28A     -0.834282    29A     -0.819427    30A     -0.794588
      31A     -0.734596    32A     -0.731156    33A     -0.712408
      34A     -0.706863    35A     -0.682853    36A     -0.681301
      37A     -0.664685    38A     -0.662786    39A     -0.649438
      40A     -0.641556    41A     -0.597570    42A     -0.578606
      43A     -0.527015    44A     -0.479113    45A     -0.469822

  @DF-RHF Final Energy: -1146.61863124836145

   => Energetics <=

    Nuclear Repulsion Energy =            740.4212519426004064
    One-Electron Energy =               -3064.0568719617563147
    Two-Electron Energy =                1177.0169887707952512
    DFT Exchange-Correlation Energy =       0.0000000000000000
    Empirical Dispersion Energy =           0.0000000000000000
    PCM Polarization Energy =               0.0000000000000000
    EFP Energy =                            0.0000000000000000
    Total Energy =                      -1146.6186312483605434
    Molecular point group: c1
  Basis Set: CC-PVTZ
  Basis Set:

  -Total Gradient:
     Atom            X                  Y                   Z
    ------   -----------------  -----------------  -----------------
       1        0.000000831289     0.000023037512     0.000013387119
       2        0.000797917544    -0.003595283452    -0.000775760854
       3       -0.001143425785     0.006438393053     0.001521858969
       4       -0.000025308401    -0.000059901549    -0.000009320671
       5       -0.000057857119     0.000096467419     0.000023563476
       6        0.000625778095    -0.006966138826    -0.002115613719
       7       -0.000128717998    -0.000159472331    -0.000005187566
       8       -0.000003097385     0.000010949596     0.000011265203
       9       -0.000246250071     0.004139302934     0.001365084646
      10        0.000050916867    -0.000045703194     0.000004184701
      11        0.000094135489     0.000094409973     0.000002111140
      12        0.000035077544     0.000023938853    -0.000035572447

  **** Optimization is complete! (in 7 steps) ****
    Final optimized geometry and variables:
    Molecular point group: c1

    Geometry (in Angstrom), charge = 0, multiplicity = 1:

    H           -2.608029455429    -0.433323268917     1.412362926904
    C           -2.069432840509    -0.131940986391     0.533196308672
    O           -0.774024268511     0.050236719888     0.878848759081
    F           -2.197289562800    -1.044307132490    -0.415017334311
    F           -2.583695869478     0.989273887404     0.046587430496
    C            0.129910218613     0.421480598439    -0.097483161434
    C            1.127197090620    -0.712119954709    -0.338339948869
    CL           1.000346371567     1.869324471370     0.443921126440
    H           -0.348092027990     0.693026915892    -1.021894005245
    F            1.985647463798    -0.370880807918    -1.266433634298
    F            0.491754516340    -1.781301214507    -0.750482609972
    F            1.783889607901    -1.022658059235     0.746128067246

  Mulliken Charges: (a.u.)
   Center  Symbol    Alpha    Beta     Spin     Total
       1     H     0.45178  0.45178  0.00000  0.09644
       2     C     2.74022  2.74022  0.00000  0.51956
       3     O     4.15823  4.15823  0.00000 -0.31645
       4     F     4.61490  4.61490  0.00000 -0.22980
       5     F     4.61814  4.61814  0.00000 -0.23628
       6     C     2.93449  2.93449  0.00000  0.13101
       7     C     2.67227  2.67227  0.00000  0.65547
       8    CL     8.57426  8.57426  0.00000 -0.14852
       9     H     0.42942  0.42942  0.00000  0.14116
      10     F     4.60333  4.60333  0.00000 -0.20665
      11     F     4.60219  4.60219  0.00000 -0.20438
      12     F     4.60078  4.60078  0.00000 -0.20156

   Total alpha = 45.00000, Total beta = 45.00000, Total charge = -0.00000

*** Psi4 exiting successfully. Buy a developer a beer!
