  ==> Input File <==

--------------------------------------------------------------------------
set {
	reference rhf
	basis 6-31G*
}

set_num_threads( 1 )
memory 2 gb

molecule MOL {
0 1

O	 -2.439739	 -0.935931	 -0.423848
C	 -1.921153	 0.064240	 -0.045697
C	 -2.624470	 1.379923	 0.150949
O	 -0.632575	 0.154573	 0.251549
H	 -2.168117	 2.136577	 -0.476876
H	 -3.669540	 1.273223	 -0.098610
H	 -2.519365	 1.700893	 1.180846
C	 0.160891	 -1.019931	 0.106212
C	 1.589627	 -0.672828	 0.480843
H	 0.089836	 -1.367806	 -0.916050
H	 -0.238459	 -1.792301	 0.749618
C	 2.630984	 -1.648172	 -0.071135
H	 1.647075	 -0.653640	 1.567243
H	 1.807462	 0.335299	 0.138080
C	 4.054857	 -1.284068	 0.347212
H	 2.398593	 -2.653658	 0.273964
H	 2.564289	 -1.669551	 -1.153934
H	 4.774024	 -1.989327	 -0.057065
H	 4.160770	 -1.286933	 1.428440
H	 4.326831	 -0.294334	 -0.008507

	symmetry c1
}
set optking {
	frozen_dihedral = ("
		16 12 9 8,
		2 4 8 10,
		1 2 4 8
	")
}

ee = energy('scf')
oeprop('DIPOLE', 'QUADRUPOLE', 'MULLIKEN_CHARGES')
f=open( 'psi4out.xyz', 'w' )
f.write( "20  " )
f.write( str(ee) + "\n" )
f.write( MOL.save_string_xyz() )
f.close()
--------------------------------------------------------------------------

    Molecular point group: c1

    Geometry (in Angstrom), charge = 0, multiplicity = 1:

       Center              X                  Y                   Z               Mass
    ------------   -----------------  -----------------  -----------------  -----------------
           O         -2.532981293216    -0.445092692392    -0.523021301620    15.994914619560
           C         -2.014395293216     0.555078307608    -0.144870301620    12.000000000000
           C         -2.717712293216     1.870761307608     0.051775698380    12.000000000000
           O         -0.725817293216     0.645411307608     0.152375698380    15.994914619560
           H         -2.261359293216     2.627415307608    -0.576049301620     1.007825032070
           H         -3.762782293216     1.764061307608    -0.197783301620     1.007825032070
           H         -2.612607293216     2.191731307608     1.081672698380     1.007825032070
           C          0.067648706784    -0.529092692392     0.007038698380    12.000000000000
           C          1.496384706784    -0.181989692392     0.381669698380    12.000000000000
           H         -0.003406293216    -0.876967692392    -1.015223301620     1.007825032070
           H         -0.331701293216    -1.301462692392     0.650444698380     1.007825032070
           C          2.537741706784    -1.157333692392    -0.170308301620    12.000000000000
           H          1.553832706784    -0.162801692392     1.468069698380     1.007825032070
           H          1.714219706784     0.826137307608     0.038906698380     1.007825032070
           C          3.961614706784    -0.793229692392     0.248038698380    12.000000000000
           H          2.305350706784    -2.162819692392     0.174790698380     1.007825032070
           H          2.471046706784    -1.178712692392    -1.253107301620     1.007825032070
           H          4.680781706784    -1.498488692392    -0.156238301620     1.007825032070
           H          4.067527706784    -0.796094692392     1.329266698380     1.007825032070
           H          4.233588706784     0.196504307608    -0.107680301620     1.007825032070

  Charge       = 0
  Multiplicity = 1
  Basis Set: 6-31G*
  Basis Set:

    Orbital Energies (a.u.)
    -----------------------

    Doubly Occupied:

       1A    -20.601402     2A    -20.543549     3A    -11.373990
       4A    -11.281538     5A    -11.232957     6A    -11.226558
       7A    -11.223873     8A    -11.216287     9A     -1.467359
      10A     -1.361614    11A     -1.087635    12A     -1.029791
      13A     -0.981094    14A     -0.881526    15A     -0.807778
      16A     -0.776679    17A     -0.691327    18A     -0.685747
      19A     -0.668111    20A     -0.637706    21A     -0.595788
      22A     -0.594121    23A     -0.570284    24A     -0.559087
      25A     -0.544938    26A     -0.520130    27A     -0.507912
      28A     -0.484653    29A     -0.480589    30A     -0.476368
      31A     -0.451121    32A     -0.437071

  @DF-RHF Final Energy:  -383.94376557144813

   => Energetics <=

    Nuclear Repulsion Energy =            378.6977730676405827
    One-Electron Energy =               -1273.2858480601621523
    Two-Electron Energy =                 510.6443094210727622
    DFT Exchange-Correlation Energy =       0.0000000000000000
    Empirical Dispersion Energy =           0.0000000000000000
    PCM Polarization Energy =               0.0000000000000000
    EFP Energy =                            0.0000000000000000
    Total Energy =                       -383.9437655714488073

  Mulliken Charges: (a.u.)
   Center  Symbol    Alpha    Beta     Spin     Total
       1     O     4.28331  4.28331  0.00000 -0.56661
       2     C     2.61993  2.61993  0.00000  0.76013
       3     C     3.28153  3.28153  0.00000 -0.56307
       4     O     4.31096  4.31096  0.00000 -0.62193
       5     H     0.40059  0.40059  0.00000  0.19881
       6     H     0.39700  0.39700  0.00000  0.20599
       7     H     0.40058  0.40058  0.00000  0.19883
       8     C     2.99556  2.99556  0.00000  0.00887
       9     C     3.16570  3.16570  0.00000 -0.33140
      10     H     0.41117  0.41117  0.00000  0.17765
      11     H     0.41052  0.41052  0.00000  0.17895
      12     C     3.15953  3.15953  0.00000 -0.31906
      13     H     0.41686  0.41686  0.00000  0.16628
      14     H     0.41145  0.41145  0.00000  0.17709
      15     C     3.23986  3.23986  0.00000 -0.47972
      16     H     0.42027  0.42027  0.00000  0.15946
      17     H     0.41883  0.41883  0.00000  0.16235
      18     H     0.41679  0.41679  0.00000  0.16643
      19     H     0.41979  0.41979  0.00000  0.16042
      20     H     0.41974  0.41974  0.00000  0.16052

   Total alpha = 32.00000, Total beta = 32.00000, Total charge =  0.00000
