  ==> Input File <==

--------------------------------------------------------------------------
set {
	reference rhf
	basis cc-pvtz
}

set_num_threads( 4 )
memory 2 gb

molecule MOL {
0 1

O	 -1.510770	 1.240811	 -0.054933
C	 -1.081510	 0.147522	 0.122720
C	 0.327029	 -0.064006	 0.641890
C	 -1.903028	 -1.084121	 -0.174656
C	 1.349460	 -0.017068	 -0.500215
H	 0.399029	 -1.014606	 1.159950
H	 0.538021	 0.726928	 1.350471
C	 0.779762	 -0.541405	 -1.813326
H	 1.696284	 1.002722	 -0.640135
H	 2.214837	 -0.603338	 -0.214319
H	 1.524687	 -0.507913	 -2.599452
H	 -0.070740	 0.049137	 -2.136836
H	 0.450138	 -1.569468	 -1.711809
H	 -1.341891	 -1.779207	 -0.789259
H	 -2.820449	 -0.808163	 -0.671328
H	 -2.133314	 -1.593056	 0.755831

	symmetry c1
}
set optking {
	frozen_dihedral = ("
		9 5 3 2
	")
}

ee = optimize('scf')
oeprop('DIPOLE', 'QUADRUPOLE', 'MULLIKEN_CHARGES')
f=open( 'psi4out.xyz', 'w' )
f.write( "16  " )
f.write( str(ee) + "\n" )
f.write( MOL.save_string_xyz() )
f.close()
--------------------------------------------------------------------------

    Molecular point group: c1
  Charge       = 0
  Multiplicity = 1
  Basis Set: CC-PVTZ
  Basis Set:
  @DF-RHF Final Energy:  -270.12009883093396
    Total Energy =                       -270.1200988309338413
    Molecular point group: c1
  Basis Set: CC-PVTZ
  Basis Set:
  Basis Set: CC-PVTZ
  Basis Set:
  @DF-RHF Final Energy:  -270.12345508533622
    Total Energy =                       -270.1234550853362180
  Basis Set: CC-PVTZ
  Basis Set:
  Basis Set: CC-PVTZ
  Basis Set:
  @DF-RHF Final Energy:  -270.12325767523333
    Total Energy =                       -270.1232576752333898
  Basis Set: CC-PVTZ
  Basis Set:
  Basis Set: CC-PVTZ
  Basis Set:
  @DF-RHF Final Energy:  -270.12398137964453
    Total Energy =                       -270.1239813796444196
  Basis Set: CC-PVTZ
  Basis Set:
  @DF-RHF Final Energy:  -270.12417296297656
    Total Energy =                       -270.1241729629769566
  @DF-RHF Final Energy:  -270.12424143093824
    Total Energy =                       -270.1242414309383548
  @DF-RHF Final Energy:  -270.12433580059280
    Total Energy =                       -270.1243358005928030
  @DF-RHF Final Energy:  -270.12441857235501
    Total Energy =                       -270.1244185723547275
  Basis Set: CC-PVTZ
  Basis Set:
  @DF-RHF Final Energy:  -270.12446462371793
    Total Energy =                       -270.1244646237177562
  Basis Set: CC-PVTZ
  Basis Set:
  Basis Set: CC-PVTZ
  Basis Set:
  @DF-RHF Final Energy:  -270.12448186019856
    Total Energy =                       -270.1244818601981024
  Basis Set: CC-PVTZ
  Basis Set:
  Basis Set: CC-PVTZ
  Basis Set:
  @DF-RHF Final Energy:  -270.12448615325388
    Total Energy =                       -270.1244861532537698
  Basis Set: CC-PVTZ
  Basis Set:
  Charge       = 0
  Multiplicity = 1
  Basis Set: CC-PVTZ
  Basis Set:

    Orbital Energies (a.u.)
    -----------------------

    Doubly Occupied:

       1A    -20.536636     2A    -11.320439     3A    -11.229508
       4A    -11.227373     5A    -11.227046     6A    -11.211756
       7A     -1.397439     8A     -1.077368     9A     -1.013884
      10A     -0.949938    11A     -0.832477    12A     -0.726151
      13A     -0.659393    14A     -0.641648    15A     -0.622719
      16A     -0.607922    17A     -0.580727    18A     -0.555604
      19A     -0.546613    20A     -0.508528    21A     -0.497668
      22A     -0.476461    23A     -0.475734    24A     -0.399906

  @DF-RHF Final Energy:  -270.12448704427356

   => Energetics <=

    Nuclear Repulsion Energy =            242.9434389724965513
    One-Electron Energy =                -847.4899779513700651
    Two-Electron Energy =                 334.4220519346002334
    DFT Exchange-Correlation Energy =       0.0000000000000000
    Empirical Dispersion Energy =           0.0000000000000000
    PCM Polarization Energy =               0.0000000000000000
    EFP Energy =                            0.0000000000000000
    Total Energy =                       -270.1244870442732804
    Molecular point group: c1
  Basis Set: CC-PVTZ
  Basis Set:

  -Total Gradient:
     Atom            X                  Y                   Z
    ------   -----------------  -----------------  -----------------
       1       -0.000021886817     0.000040863214     0.000148374986
       2       -0.000329350674    -0.004534230759    -0.001319613357
       3        0.001379499127     0.006141666234     0.002693719989
       4       -0.000014569203     0.000028838415    -0.000071973014
       5       -0.005449215105    -0.000455937869    -0.005880915569
       6        0.000016226695     0.000064727807     0.000085818017
       7        0.000160099125     0.000035500277    -0.000036593942
       8       -0.000043945875     0.000140791234    -0.000017241748
       9        0.004259324415    -0.001450099239     0.004340704645
      10        0.000031543968     0.000066939529     0.000115438015
      11       -0.000002107467     0.000010913677    -0.000021443777
      12       -0.000027463624    -0.000002214849    -0.000020691255
      13        0.000011240448    -0.000029334867     0.000030061866
      14        0.000038706379    -0.000022870244    -0.000046917413
      15       -0.000006105954    -0.000012539736    -0.000004130423
      16       -0.000001995439    -0.000023012826     0.000005402981

  **** Optimization is complete! (in 12 steps) ****
    Final optimized geometry and variables:
    Molecular point group: c1

    Geometry (in Angstrom), charge = 0, multiplicity = 1:

    O           -1.112003431683     1.187005194493    -0.066532397967
    C           -0.796105111211     0.141948434943     0.402424905480
    C            0.613616281237    -0.091683278064     0.920320212854
    C           -1.777146887111    -0.997894482984     0.523272898780
    C            1.722273356623     0.114167256254    -0.131219872731
    H            0.678978100172    -1.097002354241     1.320763071952
    H            0.766446364039     0.590481044064     1.748696796049
    C            1.385112845298    -0.328594072801    -1.550474349512
    H            2.048010979987     1.146664297592    -0.114160502232
    H            2.583893778929    -0.450437909331     0.211938707243
    H            2.253599002232    -0.227345745372    -2.190158761632
    H            0.587832014092     0.264715925676    -1.977015915198
    H            1.083508012824    -1.371707568256    -1.575848404259
    H           -1.411456918030    -1.857353561849    -0.028913334666
    H           -2.741936182776    -0.700017715128     0.142534597922
    H           -1.866642124223    -1.300226826820     1.561505907746

  Mulliken Charges: (a.u.)
   Center  Symbol    Alpha    Beta     Spin     Total
       1     O     4.17929  4.17929  0.00000 -0.35857
       2     C     2.85041  2.85041  0.00000  0.29918
       3     C     3.11380  3.11380  0.00000 -0.22760
       4     C     3.15440  3.15440  0.00000 -0.30880
       5     C     3.07772  3.07772  0.00000 -0.15543
       6     H     0.44755  0.44755  0.00000  0.10491
       7     H     0.43852  0.43852  0.00000  0.12295
       8     C     3.16169  3.16169  0.00000 -0.32338
       9     H     0.44629  0.44629  0.00000  0.10741
      10     H     0.45100  0.45100  0.00000  0.09800
      11     H     0.44581  0.44581  0.00000  0.10837
      12     H     0.44117  0.44117  0.00000  0.11767
      13     H     0.45650  0.45650  0.00000  0.08701
      14     H     0.45035  0.45035  0.00000  0.09930
      15     H     0.43655  0.43655  0.00000  0.12691
      16     H     0.44896  0.44896  0.00000  0.10207

   Total alpha = 24.00000, Total beta = 24.00000, Total charge =  0.00000
