                              Psi4 1.0.54 Driver

  ==> Input File <==

--------------------------------------------------------------------------
set {
	reference rhf
	basis cc-pvtz
}

set_num_threads( 4 )
memory 2 gb

molecule MOL {
0 1

O	 -2.666589	 -0.673479	 0.507583
C	 -1.922978	 0.063265	 -0.045005
C	 -2.312528	 1.004002	 -1.150318
O	 -0.637375	 0.157174	 0.243149
H	 -1.738255	 0.777633	 -2.039524
H	 -3.366245	 0.905214	 -1.354179
H	 -2.082153	 2.021097	 -0.860465
C	 0.162530	 -1.009518	 0.097799
C	 1.587210	 -0.664190	 0.477086
H	 0.096803	 -1.356267	 -0.924704
H	 -0.233803	 -1.785900	 0.736810
C	 2.256770	 0.342732	 -0.454344
H	 2.154716	 -1.590834	 0.479041
H	 1.598751	 -0.289614	 1.496104
C	 3.698146	 0.643205	 -0.057145
H	 2.235038	 -0.042575	 -1.470299
H	 1.683491	 1.262594	 -0.461300
H	 4.150202	 1.356548	 -0.736242
H	 4.305463	 -0.255904	 -0.069842
H	 3.749130	 1.061068	 0.942759

	symmetry c1
}
set optking {
	frozen_dihedral = ("
		1 2 4 8
	")
}

ee,wfn = optimize('scf', return_wfn=True)
oeprop( wfn, 'DIPOLE', 'QUADRUPOLE', 'MULLIKEN_CHARGES')
f=open( 'psi4out.xyz', 'w' )
f.write( "20  " )
f.write( str(ee) + "\n" )
f.write( MOL.save_string_xyz() )
f.close()
--------------------------------------------------------------------------

    Molecular point group: c1
  Charge       = 0
  Multiplicity = 1
  Basis Set: CC-PVTZ
  Basis Set:
  @DF-RHF Final Energy:  -384.07333312596239
    Total Energy =                       -384.0733331259627903
    Molecular point group: c1
  Basis Set: CC-PVTZ
  Basis Set:
  Basis Set: CC-PVTZ
  Basis Set:
  @DF-RHF Final Energy:  -383.09448986075324
    Total Energy =                       -383.0944898607532423
  Basis Set: CC-PVTZ
  Basis Set:
  Basis Set: CC-PVTZ
  Basis Set:
  @DF-RHF Final Energy:  -383.31362825172835
    Total Energy =                       -383.3136282517283462
  Basis Set: CC-PVTZ
  Basis Set:
  Basis Set: CC-PVTZ
  Basis Set:
  @DF-RHF Final Energy:  -383.53125724768967
    Total Energy =                       -383.5312572476897799
  Basis Set: CC-PVTZ
  Basis Set:
  @DF-RHF Final Energy:  -383.70046209662041
    Total Energy =                       -383.7004620966200719
  @DF-RHF Final Energy:  -383.95826381087181
    Total Energy =                       -383.9582638108716992
  @DF-RHF Final Energy:  -383.26751821772234
    Total Energy =                       -383.2675182177222837
  @DF-RHF Final Energy:  -383.63544681083374
    Total Energy =                       -383.6354468108335709
  @DF-RHF Final Energy:  -383.90063017349740
    Total Energy =                       -383.9006301734978024
  @DF-RHF Final Energy:  -384.04582465021042
    Total Energy =                       -384.0458246502101360
  @DF-RHF Final Energy:  -383.99175017380747
    Total Energy =                       -383.9917501738074748
  @DF-RHF Final Energy:  -384.06922475616915
    Total Energy =                       -384.0692247561693193
  @DF-RHF Final Energy:  -384.07277528549929
    Total Energy =                       -384.0727752854998016
  @DF-RHF Final Energy:  -384.06210997128341
    Total Energy =                       -384.0621099712833484
  @DF-RHF Final Energy:  -384.07363429057125
    Total Energy =                       -384.0736342905713627
  @DF-RHF Final Energy:  -384.07296580206531
    Total Energy =                       -384.0729658020646866
  @DF-RHF Final Energy:  -384.07421938005416
    Total Energy =                       -384.0742193800541600
  Basis Set: CC-PVTZ
  Basis Set:
  @DF-RHF Final Energy:  -384.07420040900689
    Total Energy =                       -384.0742004090066075
  Basis Set: CC-PVTZ
  Basis Set:
  Basis Set: CC-PVTZ
  Basis Set:
  @DF-RHF Final Energy:  -384.07430837144091
    Total Energy =                       -384.0743083714410204
  Basis Set: CC-PVTZ
  Basis Set:
  Basis Set: CC-PVTZ
  Basis Set:
  @DF-RHF Final Energy:  -384.07430990933130
    Total Energy =                       -384.0743099093309638
  Basis Set: CC-PVTZ
  Basis Set:
  Charge       = 0
  Multiplicity = 1
  Basis Set: CC-PVTZ
  Basis Set:

    Orbital Energies (a.u.)
    -----------------------

    Doubly Occupied:

       1A    -20.579891     2A    -20.541263     3A    -11.369191
       4A    -11.286182     5A    -11.233858     6A    -11.224490
       7A    -11.219552     8A    -11.211993     9A     -1.462778
      10A     -1.367443    11A     -1.086092    12A     -1.026301
      13A     -0.985779    14A     -0.881347    15A     -0.811800
      16A     -0.776345    17A     -0.696200    18A     -0.687096
      19A     -0.655309    20A     -0.635960    21A     -0.611656
      22A     -0.594511    23A     -0.574004    24A     -0.561800
      25A     -0.547183    26A     -0.527418    27A     -0.510087
      28A     -0.485825    29A     -0.478011    30A     -0.474673
      31A     -0.449194    32A     -0.439623

  @DF-RHF Final Energy:  -384.07431010529797

   => Energetics <=

    Nuclear Repulsion Energy =            384.7516165346668231
    One-Electron Energy =               -1285.6661383082027896
    Two-Electron Energy =                 516.8402116682375436
    DFT Exchange-Correlation Energy =       0.0000000000000000
    Empirical Dispersion Energy =           0.0000000000000000
    PCM Polarization Energy =               0.0000000000000000
    EFP Energy =                            0.0000000000000000
    Total Energy =                       -384.0743101052984230
    Molecular point group: c1
  Basis Set: CC-PVTZ
  Basis Set:

  -Total Gradient:
     Atom            X                  Y                   Z
    ------   -----------------  -----------------  -----------------
       1        0.006098792521    -0.005356602213    -0.000901452533
       2       -0.008589594153     0.010453568161     0.003233254398
       3        0.000038394463    -0.000036568056    -0.000023358737
       4        0.001697354662    -0.010152806473    -0.006138183386
       5       -0.000011279918    -0.000002241437    -0.000001767346
       6       -0.000006572516     0.000001871377     0.000012328439
       7       -0.000028581370     0.000016291868    -0.000001093174
       8        0.000786242538     0.005088848421     0.003790170626
       9        0.000007198640     0.000011316100     0.000011022478
      10        0.000021644023    -0.000005913536     0.000006549418
      11        0.000005665689    -0.000006390446     0.000000638380
      12       -0.000010359371     0.000005855602    -0.000009941633
      13       -0.000001675980     0.000003459304     0.000005002129
      14       -0.000003718636    -0.000000365331     0.000005157678
      15       -0.000001863683    -0.000008893855     0.000005892067
      16        0.000000171110    -0.000000904128    -0.000000899993
      17       -0.000000247274    -0.000002353182     0.000001153835
      18       -0.000002823276    -0.000004447201     0.000002266905
      19       -0.000000774994    -0.000002187111     0.000005381547
      20        0.000002027527    -0.000001537864    -0.000002121095

  **** Optimization is complete! (in 21 steps) ****
    Final optimized geometry and variables:
    Molecular point group: c1

    Geometry (in Angstrom), charge = 0, multiplicity = 1:

    O           -1.221157377580    -2.179080773930     1.251554369767
    C           -0.431535929147    -1.312901599201     1.375639930810
    C            0.233217151212    -0.943432240831     2.669997175879
    O            0.043596957645    -0.610325652562     0.337347758737
    H            0.005008533902     0.088368533315     2.910101275987
    H           -0.105497759763    -1.592345924190     3.461386938459
    H            1.306766670383    -1.018715510773     2.553845606458
    C           -0.894357227492     0.116699202958    -0.445097517686
    C           -0.171769270464     0.751753910033    -1.613992349670
    H           -1.354490185383     0.876009170528     0.180349032303
    H           -1.665992434524    -0.556802617322    -0.790556416347
    C            0.871080348453     1.792771054037    -1.216982968894
    H           -0.923971656480     1.212804267196    -2.248460326071
    H            0.293661563205    -0.034434131860    -2.199728095359
    C            1.561716615322     2.420937706797    -2.422656590193
    H            0.392341666610     2.572034530228    -0.629266076836
    H            1.611357844758     1.331723318625    -0.574057290040
    H            2.294556933746     3.156993065819    -2.113575698151
    H            0.847384158245     2.917467387741    -3.071134021591
    H            2.076249674271     1.670151833532    -3.012847696389

  Mulliken Charges: (a.u.)
   Center  Symbol    Alpha    Beta     Spin     Total
       1     O     4.17939  4.17939  0.00000 -0.35878
       2     C     2.80572  2.80572  0.00000  0.38856
       3     C     3.13880  3.13880  0.00000 -0.27761
       4     O     4.16946  4.16946  0.00000 -0.33892
       5     H     0.44997  0.44997  0.00000  0.10007
       6     H     0.43737  0.43737  0.00000  0.12526
       7     H     0.44388  0.44388  0.00000  0.11224
       8     C     2.98829  2.98829  0.00000  0.02342
       9     C     3.08818  3.08818  0.00000 -0.17637
      10     H     0.46370  0.46370  0.00000  0.07260
      11     H     0.43884  0.43884  0.00000  0.12232
      12     C     3.08582  3.08582  0.00000 -0.17165
      13     H     0.45269  0.45269  0.00000  0.09462
      14     H     0.44820  0.44820  0.00000  0.10361
      15     C     3.14982  3.14982  0.00000 -0.29963
      16     H     0.45736  0.45736  0.00000  0.08529
      17     H     0.44585  0.44585  0.00000  0.10830
      18     H     0.44762  0.44762  0.00000  0.10475
      19     H     0.45566  0.45566  0.00000  0.08868
      20     H     0.45338  0.45338  0.00000  0.09323

   Total alpha = 32.00000, Total beta = 32.00000, Total charge =  0.00000

*** Psi4 exiting successfully. Buy a developer a beer!
