  ==> Input File <==

--------------------------------------------------------------------------
set {
	reference rhf
	basis 6-31G*
}

set_num_threads( 1 )
memory 2 gb

molecule MOL {
0 1

O	 0.749854	 1.307668	 -0.000040
C	 0.576249	 0.131685	 -0.000108
C	 -0.766779	 -0.556801	 -0.000461
O	 1.568443	 -0.749345	 -0.000005
C	 -1.945214	 0.412366	 0.000161
H	 -0.796911	 -1.211249	 -0.867467
H	 -0.796854	 -1.212390	 0.865687
C	 -3.287791	 -0.317055	 0.000105
H	 -1.876087	 1.060580	 -0.866812
H	 -1.875822	 1.059691	 0.867761
H	 -3.394745	 -0.949193	 -0.877058
H	 -4.111778	 0.388953	 0.000015
H	 -3.394954	 -0.949187	 0.877259
C	 1.762292	 -1.498815	 1.185712
H	 1.980792	 -0.844461	 2.017349
H	 2.601316	 -2.148229	 0.990352
H	 0.882223	 -2.082435	 1.414571

	symmetry c1
}
set optking {
	frozen_dihedral = ("
		1 2 3 6,
		9 5 3 6
	")
}

ee = energy('scf')
oeprop('DIPOLE', 'QUADRUPOLE', 'MULLIKEN_CHARGES')
f=open( 'psi4out.xyz', 'w' )
f.write( "17  " )
f.write( str(ee) + "\n" )
f.write( MOL.save_string_xyz() )
f.close()
--------------------------------------------------------------------------

    Molecular point group: c1

    Geometry (in Angstrom), charge = 0, multiplicity = 1:

       Center              X                  Y                   Z               Mass
    ------------   -----------------  -----------------  -----------------  -----------------
           O          0.923474875507     1.503174073650    -0.183059460317    15.994914619560
           C          0.749869875507     0.327191073650    -0.183127460317    12.000000000000
           C         -0.593158124493    -0.361294926350    -0.183480460317    12.000000000000
           O          1.742063875507    -0.553838926350    -0.183024460317    15.994914619560
           C         -1.771593124493     0.607872073650    -0.182858460317    12.000000000000
           H         -0.623290124493    -1.015742926350    -1.050486460317     1.007825032070
           H         -0.623233124493    -1.016883926350     0.682667539683     1.007825032070
           C         -3.114170124493    -0.121548926350    -0.182914460317    12.000000000000
           H         -1.702466124493     1.256086073650    -1.049831460317     1.007825032070
           H         -1.702201124493     1.255197073650     0.684741539683     1.007825032070
           H         -3.221124124493    -0.753686926350    -1.060077460317     1.007825032070
           H         -3.938157124493     0.584459073650    -0.183004460317     1.007825032070
           H         -3.221333124493    -0.753680926350     0.694239539683     1.007825032070
           C          1.935912875507    -1.303308926350     1.002692539683    12.000000000000
           H          2.154412875507    -0.648954926350     1.834329539683     1.007825032070
           H          2.774936875507    -1.952722926350     0.807332539683     1.007825032070
           H          1.055843875507    -1.886928926350     1.231551539683     1.007825032070

  Charge       = 0
  Multiplicity = 1
  Basis Set: 6-31G*
  Basis Set:

    Orbital Energies (a.u.)
    -----------------------

    Doubly Occupied:

       1A    -20.590579     2A    -20.554803     3A    -11.374395
       4A    -11.297365     5A    -11.238511     6A    -11.223914
       7A    -11.216745     8A     -1.464856     9A     -1.369269
      10A     -1.080821    11A     -0.993513    12A     -0.961860
      13A     -0.836798    14A     -0.768233    15A     -0.699586
      16A     -0.682708    17A     -0.678853    18A     -0.638904
      19A     -0.617158    20A     -0.578157    21A     -0.567026
      22A     -0.549978    23A     -0.518275    24A     -0.492863
      25A     -0.488968    26A     -0.481061    27A     -0.456820
      28A     -0.433844

  @DF-RHF Final Energy:  -344.88249592397375

   => Energetics <=

    Nuclear Repulsion Energy =            314.7654763149941459
    One-Electron Energy =               -1093.5842979258768537
    Two-Electron Energy =                 433.9363256869086172
    DFT Exchange-Correlation Energy =       0.0000000000000000
    Empirical Dispersion Energy =           0.0000000000000000
    PCM Polarization Energy =               0.0000000000000000
    EFP Energy =                            0.0000000000000000
    Total Energy =                       -344.8824959239740338

  Mulliken Charges: (a.u.)
   Center  Symbol    Alpha    Beta     Spin     Total
       1     O     4.25808  4.25808  0.00000 -0.51616
       2     C     2.61255  2.61255  0.00000  0.77490
       3     C     3.21766  3.21766  0.00000 -0.43532
       4     O     4.30695  4.30695  0.00000 -0.61390
       5     C     3.15134  3.15134  0.00000 -0.30268
       6     H     0.39891  0.39891  0.00000  0.20218
       7     H     0.40841  0.40841  0.00000  0.18317
       8     C     3.24250  3.24250  0.00000 -0.48500
       9     H     0.40909  0.40909  0.00000  0.18181
      10     H     0.41182  0.41182  0.00000  0.17637
      11     H     0.42116  0.42116  0.00000  0.15769
      12     H     0.41470  0.41470  0.00000  0.17060
      13     H     0.42293  0.42293  0.00000  0.15415
      14     C     3.09560  3.09560  0.00000 -0.19119
      15     H     0.40977  0.40977  0.00000  0.18045
      16     H     0.39918  0.39918  0.00000  0.20163
      17     H     0.41935  0.41935  0.00000  0.16130

   Total alpha = 28.00000, Total beta = 28.00000, Total charge = -0.00000
