  ==> Input File <==

--------------------------------------------------------------------------
set {
	reference rhf
	basis cc-pvtz
}

set_num_threads( 4 )
memory 2 gb

molecule MOL {
0 1

O	 2.005112	 1.769530	 0.579174
C	 0.928929	 1.441127	 0.168444
C	 -0.150242	 2.482641	 -0.044793
N	 0.622280	 0.144970	 -0.099307
H	 -1.027046	 2.270578	 0.554031
H	 0.259074	 3.435252	 0.247587
H	 -0.454711	 2.528458	 -1.083144
C	 1.664396	 -0.854993	 0.000772
C	 -0.570364	 -0.274299	 -0.796135
H	 2.462727	 -0.615153	 -0.690869
H	 1.261798	 -1.821849	 -0.240651
H	 2.081615	 -0.891605	 1.003877
H	 -0.878987	 -1.242192	 -0.422545
H	 -1.385803	 0.410495	 -0.637984
H	 -0.403080	 -0.368676	 -1.866721

	symmetry c1
}
set optking {
	frozen_dihedral = ("
		2 4 8 10
	")
}

ee = optimize('scf')
oeprop('DIPOLE', 'QUADRUPOLE', 'MULLIKEN_CHARGES')
f=open( 'psi4out.xyz', 'w' )
f.write( "15  " )
f.write( str(ee) + "\n" )
f.write( MOL.save_string_xyz() )
f.close()
--------------------------------------------------------------------------

    Molecular point group: c1
  Charge       = 0
  Multiplicity = 1
  Basis Set: CC-PVTZ
  Basis Set:
  @DF-RHF Final Energy:  -286.13413857609817
    Total Energy =                       -286.1341385760978255
    Molecular point group: c1
  Basis Set: CC-PVTZ
  Basis Set:
  Basis Set: CC-PVTZ
  Basis Set:
  @DF-RHF Final Energy:  -286.13481096049554
    Total Energy =                       -286.1348109604958836
  Basis Set: CC-PVTZ
  Basis Set:
  Basis Set: CC-PVTZ
  Basis Set:
  @DF-RHF Final Energy:  -286.13480872072967
    Total Energy =                       -286.1348087207297795
  Basis Set: CC-PVTZ
  Basis Set:
  Basis Set: CC-PVTZ
  Basis Set:
  @DF-RHF Final Energy:  -286.13489924246755
    Total Energy =                       -286.1348992424673270
  Basis Set: CC-PVTZ
  Basis Set:
  Basis Set: CC-PVTZ
  Basis Set:
  @DF-RHF Final Energy:  -286.13491963648062
    Total Energy =                       -286.1349196364807312
  Basis Set: CC-PVTZ
  Basis Set:
  Basis Set: CC-PVTZ
  Basis Set:
  @DF-RHF Final Energy:  -286.13492140994850
    Total Energy =                       -286.1349214099485607
  Basis Set: CC-PVTZ
  Basis Set:
  Charge       = 0
  Multiplicity = 1
  Basis Set: CC-PVTZ
  Basis Set:

    Orbital Energies (a.u.)
    -----------------------

    Doubly Occupied:

       1A    -20.503598     2A    -15.577276     3A    -11.332570
       4A    -11.264634     5A    -11.247241     6A    -11.226420
       7A     -1.387404     8A     -1.244066     9A     -1.014450
      10A     -0.974148    11A     -0.919648    12A     -0.738324
      13A     -0.681583    14A     -0.660084    15A     -0.653550
      16A     -0.588135    17A     -0.576801    18A     -0.570709
      19A     -0.566235    20A     -0.547136    21A     -0.531570
      22A     -0.501807    23A     -0.413905    24A     -0.370197

  @DF-RHF Final Energy:  -286.13492220250157

   => Energetics <=

    Nuclear Repulsion Energy =            253.1019711405341468
    One-Electron Energy =                -890.2908069020227231
    Two-Electron Energy =                 351.0539135589870057
    DFT Exchange-Correlation Energy =       0.0000000000000000
    Empirical Dispersion Energy =           0.0000000000000000
    PCM Polarization Energy =               0.0000000000000000
    EFP Energy =                            0.0000000000000000
    Total Energy =                       -286.1349222025015706
    Molecular point group: c1
  Basis Set: CC-PVTZ
  Basis Set:

  -Total Gradient:
     Atom            X                  Y                   Z
    ------   -----------------  -----------------  -----------------
       1       -0.000027387657    -0.000036191438     0.000027310472
       2        0.000219203715     0.000114370555    -0.000896303921
       3        0.000011844029    -0.000016333275    -0.000020603520
       4       -0.000165150068    -0.000004770144     0.001421239568
       5       -0.000004404898    -0.000003338409     0.000008011324
       6        0.000003356124     0.000000675297     0.000005639919
       7       -0.000007284697    -0.000010792639     0.000010941459
       8       -0.000450086204    -0.000639530257    -0.001258366765
       9        0.000006801794     0.000021768270     0.000003797292
      10        0.000469109961     0.000543219341     0.000720658904
      11        0.000004114798     0.000029425789     0.000005487423
      12       -0.000013746220     0.000003099916    -0.000003373825
      13       -0.000003145206     0.000005115754    -0.000017698330
      14       -0.000019402260    -0.000008475866     0.000015396775
      15       -0.000023823217     0.000001757107    -0.000022136775

  **** Optimization is complete! (in 7 steps) ****
    Final optimized geometry and variables:
    Molecular point group: c1

    Geometry (in Angstrom), charge = 0, multiplicity = 1:

    O            1.259616327387     0.958880548919     0.610405560849
    C            0.172467202080     0.657613072977     0.206385328740
    C           -0.890542203798     1.716750748009     0.005824162248
    N           -0.141606934966    -0.633898398052    -0.061499837923
    H           -1.772563881030     1.508159294450     0.598211330877
    H           -0.469422118048     2.659741354141     0.312756917189
    H           -1.190186288177     1.781486077178    -1.033040138018
    C            0.936928566891    -1.600327540391     0.039958428400
    C           -1.333249411166    -1.050295377881    -0.763470373057
    H            1.744695885374    -1.369827486721    -0.644288768089
    H            0.548829529492    -2.582568033602    -0.186435454937
    H            1.346976115770    -1.605853064428     1.038899139902
    H           -1.674128371447    -1.997987778381    -0.367925474269
    H           -2.131587994564    -0.339692236009    -0.633925623194
    H           -1.157181295160    -1.174612159672    -1.829340129600

  Mulliken Charges: (a.u.)
   Center  Symbol    Alpha    Beta     Spin     Total
       1     O     4.22011  4.22011  0.00000 -0.44022
       2     C     2.84565  2.84565  0.00000  0.30870
       3     C     3.16001  3.16001  0.00000 -0.32003
       4     N     3.56234  3.56234  0.00000 -0.12468
       5     H     0.44888  0.44888  0.00000  0.10225
       6     H     0.42892  0.42892  0.00000  0.14216
       7     H     0.44928  0.44928  0.00000  0.10145
       8     C     3.09006  3.09006  0.00000 -0.18011
       9     C     3.09832  3.09832  0.00000 -0.19665
      10     H     0.44958  0.44958  0.00000  0.10084
      11     H     0.45778  0.45778  0.00000  0.08444
      12     H     0.44026  0.44026  0.00000  0.11948
      13     H     0.44850  0.44850  0.00000  0.10301
      14     H     0.44581  0.44581  0.00000  0.10839
      15     H     0.45451  0.45451  0.00000  0.09097

   Total alpha = 24.00000, Total beta = 24.00000, Total charge = -0.00000
