  ==> Input File <==

--------------------------------------------------------------------------
set {
	reference rhf
	basis 6-31G*
}

set_num_threads( 4 )
memory 2 gb

molecule MOL {
0 1

H	 2.465338	 -2.224223	 0.000000
O	 2.784187	 -1.332015	 0.000000
C	 1.765313	 -0.449364	 0.000000
C	 2.043195	 0.846774	 0.422789
C	 0.486891	 -0.788924	 -0.398083
H	 3.044691	 1.085883	 0.727242
C	 1.042294	 1.795855	 0.445348
H	 0.244692	 -1.779766	 -0.728382
C	 -0.494256	 0.188795	 -0.362939
H	 1.265630	 2.794103	 0.773188
C	 -0.250568	 1.479342	 0.050163
N	 -1.844961	 -0.175699	 -0.785107
H	 -1.037481	 2.204620	 0.062151
O	 -2.030209	 -1.301122	 -1.138857
O	 -2.683536	 0.671620	 -0.751859

	symmetry c1
}
set optking {
	frozen_dihedral = ("
		4 3 2 1
	")
}

ee = optimize('scf')
oeprop('DIPOLE', 'QUADRUPOLE', 'MULLIKEN_CHARGES')
f=open( 'psi4out.xyz', 'w' )
f.write( "15  " )
f.write( str(ee) + "\n" )
f.write( MOL.save_string_xyz() )
f.close()
--------------------------------------------------------------------------

    Molecular point group: c1
  Charge       = 0
  Multiplicity = 1
  Basis Set: 6-31G*
  Basis Set:
  @DF-RHF Final Energy:  -509.02716252809262
    Total Energy =                       -509.0271625280929584
    Molecular point group: c1
  Basis Set: 6-31G*
  Basis Set:
  Basis Set: 6-31G*
  Basis Set:
  @DF-RHF Final Energy:  -509.02713122358603
    Total Energy =                       -509.0271312235863661
  Basis Set: 6-31G*
  Basis Set:
  Basis Set: 6-31G*
  Basis Set:
  @DF-RHF Final Energy:  -509.02497866225599
    Total Energy =                       -509.0249786622554211
  Basis Set: 6-31G*
  Basis Set:
  Basis Set: 6-31G*
  Basis Set:
  @DF-RHF Final Energy:  -509.02715157212498
    Total Energy =                       -509.0271515721249216
  Basis Set: 6-31G*
  Basis Set:
  Basis Set: 6-31G*
  Basis Set:
  @DF-RHF Final Energy:  -509.02718483818967
    Total Energy =                       -509.0271848381893278
  Basis Set: 6-31G*
  Basis Set:
  Charge       = 0
  Multiplicity = 1
  Basis Set: 6-31G*
  Basis Set:

    Orbital Energies (a.u.)
    -----------------------

    Doubly Occupied:

       1A    -20.613912     2A    -20.605091     3A    -20.604580
       4A    -15.859527     5A    -11.329458     6A    -11.311086
       7A    -11.267532     8A    -11.266812     9A    -11.264340
      10A    -11.261160    11A     -1.638312    12A     -1.434270
      13A     -1.421544    14A     -1.200632    15A     -1.095025
      16A     -1.046505    17A     -0.966006    18A     -0.877614
      19A     -0.828774    20A     -0.791201    21A     -0.750786
      22A     -0.737223    23A     -0.723998    24A     -0.707986
      25A     -0.673504    26A     -0.635876    27A     -0.621114
      28A     -0.586428    29A     -0.558044    30A     -0.544297
      31A     -0.515117    32A     -0.492071    33A     -0.489906
      34A     -0.454956    35A     -0.377401    36A     -0.344622

  @DF-RHF Final Energy:  -509.02718683299861

   => Energetics <=

    Nuclear Repulsion Energy =            503.4002256107306721
    One-Electron Energy =               -1693.0614067775868534
    Two-Electron Energy =                 680.6339943338575722
    DFT Exchange-Correlation Energy =       0.0000000000000000
    Empirical Dispersion Energy =           0.0000000000000000
    PCM Polarization Energy =               0.0000000000000000
    EFP Energy =                            0.0000000000000000
    Total Energy =                       -509.0271868329987228
    Molecular point group: c1
  Basis Set: 6-31G*
  Basis Set:

  -Total Gradient:
     Atom            X                  Y                   Z
    ------   -----------------  -----------------  -----------------
       1       -0.000020896092     0.000026549141     0.001882207174
       2       -0.000130284224    -0.000097440921    -0.001769412374
       3        0.000403385477     0.000383392488    -0.001374330329
       4       -0.000334166516    -0.000278430608     0.001309705200
       5        0.000093866849     0.000002262643    -0.000020730508
       6        0.000013251794    -0.000002582460    -0.000004604309
       7        0.000135527489    -0.000016884707    -0.000047607901
       8       -0.000005277003     0.000011302499     0.000017862758
       9       -0.000004679601     0.000080339435     0.000029386578
      10        0.000003323984    -0.000007911648     0.000010742542
      11       -0.000070182521    -0.000074199861     0.000014781660
      12        0.000101928647     0.000036492119     0.000025791952
      13        0.000015725380    -0.000005366983    -0.000005343206
      14       -0.000121119025     0.000051792979    -0.000018566148
      15       -0.000080404634    -0.000109314113    -0.000049883084

  **** Optimization is complete! (in 6 steps) ****
    Final optimized geometry and variables:
    Molecular point group: c1

    Geometry (in Angstrom), charge = 0, multiplicity = 1:

    H            2.432239174904    -2.261412530644     0.266680371304
    O            2.753133054238    -1.370010792516     0.269779077769
    C            1.733597930034    -0.484770619735     0.277752846483
    C            2.009929667507     0.809416060850     0.704760815364
    C            0.455815393079    -0.824718318560    -0.122606301417
    H            3.009725076681     1.046738817382     1.016377447474
    C            1.010442264361     1.761142597434     0.719369082711
    H            0.217638913578    -1.814108945391    -0.459696324679
    C           -0.526080537967     0.151555402215    -0.085968698425
    H            1.232837461888     2.759141452276     1.048563213363
    C           -0.281571268104     1.443645933125     0.323982811817
    N           -1.877235068683    -0.213486039074    -0.505816720168
    H           -1.068660255223     2.168730901341     0.334801462814
    O           -2.067578705733    -1.344166801519    -0.839230839300
    O           -2.711691543145     0.638534004669    -0.490165747501

  Mulliken Charges: (a.u.)
   Center  Symbol    Alpha    Beta     Spin     Total
       1     H     0.26755  0.26755  0.00000  0.46490
       2     O     4.37697  4.37697  0.00000 -0.75395
       3     C     2.79428  2.79428  0.00000  0.41144
       4     C     3.10776  3.10776  0.00000 -0.21552
       5     C     3.13426  3.13426  0.00000 -0.26852
       6     H     0.38091  0.38091  0.00000  0.23819
       7     C     3.10115  3.10115  0.00000 -0.20230
       8     H     0.36704  0.36704  0.00000  0.26592
       9     C     2.91413  2.91413  0.00000  0.17175
      10     H     0.38655  0.38655  0.00000  0.22690
      11     C     3.09693  3.09693  0.00000 -0.19385
      12     N     3.24032  3.24032  0.00000  0.51935
      13     H     0.36507  0.36507  0.00000  0.26985
      14     O     4.23529  4.23529  0.00000 -0.47059
      15     O     4.23179  4.23179  0.00000 -0.46359

   Total alpha = 36.00000, Total beta = 36.00000, Total charge = -0.00000
