  ==> Input File <==

--------------------------------------------------------------------------
set {
	reference rhf
	basis 6-31G*
}

set_num_threads( 4 )
memory 2 gb

molecule MOL {
0 1

H	 -3.420663	 1.227371	 -1.044276
O	 -3.452007	 0.283848	 -0.965577
C	 -3.181085	 -0.079926	 0.364119
C	 -1.765924	 0.277073	 0.805136
H	 -3.327791	 -1.152017	 0.410903
H	 -3.905698	 0.375695	 1.036898
C	 -1.534627	 0.111291	 2.307646
H	 -1.056186	 -0.340345	 0.253748
H	 -1.564940	 1.305732	 0.510710
C	 -0.105423	 0.450405	 2.736084
H	 -1.770931	 -0.908849	 2.594323
H	 -2.233584	 0.749136	 2.846169
C	 0.116812	 0.287796	 4.242157
H	 0.587815	 -0.182955	 2.187728
H	 0.125146	 1.475565	 2.448875
C	 1.508943	 0.700895	 4.733559
H	 -0.069923	 -0.747423	 4.523488
H	 -0.625678	 0.883085	 4.769563
C	 2.651692	 -0.174781	 4.216142
H	 1.512919	 0.671790	 5.820493
H	 1.694747	 1.737094	 4.457928
H	 2.486591	 -1.219407	 4.466414
H	 3.597157	 0.124358	 4.658238
H	 2.760924	 -0.105925	 3.138881

	symmetry c1
}
set optking {
	frozen_dihedral = ("
		7 4 3 2
	")
}

ee = optimize('scf')
oeprop('DIPOLE', 'QUADRUPOLE', 'MULLIKEN_CHARGES')
f=open( 'psi4out.xyz', 'w' )
f.write( "24  " )
f.write( str(ee) + "\n" )
f.write( MOL.save_string_xyz() )
f.close()
--------------------------------------------------------------------------

    Molecular point group: c1
  Charge       = 0
  Multiplicity = 1
  Basis Set: 6-31G*
  Basis Set:
  @DF-RHF Final Energy:  -349.24680012402246
    Total Energy =                       -349.2468001240223998
    Molecular point group: c1
  Basis Set: 6-31G*
  Basis Set:
  Basis Set: 6-31G*
  Basis Set:
  @DF-RHF Final Energy:  -349.24691924126080
    Total Energy =                       -349.2469192412612529
  Basis Set: 6-31G*
  Basis Set:
  Basis Set: 6-31G*
  Basis Set:
  @DF-RHF Final Energy:  -349.24693181247574
    Total Energy =                       -349.2469318124758502
  Basis Set: 6-31G*
  Basis Set:
  Charge       = 0
  Multiplicity = 1
  Basis Set: 6-31G*
  Basis Set:

    Orbital Energies (a.u.)
    -----------------------

    Doubly Occupied:

       1A    -20.551922     2A    -11.266902     3A    -11.220057
       4A    -11.216988     5A    -11.216711     6A    -11.216543
       7A    -11.215275     8A    -11.209157     9A     -1.359077
      10A     -1.093107    11A     -1.051701    12A     -0.986764
      13A     -0.914766    14A     -0.851307    15A     -0.805469
      16A     -0.779628    17A     -0.691523    18A     -0.653200
      19A     -0.624834    20A     -0.608926    21A     -0.603267
      22A     -0.587503    23A     -0.558148    24A     -0.538607
      25A     -0.527964    26A     -0.512769    27A     -0.489583
      28A     -0.483762    29A     -0.472835    30A     -0.462205
      31A     -0.456439    32A     -0.451860    33A     -0.420379

  @DF-RHF Final Energy:  -349.24693131849386

   => Energetics <=

    Nuclear Repulsion Energy =            379.8459972844922845
    One-Electron Energy =               -1225.9875005524311291
    Two-Electron Energy =                 496.8945719494450941
    DFT Exchange-Correlation Energy =       0.0000000000000000
    Empirical Dispersion Energy =           0.0000000000000000
    PCM Polarization Energy =               0.0000000000000000
    EFP Energy =                            0.0000000000000000
    Total Energy =                       -349.2469313184936937
    Molecular point group: c1
  Basis Set: 6-31G*
  Basis Set:

  -Total Gradient:
     Atom            X                  Y                   Z
    ------   -----------------  -----------------  -----------------
       1        0.000006137923    -0.000069699647     0.000042551625
       2       -0.000743151626     0.001911676386     0.000501685730
       3        0.000775834322    -0.001797309156    -0.000832898830
       4        0.000679404651    -0.002136739485    -0.000222739334
       5       -0.000010162356     0.000056053658    -0.000017194483
       6        0.000008519031    -0.000051426908     0.000087330732
       7       -0.000601232009     0.001960155256     0.000151770502
       8       -0.000165191801     0.000099954669     0.000104303601
       9       -0.000040220942     0.000095166970     0.000038995079
      10        0.000053657885     0.000057852386     0.000090153096
      11       -0.000069545405    -0.000142160938     0.000163161844
      12        0.000044334905     0.000012300550    -0.000124557986
      13        0.000064518173    -0.000063405689    -0.000022133449
      14       -0.000024521805     0.000043034026     0.000011149360
      15        0.000013471282     0.000045313187     0.000031568623
      16        0.000011724574    -0.000021721658    -0.000010685568
      17       -0.000016856880    -0.000012210700     0.000006177977
      18        0.000022222107     0.000011442979    -0.000006258794
      19        0.000004219925     0.000000281041     0.000012176642
      20       -0.000001049816     0.000006417349     0.000001771439
      21       -0.000004576807    -0.000006823623    -0.000015270329
      22       -0.000002080951    -0.000002787215    -0.000004365610
      23       -0.000000813758    -0.000003819138     0.000005770978
      24       -0.000004640629     0.000008455699     0.000007537166

  **** Optimization is complete! (in 4 steps) ****
    Final optimized geometry and variables:
    Molecular point group: c1

    Geometry (in Angstrom), charge = 0, multiplicity = 1:

    H           -2.646076505753     0.974572796965    -3.292793498744
    O           -2.693291009886     0.032845919752    -3.206657364390
    C           -2.418743830767    -0.323848113150    -1.877075292664
    C           -1.003253991209     0.047921553051    -1.446963926739
    H           -2.563456320114    -1.395008698589    -1.818557011129
    H           -3.143684380715     0.135320665569    -1.205659678920
    C           -0.775249902453    -0.112100218554     0.057094071233
    H           -0.292267099408    -0.550277122121    -2.009485866778
    H           -0.818276807331     1.086246598505    -1.722995972944
    C            0.653170166336     0.226163507712     0.489807592068
    H           -1.005617267927    -1.134639066497     0.354054164812
    H           -1.474826104911     0.524948497643     0.594937217285
    C            0.874790607079     0.056246660541     1.995022791976
    H            1.346384794152    -0.402808519091    -0.062220430628
    H            0.880141035890     1.253281514152     0.207511829391
    C            2.268382805353     0.463485794363     2.487195494369
    H            0.686049426557    -0.979826421518     2.272031646393
    H            0.134175639547     0.651292893417     2.525627222200
    C            3.407750053726    -0.415810283088     1.968615780540
    H            2.271698268884     0.432848752490     3.573997690178
    H            2.457810410353     1.499369852465     2.213012918968
    H            3.238498524305    -1.460212386933     2.216853730656
    H            4.353953815526    -0.121136321190     2.411956566329
    H            3.517976265349    -0.345366876411     0.891633869939

  Mulliken Charges: (a.u.)
   Center  Symbol    Alpha    Beta     Spin     Total
       1     H     0.28337  0.28337  0.00000  0.43326
       2     O     4.37105  4.37105  0.00000 -0.74210
       3     C     2.98841  2.98841  0.00000  0.02317
       4     C     3.16644  3.16644  0.00000 -0.33289
       5     H     0.41587  0.41587  0.00000  0.16826
       6     H     0.43204  0.43204  0.00000  0.13592
       7     C     3.15989  3.15989  0.00000 -0.31979
       8     H     0.41426  0.41426  0.00000  0.17148
       9     H     0.42901  0.42901  0.00000  0.14199
      10     C     3.15293  3.15293  0.00000 -0.30586
      11     H     0.42183  0.42183  0.00000  0.15634
      12     H     0.42292  0.42292  0.00000  0.15417
      13     C     3.15262  3.15262  0.00000 -0.30524
      14     H     0.42003  0.42003  0.00000  0.15994
      15     H     0.42402  0.42402  0.00000  0.15196
      16     C     3.15244  3.15244  0.00000 -0.30489
      17     H     0.42385  0.42385  0.00000  0.15231
      18     H     0.42253  0.42253  0.00000  0.15495
      19     C     3.24131  3.24131  0.00000 -0.48262
      20     H     0.42076  0.42076  0.00000  0.15849
      21     H     0.42341  0.42341  0.00000  0.15318
      22     H     0.42208  0.42208  0.00000  0.15584
      23     H     0.41903  0.41903  0.00000  0.16195
      24     H     0.41990  0.41990  0.00000  0.16020

   Total alpha = 33.00000, Total beta = 33.00000, Total charge = -0.00000
