                              Psi4 1.0.54 Driver

  ==> Input File <==

--------------------------------------------------------------------------
set {
	reference rhf
	basis cc-pvtz
}

set_num_threads( 4 )
memory 2 gb

molecule MOL {
0 1

H	 -2.816458	 -0.841657	 -0.064679
N	 -1.878861	 -0.711874	 0.250184
C	 -1.341419	 0.551458	 -0.220231
H	 -1.333674	 -1.468530	 -0.105118
C	 -1.646644	 1.656814	 0.764490
H	 -0.265464	 0.528826	 -0.388611
H	 -1.813218	 0.799273	 -1.164712
O	 -0.972936	 1.394851	 1.958307
H	 -1.325962	 2.614298	 0.356371
H	 -2.718859	 1.703331	 0.940897
C	 -1.226332	 2.306748	 2.974897
H	 -0.653707	 2.007005	 3.840714
H	 -0.927297	 3.313262	 2.689935
H	 -2.280701	 2.323582	 3.240574

	symmetry c1
}
set optking {
	frozen_dihedral = ("
		6 3 2 4
	")
}

ee,wfn = optimize('scf', return_wfn=True)
oeprop( wfn, 'DIPOLE', 'QUADRUPOLE', 'MULLIKEN_CHARGES')
f=open( 'psi4out.xyz', 'w' )
f.write( "14  " )
f.write( str(ee) + "\n" )
f.write( MOL.save_string_xyz() )
f.close()
--------------------------------------------------------------------------

    Molecular point group: c1
  Charge       = 0
  Multiplicity = 1
  Basis Set: CC-PVTZ
  Basis Set:
  @DF-RHF Final Energy:  -248.21890622373721
    Total Energy =                       -248.2189062237371218
    Molecular point group: c1
  Basis Set: CC-PVTZ
  Basis Set:
  Basis Set: CC-PVTZ
  Basis Set:
  @DF-RHF Final Energy:  -248.22076147427831
    Total Energy =                       -248.2207614742781630
  Basis Set: CC-PVTZ
  Basis Set:
  Basis Set: CC-PVTZ
  Basis Set:
  @DF-RHF Final Energy:  -248.22105858422580
    Total Energy =                       -248.2210585842257160
  Basis Set: CC-PVTZ
  Basis Set:
  Basis Set: CC-PVTZ
  Basis Set:
  @DF-RHF Final Energy:  -248.22107851208858
    Total Energy =                       -248.2210785120883543
  Basis Set: CC-PVTZ
  Basis Set:
  Charge       = 0
  Multiplicity = 1
  Basis Set: CC-PVTZ
  Basis Set:

    Orbital Energies (a.u.)
    -----------------------

    Doubly Occupied:

       1A    -20.542193     2A    -15.525350     3A    -11.260951
       4A    -11.257754     5A    -11.241541     6A     -1.378236
       7A     -1.176266     8A     -0.998844     9A     -0.902359
      10A     -0.816735    11A     -0.682789    12A     -0.669441
      13A     -0.643528    14A     -0.624701    15A     -0.599293
      16A     -0.539607    17A     -0.520845    18A     -0.504899
      19A     -0.466041    20A     -0.412972    21A     -0.382491

  @DF-RHF Final Energy:  -248.22107993546717

   => Energetics <=

    Nuclear Repulsion Energy =            193.3224781013776692
    One-Electron Energy =                -720.7934458163729232
    Two-Electron Energy =                 279.2498877795280237
    DFT Exchange-Correlation Energy =       0.0000000000000000
    Empirical Dispersion Energy =           0.0000000000000000
    PCM Polarization Energy =               0.0000000000000000
    EFP Energy =                            0.0000000000000000
    Total Energy =                       -248.2210799354672304
    Molecular point group: c1
  Basis Set: CC-PVTZ
  Basis Set:

  -Total Gradient:
     Atom            X                  Y                   Z
    ------   -----------------  -----------------  -----------------
       1        0.000013524307     0.000013917070    -0.000004446288
       2       -0.000768577685    -0.000054455477    -0.001217310273
       3        0.000291739982     0.000399466829     0.001282135857
       4        0.000588980572     0.000003781355     0.000816930393
       5       -0.000029076174    -0.000109451427     0.000091897569
       6       -0.000100673624    -0.000283475454    -0.000855829984
       7       -0.000002805859    -0.000020498513     0.000011456459
       8       -0.000000521735     0.000014182453    -0.000129190119
       9        0.000036366035     0.000003303200     0.000037655042
      10       -0.000043047703     0.000010248816    -0.000041871197
      11        0.000037727166     0.000049399064     0.000020267487
      12       -0.000009162173    -0.000009565383    -0.000007128022
      13       -0.000008436617    -0.000003625121     0.000007042980
      14       -0.000006036491    -0.000013227408    -0.000011609904

  **** Optimization is complete! (in 5 steps) ****
    Final optimized geometry and variables:
    Molecular point group: c1

    Geometry (in Angstrom), charge = 0, multiplicity = 1:

    H           -1.607970401381    -1.822039424517    -1.183457903920
    N           -0.660358960241    -1.761116193790    -0.880774125264
    C           -0.021622651165    -0.539119497430    -1.338213259802
    H           -0.180007255439    -2.572469359024    -1.200235386089
    C           -0.212935324989     0.605268370976    -0.364081319205
    H            1.040716669447    -0.718345808818    -1.445521628517
    H           -0.386228184315    -0.216147786755    -2.312698825905
    O            0.558736237036     0.392221677649     0.771696443742
    H            0.078669581558     1.540763209541    -0.843040376317
    H           -1.266906230105     0.688007971216    -0.098448824142
    C            0.372300410399     1.328982993424     1.777764781979
    H            1.026266270603     1.069493652899     2.597719613612
    H            0.617719429532     2.334687399532     1.440546279415
    H           -0.654626297178     1.329176621959     2.136927909559

  Mulliken Charges: (a.u.)
   Center  Symbol    Alpha    Beta     Spin     Total
       1     H     0.43057  0.43057  0.00000  0.13885
       2     N     3.69012  3.69012  0.00000 -0.38023
       3     C     3.03447  3.03447  0.00000 -0.06894
       4     H     0.42542  0.42542  0.00000  0.14916
       5     C     2.95017  2.95017  0.00000  0.09967
       6     H     0.45344  0.45344  0.00000  0.09312
       7     H     0.46503  0.46503  0.00000  0.06994
       8     O     4.16936  4.16936  0.00000 -0.33873
       9     H     0.47531  0.47531  0.00000  0.04937
      10     H     0.48078  0.48078  0.00000  0.03843
      11     C     3.03186  3.03186  0.00000 -0.06372
      12     H     0.44747  0.44747  0.00000  0.10505
      13     H     0.47437  0.47437  0.00000  0.05126
      14     H     0.47161  0.47161  0.00000  0.05678

   Total alpha = 21.00000, Total beta = 21.00000, Total charge = -0.00000

*** Psi4 exiting successfully. Buy a developer a beer!
