                              Psi4 1.0.54 Driver

  ==> Input File <==

--------------------------------------------------------------------------
set {
	reference rhf
	basis cc-pvtz
}

set_num_threads( 4 )
memory 2 gb

molecule MOL {
0 1

H	 -3.642953	 0.223825	 0.000000
C	 -2.571844	 0.155001	 0.000000
C	 -1.957580	 -1.086132	 0.000000
C	 -1.807160	 1.303787	 0.000000
H	 -2.551493	 -1.979629	 0.000000
C	 -0.582719	 -1.174294	 0.000000
H	 -2.279934	 2.266806	 0.000000
C	 -0.427220	 1.213406	 0.000000
H	 -0.094904	 -2.127556	 0.000000
C	 0.196908	 -0.024061	 0.000000
H	 0.151409	 2.115254	 0.000000
C	 1.690041	 -0.173233	 0.000000
C	 2.320216	 -1.253246	 -0.849183
O	 2.369155	 0.547969	 0.658811
H	 1.961788	 -2.232007	 -0.553319
H	 3.390116	 -1.208459	 -0.722542
H	 2.073686	 -1.111975	 -1.894767

	symmetry c1
}
set optking {
	frozen_dihedral = ("
		13 12 10 8
	")
}

ee,wfn = optimize('scf', return_wfn=True)
oeprop( wfn, 'DIPOLE', 'QUADRUPOLE', 'MULLIKEN_CHARGES')
f=open( 'psi4out.xyz', 'w' )
f.write( "17  " )
f.write( str(ee) + "\n" )
f.write( MOL.save_string_xyz() )
f.close()
--------------------------------------------------------------------------

    Molecular point group: c1
  Charge       = 0
  Multiplicity = 1
  Basis Set: CC-PVTZ
  Basis Set:
  @DF-RHF Final Energy:  -382.60107408072668
    Total Energy =                       -382.6010740807269030
    Molecular point group: c1
  Basis Set: CC-PVTZ
  Basis Set:
  Basis Set: CC-PVTZ
  Basis Set:
  @DF-RHF Final Energy:  -382.58260461025031
    Total Energy =                       -382.5826046102500868
  Basis Set: CC-PVTZ
  Basis Set:
  Basis Set: CC-PVTZ
  Basis Set:
  @DF-RHF Final Energy:  -382.60091426349106
    Total Energy =                       -382.6009142634911768
  Basis Set: CC-PVTZ
  Basis Set:
  Basis Set: CC-PVTZ
  Basis Set:
  @DF-RHF Final Energy:  -382.01305747193982
    Total Energy =                       -382.0130574719397600
  Basis Set: CC-PVTZ
  Basis Set:
  @DF-RHF Final Energy:  -382.25392368447871
    Total Energy =                       -382.2539236844787638
  @DF-RHF Final Energy:  -382.50315158107810
    Total Energy =                       -382.5031515810783276
  @DF-RHF Final Energy:  -382.59555610505714
    Total Energy =                       -382.5955561050571987
  @DF-RHF Final Energy:  -382.60231307193061
    Total Energy =                       -382.6023130719308938
  Basis Set: CC-PVTZ
  Basis Set:
  @DF-RHF Final Energy:  -382.60216566282020
    Total Energy =                       -382.6021656628203118
  Basis Set: CC-PVTZ
  Basis Set:
  Basis Set: CC-PVTZ
  Basis Set:
  @DF-RHF Final Energy:  -382.60287184967501
    Total Energy =                       -382.6028718496751253
  Basis Set: CC-PVTZ
  Basis Set:
  Basis Set: CC-PVTZ
  Basis Set:
  @DF-RHF Final Energy:  -382.60287537741766
    Total Energy =                       -382.6028753774171491
  Basis Set: CC-PVTZ
  Basis Set:
  Charge       = 0
  Multiplicity = 1
  Basis Set: CC-PVTZ
  Basis Set:

    Orbital Energies (a.u.)
    -----------------------

    Doubly Occupied:

       1A    -20.542666     2A    -11.328461     3A    -11.245737
       4A    -11.243942     5A    -11.242371     6A    -11.239949
       7A    -11.239284     8A    -11.237426     9A    -11.229825
      10A     -1.403526    11A     -1.171415    12A     -1.053686
      13A     -1.030663    14A     -0.999713    15A     -0.864125
      16A     -0.840139    17A     -0.764348    18A     -0.710627
      19A     -0.661572    20A     -0.651461    21A     -0.627775
      22A     -0.618896    23A     -0.603393    24A     -0.594030
      25A     -0.559406    26A     -0.530433    27A     -0.519004
      28A     -0.505589    29A     -0.496730    30A     -0.414414
      31A     -0.350025    32A     -0.347208

  @DF-RHF Final Energy:  -382.60287613296487

   => Energetics <=

    Nuclear Repulsion Energy =            404.2776821061559076
    One-Electron Energy =               -1320.0254400445719511
    Two-Electron Energy =                 533.1448818054510639
    DFT Exchange-Correlation Energy =       0.0000000000000000
    Empirical Dispersion Energy =           0.0000000000000000
    PCM Polarization Energy =               0.0000000000000000
    EFP Energy =                            0.0000000000000000
    Total Energy =                       -382.6028761329649797
    Molecular point group: c1
  Basis Set: CC-PVTZ
  Basis Set:

  -Total Gradient:
     Atom            X                  Y                   Z
    ------   -----------------  -----------------  -----------------
       1        0.000017321667    -0.000004635010     0.000004543198
       2       -0.000020342301     0.000145062823    -0.000077657320
       3        0.000148897059    -0.000028716175     0.000009631810
       4       -0.000087138270    -0.000111021668     0.000058079910
       5       -0.000000156231     0.000022807933    -0.000011382646
       6       -0.000109848435    -0.000039625337     0.000043618136
       7        0.000015804172    -0.000001318224    -0.000004138840
       8        0.000262815227    -0.001557935231    -0.002884791020
       9        0.000005185602     0.000010883497    -0.000006021090
      10       -0.000450622217     0.002539315087     0.002743487204
      11       -0.000011262447    -0.000021537972     0.000009411981
      12        0.000753487782    -0.001409937463     0.003022030495
      13       -0.000454388229     0.000547349051    -0.002854386367
      14       -0.000039923776    -0.000101465705    -0.000001878410
      15       -0.000008732052     0.000000742254    -0.000036277585
      16       -0.000013947618    -0.000008801172    -0.000012544127
      17       -0.000007149932     0.000018833314    -0.000001725328

  **** Optimization is complete! (in 12 steps) ****
    Final optimized geometry and variables:
    Molecular point group: c1

    Geometry (in Angstrom), charge = 0, multiplicity = 1:

    H           -3.512440661078    -0.933972322281     0.283687782434
    C           -2.479030629321    -0.653305887305     0.212415451133
    C           -1.499691820196    -1.494131028998     0.703946958242
    C           -2.126776874429     0.548933006852    -0.374180279543
    H           -1.769639692184    -2.426174667932     1.161746291959
    C           -0.168164383710    -1.138925385623     0.599191705528
    H           -2.885458578384     1.200506851724    -0.762883000021
    C           -0.798862177767     0.913742466311    -0.457153750970
    H            0.582552978384    -1.806164819575     0.975188453938
    C            0.190287760790     0.074294400080     0.033840843291
    H           -0.517181942498     1.850267493386    -0.895497412212
    C            1.622817256714     0.497570056863    -0.118156935271
    C            2.644170871910    -0.555068881869    -0.481465933203
    O            1.926177598357     1.643101852362    -0.028544488926
    H            2.732360283345    -1.302919168635     0.297333791221
    H            3.601446948361    -0.080084908334    -0.629260376127
    H            2.337858053006    -1.064332617240    -1.387515458324

  Mulliken Charges: (a.u.)
   Center  Symbol    Alpha    Beta     Spin     Total
       1     H     0.42068  0.42068  0.00000  0.15863
       2     C     3.07783  3.07783  0.00000 -0.15567
       3     C     3.07010  3.07010  0.00000 -0.14019
       4     C     3.06959  3.06959  0.00000 -0.13918
       5     H     0.42176  0.42176  0.00000  0.15647
       6     C     3.08971  3.08971  0.00000 -0.17942
       7     H     0.42072  0.42072  0.00000  0.15855
       8     C     3.08517  3.08517  0.00000 -0.17034
       9     H     0.42368  0.42368  0.00000  0.15263
      10     C     2.98462  2.98462  0.00000  0.03077
      11     H     0.41147  0.41147  0.00000  0.17706
      12     C     2.86035  2.86035  0.00000  0.27930
      13     C     3.15832  3.15832  0.00000 -0.31664
      14     O     4.17579  4.17579  0.00000 -0.35157
      15     H     0.45097  0.45097  0.00000  0.09805
      16     H     0.43413  0.43413  0.00000  0.13174
      17     H     0.44510  0.44510  0.00000  0.10981

   Total alpha = 32.00000, Total beta = 32.00000, Total charge = -0.00000

*** Psi4 exiting successfully. Buy a developer a beer!
