  ==> Input File <==

--------------------------------------------------------------------------
set {
	reference rhf
	basis 6-31G*
}

set_num_threads( 4 )
memory 2 gb

molecule MOL {
0 1

H	 -3.420663	 1.227371	 -1.044276
O	 -3.452007	 0.283848	 -0.965577
C	 -3.181085	 -0.079926	 0.364119
C	 -1.765924	 0.277073	 0.805136
H	 -3.327791	 -1.152017	 0.410903
H	 -3.905698	 0.375695	 1.036898
C	 -0.677594	 -0.417312	 -0.014550
H	 -1.637766	 1.358238	 0.744969
H	 -1.659588	 0.017670	 1.857098
C	 0.738335	 -0.034840	 0.421385
H	 -0.814977	 -0.178223	 -1.064632
H	 -0.802730	 -1.495410	 0.071702
C	 1.822265	 -0.738362	 -0.399735
H	 0.853533	 1.043532	 0.342250
H	 0.871597	 -0.279636	 1.474438
C	 3.258060	 -0.455774	 0.057203
H	 1.718003	 -0.459167	 -1.447053
H	 1.651028	 -1.811884	 -0.354513
C	 4.085411	 0.376818	 -0.923962
H	 3.761451	 -1.406077	 0.217863
H	 3.236141	 0.042361	 1.024459
H	 4.114561	 -0.091065	 -1.904459
H	 5.109112	 0.477385	 -0.576458
H	 3.684540	 1.377521	 -1.046681

	symmetry c1
}
set optking {
	frozen_dihedral = ("
		20 16 13 17
	")
}

ee = optimize('scf')
oeprop('DIPOLE', 'QUADRUPOLE', 'MULLIKEN_CHARGES')
f=open( 'psi4out.xyz', 'w' )
f.write( "24  " )
f.write( str(ee) + "\n" )
f.write( MOL.save_string_xyz() )
f.close()
--------------------------------------------------------------------------

    Molecular point group: c1
  Charge       = 0
  Multiplicity = 1
  Basis Set: 6-31G*
  Basis Set:
  @DF-RHF Final Energy:  -349.24328253828810
    Total Energy =                       -349.2432825382884971
    Molecular point group: c1
  Basis Set: 6-31G*
  Basis Set:
  Basis Set: 6-31G*
  Basis Set:
  @DF-RHF Final Energy:  -349.24393166755090
    Total Energy =                       -349.2439316675507825
  Basis Set: 6-31G*
  Basis Set:
  Basis Set: 6-31G*
  Basis Set:
  @DF-RHF Final Energy:  -349.24400561930753
    Total Energy =                       -349.2440056193072451
  Basis Set: 6-31G*
  Basis Set:
  Basis Set: 6-31G*
  Basis Set:
  @DF-RHF Final Energy:  -349.24401189776006
    Total Energy =                       -349.2440118977600605
  Basis Set: 6-31G*
  Basis Set:
  Charge       = 0
  Multiplicity = 1
  Basis Set: 6-31G*
  Basis Set:

    Orbital Energies (a.u.)
    -----------------------

    Doubly Occupied:

       1A    -20.553596     2A    -11.267713     3A    -11.217509
       4A    -11.213363     5A    -11.213036     6A    -11.211146
       7A    -11.210898     8A    -11.207944     9A     -1.360191
      10A     -1.087634    11A     -1.047582    12A     -0.987206
      13A     -0.913532    14A     -0.844291    15A     -0.798887
      16A     -0.785846    17A     -0.678987    18A     -0.653985
      19A     -0.624769    20A     -0.616846    21A     -0.597573
      22A     -0.583547    23A     -0.555769    24A     -0.536385
      25A     -0.524530    26A     -0.507932    27A     -0.493365
      28A     -0.473222    29A     -0.467756    30A     -0.457576
      31A     -0.456530    32A     -0.451922    33A     -0.417983

  @DF-RHF Final Energy:  -349.24401277148115

   => Energetics <=

    Nuclear Repulsion Energy =            382.3693085763011368
    One-Electron Energy =               -1231.1885378419046901
    Two-Electron Energy =                 499.5752164941224009
    DFT Exchange-Correlation Energy =       0.0000000000000000
    Empirical Dispersion Energy =           0.0000000000000000
    PCM Polarization Energy =               0.0000000000000000
    EFP Energy =                            0.0000000000000000
    Total Energy =                       -349.2440127714811524
    Molecular point group: c1
  Basis Set: 6-31G*
  Basis Set:

  -Total Gradient:
     Atom            X                  Y                   Z
    ------   -----------------  -----------------  -----------------
       1       -0.000000526362     0.000002437131    -0.000004656777
       2        0.000002405158     0.000009108774     0.000003127101
       3        0.000009575997    -0.000023296291    -0.000013280067
       4        0.000016259497    -0.000001913996     0.000022085604
       5       -0.000000035360    -0.000001481852     0.000005337674
       6        0.000011301634     0.000004128860     0.000000085539
       7       -0.000005158856    -0.000042358210    -0.000000077278
       8        0.000010687570    -0.000003036045    -0.000001626332
       9       -0.000010610717     0.000003175389     0.000006404475
      10        0.000038093580     0.000064818127    -0.000035944826
      11        0.000031881662    -0.000004306167    -0.000000362507
      12       -0.000022761343    -0.000005581042     0.000001864443
      13        0.000640052111    -0.002498804591    -0.000219083104
      14        0.000019015504     0.000051995646     0.000025815837
      15       -0.000015264048    -0.000002611338    -0.000019132977
      16        0.000674523946     0.000411165003    -0.002377503356
      17       -0.000709164676     0.001985623029     0.000541406446
      18       -0.000002398384    -0.000001822353    -0.000025095327
      19       -0.000036843254    -0.000004657159    -0.000029637016
      20       -0.000604972357     0.000045682070     0.002123172690
      21       -0.000001171538     0.000003936303     0.000000795988
      22       -0.000009711281     0.000014575427    -0.000017534080
      23       -0.000016047433    -0.000035889468     0.000018518616
      24       -0.000019131035     0.000029112755    -0.000004680763

  **** Optimization is complete! (in 5 steps) ****
    Final optimized geometry and variables:
    Molecular point group: c1

    Geometry (in Angstrom), charge = 0, multiplicity = 1:

    H           -3.391481612883     1.395299415039    -0.941889435165
    O           -3.455217897841     0.451843536470    -0.885541918052
    C           -3.218234910072     0.049319414374     0.439480415815
    C           -1.799235340081     0.348221068447     0.910321552196
    H           -3.401371489721    -1.017905175298     0.459247717798
    H           -3.937959783370     0.513873389294     1.111317288075
    C           -0.721628866385    -0.362917492292     0.090766744326
    H           -1.634193168989     1.425548890854     0.877600619657
    H           -1.718355032629     0.061147511957     1.957334667048
    C            0.698462783345    -0.033621374106     0.552307610502
    H           -0.837536150623    -0.099266163173    -0.955992745839
    H           -0.880689877823    -1.438334964747     0.153706306338
    C            1.779378079429    -0.756957405691    -0.256659717942
    H            0.860388120614     1.041647965751     0.484598977245
    H            0.807205245139    -0.290404416858     1.604832122844
    C            3.215288709813    -0.378920961520     0.169044394314
    H            1.635960755459    -0.513699868792    -1.307193560834
    H            1.629093678398    -1.829309362621    -0.166769094683
    C            3.939140379623     0.506321105798    -0.845295090905
    H            3.799536875553    -1.276439121483     0.351189966347
    H            3.181523443906     0.138900876478     1.124883815679
    H            4.051730543885    -0.002183767303    -1.798477011979
    H            4.930135447019     0.778985812893    -0.495152702151
    H            3.387510257946     1.425158542531    -1.025876549732

  Mulliken Charges: (a.u.)
   Center  Symbol    Alpha    Beta     Spin     Total
       1     H     0.28339  0.28339  0.00000  0.43323
       2     O     4.36829  4.36829  0.00000 -0.73658
       3     C     2.99614  2.99614  0.00000  0.00772
       4     C     3.16898  3.16898  0.00000 -0.33797
       5     H     0.41633  0.41633  0.00000  0.16735
       6     H     0.42816  0.42816  0.00000  0.14369
       7     C     3.15271  3.15271  0.00000 -0.30542
       8     H     0.42828  0.42828  0.00000  0.14345
       9     H     0.42232  0.42232  0.00000  0.15537
      10     C     3.15368  3.15368  0.00000 -0.30736
      11     H     0.41199  0.41199  0.00000  0.17603
      12     H     0.42358  0.42358  0.00000  0.15284
      13     C     3.15468  3.15468  0.00000 -0.30937
      14     H     0.42517  0.42517  0.00000  0.14967
      15     H     0.42448  0.42448  0.00000  0.15104
      16     C     3.15543  3.15543  0.00000 -0.31087
      17     H     0.42073  0.42073  0.00000  0.15855
      18     H     0.42054  0.42054  0.00000  0.15892
      19     C     3.23944  3.23944  0.00000 -0.47889
      20     H     0.42025  0.42025  0.00000  0.15949
      21     H     0.42121  0.42121  0.00000  0.15758
      22     H     0.42101  0.42101  0.00000  0.15798
      23     H     0.42066  0.42066  0.00000  0.15868
      24     H     0.42256  0.42256  0.00000  0.15488

   Total alpha = 33.00000, Total beta = 33.00000, Total charge =  0.00000
