  ==> Input File <==

--------------------------------------------------------------------------
set {
	reference rhf
	basis cc-pvtz
}

set_num_threads( 4 )
memory 2 gb

molecule MOL {
0 1

H	 -3.436473	 1.252944	 -1.023892
O	 -3.458596	 0.315260	 -0.960865
C	 -3.176635	 -0.080824	 0.355601
C	 -1.763371	 0.265266	 0.799691
H	 -3.321825	 -1.153438	 0.379502
H	 -3.895468	 0.357385	 1.043382
C	 -0.673390	 -0.426948	 -0.013392
H	 -1.631049	 1.344913	 0.747560
H	 -1.664587	 -0.001624	 1.849167
C	 0.737842	 -0.043159	 0.423759
H	 -0.806103	 -0.190518	 -1.063345
H	 -0.797221	 -1.503753	 0.074146
C	 1.824000	 -0.743224	 -0.390623
H	 0.850588	 1.033777	 0.343840
H	 0.868587	 -0.286314	 1.476203
C	 3.255957	 -0.453067	 0.062319
H	 1.718250	 -0.470599	 -1.438164
H	 1.658105	 -1.815850	 -0.339904
C	 3.705053	 -1.231208	 1.296804
H	 3.340746	 0.608885	 0.271711
H	 3.939323	 -0.654537	 -0.758559
H	 3.036276	 -1.053838	 2.133077
H	 4.700345	 -0.927988	 1.601261
H	 3.732111	 -2.298997	 1.115972

	symmetry c1
}
set optking {
	frozen_dihedral = ("
		20 16 13 17
	")
}

ee = optimize('scf')
oeprop('DIPOLE', 'QUADRUPOLE', 'MULLIKEN_CHARGES')
f=open( 'psi4out.xyz', 'w' )
f.write( "24  " )
f.write( str(ee) + "\n" )
f.write( MOL.save_string_xyz() )
f.close()
--------------------------------------------------------------------------

    Molecular point group: c1
  Charge       = 0
  Multiplicity = 1
  Basis Set: CC-PVTZ
  Basis Set:
  @DF-RHF Final Energy:  -349.37958578433393
    Total Energy =                       -349.3795857843334147
    Molecular point group: c1
  Basis Set: CC-PVTZ
  Basis Set:
  Basis Set: CC-PVTZ
  Basis Set:
  @DF-RHF Final Energy:  -349.37981079487685
    Total Energy =                       -349.3798107948767893
  Basis Set: CC-PVTZ
  Basis Set:
  Basis Set: CC-PVTZ
  Basis Set:
  @DF-RHF Final Energy:  -349.37983879199453
    Total Energy =                       -349.3798387919945299
  Basis Set: CC-PVTZ
  Basis Set:
  Basis Set: CC-PVTZ
  Basis Set:
  @DF-RHF Final Energy:  -349.37984202185589
    Total Energy =                       -349.3798420218561205
  Basis Set: CC-PVTZ
  Basis Set:
  Charge       = 0
  Multiplicity = 1
  Basis Set: CC-PVTZ
  Basis Set:

    Orbital Energies (a.u.)
    -----------------------

    Doubly Occupied:

       1A    -20.546323     2A    -11.265568     3A    -11.215268
       4A    -11.211947     5A    -11.210573     6A    -11.209270
       7A    -11.209038     8A    -11.205288     9A     -1.364179
      10A     -1.089790    11A     -1.049420    12A     -0.987175
      13A     -0.915419    14A     -0.849237    15A     -0.800888
      16A     -0.780259    17A     -0.681755    18A     -0.655227
      19A     -0.625329    20A     -0.619752    21A     -0.600307
      22A     -0.585331    23A     -0.559129    24A     -0.538825
      25A     -0.517209    26A     -0.513781    27A     -0.495546
      28A     -0.471944    29A     -0.468699    30A     -0.460886
      31A     -0.458316    32A     -0.451368    33A     -0.421054

  @DF-RHF Final Energy:  -349.37984267369796

   => Energetics <=

    Nuclear Repulsion Energy =            384.1057604976244306
    One-Electron Energy =               -1234.9030057564391427
    Two-Electron Energy =                 501.4174025851162924
    DFT Exchange-Correlation Energy =       0.0000000000000000
    Empirical Dispersion Energy =           0.0000000000000000
    PCM Polarization Energy =               0.0000000000000000
    EFP Energy =                            0.0000000000000000
    Total Energy =                       -349.3798426736983629
    Molecular point group: c1
  Basis Set: CC-PVTZ
  Basis Set:

  -Total Gradient:
     Atom            X                  Y                   Z
    ------   -----------------  -----------------  -----------------
       1       -0.000000219742     0.000000316987     0.000000574412
       2       -0.000001394526     0.000000342591     0.000001725276
       3        0.000002655430    -0.000006236216    -0.000000986722
       4        0.000006932671     0.000003873280     0.000002004555
       5       -0.000001202161    -0.000000532560    -0.000001588955
       6        0.000001930589    -0.000000808667     0.000000575633
       7        0.000002554447     0.000013960504    -0.000021006494
       8       -0.000000908963    -0.000001431409    -0.000001399321
       9       -0.000000473869     0.000001982530     0.000002266478
      10        0.000004840139     0.000021241232    -0.000021368444
      11       -0.000006116411     0.000001525130     0.000002857315
      12        0.000008875449    -0.000000456206     0.000001661732
      13       -0.000883378906     0.002305958659     0.001206465646
      14       -0.000021567233     0.000001147347     0.000000313104
      15        0.000017029209    -0.000005524645    -0.000014744195
      16        0.000780655989     0.000019557542    -0.002594040460
      17        0.000609482407    -0.001927902433    -0.000561161140
      18        0.000012299813    -0.000021034528     0.000003081030
      19        0.000020659673    -0.000048543999    -0.000022064370
      20       -0.000553341658    -0.000346141792     0.001993996786
      21       -0.000008000976    -0.000002762222     0.000014832088
      22       -0.000001046265     0.000011166827    -0.000012716433
      23        0.000000407042    -0.000005894976    -0.000002341502
      24        0.000009327847    -0.000013802976     0.000023063985

  **** Optimization is complete! (in 5 steps) ****
    Final optimized geometry and variables:
    Molecular point group: c1

    Geometry (in Angstrom), charge = 0, multiplicity = 1:

    H           -3.418991743321     1.561258853560    -1.208027020824
    O           -3.449957628198     0.623323198532    -1.153257886904
    C           -3.179270030446     0.213567269364     0.161290244054
    C           -1.765407384642     0.542765400832     0.616266773201
    H           -3.334479638213    -0.857828065391     0.174874489714
    H           -3.898058197315     0.652377921442     0.848740960201
    C           -0.677175765986    -0.151025101190    -0.197819905559
    H           -1.623178995660     1.621637145518     0.575430630248
    H           -1.674753747831     0.264793572487     1.663595369190
    C            0.734794335624     0.213831679375     0.252154042396
    H           -0.801223160641     0.097653209937    -1.245974122169
    H           -0.811637242087    -1.227486556581    -0.122276515738
    C            1.822201802820    -0.478303086548    -0.566074236484
    H            0.867585518932     1.290765716590     0.178078470177
    H            0.850086893005    -0.034556681770     1.303602121684
    C            3.252602804704    -0.149510341267    -0.126898790020
    H            1.701183585390    -0.217120891084    -1.613427804515
    H            1.676841199077    -1.555302631390    -0.517065078205
    C            3.713438295085    -0.920620011240     1.108781996284
    H            3.329699673749     0.914962975898     0.077668433454
    H            3.934963019701    -0.360230509696    -0.943528470604
    H            3.081587882631    -0.720871156416     1.966651415126
    H            4.727201820777    -0.648738371422     1.380488854549
    H            3.695774031713    -1.990325038529     0.928056207939

  Mulliken Charges: (a.u.)
   Center  Symbol    Alpha    Beta     Spin     Total
       1     H     0.39531  0.39531  0.00000  0.20937
       2     O     4.20368  4.20368  0.00000 -0.40736
       3     C     2.97774  2.97774  0.00000  0.04452
       4     C     3.10188  3.10188  0.00000 -0.20375
       5     H     0.45884  0.45884  0.00000  0.08232
       6     H     0.46027  0.46027  0.00000  0.07945
       7     C     3.08758  3.08758  0.00000 -0.17515
       8     H     0.45910  0.45910  0.00000  0.08180
       9     H     0.45344  0.45344  0.00000  0.09311
      10     C     3.09004  3.09004  0.00000 -0.18009
      11     H     0.44611  0.44611  0.00000  0.10778
      12     H     0.45504  0.45504  0.00000  0.08993
      13     C     3.09396  3.09396  0.00000 -0.18792
      14     H     0.45529  0.45529  0.00000  0.08941
      15     H     0.45499  0.45499  0.00000  0.09002
      16     C     3.09047  3.09047  0.00000 -0.18094
      17     H     0.44835  0.44835  0.00000  0.10331
      18     H     0.45594  0.45594  0.00000  0.08811
      19     C     3.14911  3.14911  0.00000 -0.29822
      20     H     0.45647  0.45647  0.00000  0.08705
      21     H     0.44781  0.44781  0.00000  0.10438
      22     H     0.45544  0.45544  0.00000  0.08912
      23     H     0.44786  0.44786  0.00000  0.10427
      24     H     0.45526  0.45526  0.00000  0.08948

   Total alpha = 33.00000, Total beta = 33.00000, Total charge = -0.00000
