  ==> Input File <==

--------------------------------------------------------------------------
set {
	reference rhf
	basis cc-pvtz
}

set_num_threads( 4 )
memory 2 gb

molecule MOL {
0 1

H	 -3.162190	 0.493205	 -0.000107
C	 -2.363908	 -0.234727	 0.000005
O	 -1.158738	 0.454634	 -0.000087
H	 -2.464314	 -0.863616	 -0.882153
H	 -2.464327	 -0.863359	 0.882345
C	 -0.028653	 -0.359624	 -0.014544
C	 1.212810	 0.509376	 -0.013048
H	 -0.039224	 -0.998188	 -0.898151
H	 -0.029246	 -1.015491	 0.856363
C	 2.497811	 -0.310920	 -0.028431
H	 1.177202	 1.164084	 -0.876770
H	 1.187120	 1.146871	 0.863817
H	 2.555383	 -0.939023	 -0.911187
H	 3.367857	 0.334090	 -0.027159
H	 2.565512	 -0.956122	 0.841167

	symmetry c1
}
set optking {
	frozen_dihedral = ("
		6 3 2 4
	")
}

ee = optimize('scf')
oeprop('DIPOLE', 'QUADRUPOLE', 'MULLIKEN_CHARGES')
f=open( 'psi4out.xyz', 'w' )
f.write( "15  " )
f.write( str(ee) + "\n" )
f.write( MOL.save_string_xyz() )
f.close()
--------------------------------------------------------------------------

    Molecular point group: c1
  Charge       = 0
  Multiplicity = 1
  Basis Set: CC-PVTZ
  Basis Set:
  @DF-RHF Final Energy:  -232.22822230417756
    Total Energy =                       -232.2282223041775069
    Molecular point group: c1
  Basis Set: CC-PVTZ
  Basis Set:
  Charge       = 0
  Multiplicity = 1
  Basis Set: CC-PVTZ
  Basis Set:

    Orbital Energies (a.u.)
    -----------------------

    Doubly Occupied:

       1A    -20.547594     2A    -11.264442     3A    -11.261822
       4A    -11.212818     5A    -11.210768     6A     -1.381859
       7A     -1.058467     8A     -0.956166     9A     -0.877379
      10A     -0.809570    11A     -0.677207    12A     -0.655959
      13A     -0.632328    14A     -0.608517    15A     -0.565274
      16A     -0.540875    17A     -0.503767    18A     -0.490465
      19A     -0.478385    20A     -0.462919    21A     -0.416819

  @DF-RHF Final Energy:  -232.22822249727454

   => Energetics <=

    Nuclear Repulsion Energy =            189.9973158162446794
    One-Electron Energy =                -691.2242749534361792
    Two-Electron Energy =                 268.9987366399170128
    DFT Exchange-Correlation Energy =       0.0000000000000000
    Empirical Dispersion Energy =           0.0000000000000000
    PCM Polarization Energy =               0.0000000000000000
    EFP Energy =                            0.0000000000000000
    Total Energy =                       -232.2282224972744871
    Molecular point group: c1
  Basis Set: CC-PVTZ
  Basis Set:

  -Total Gradient:
     Atom            X                  Y                   Z
    ------   -----------------  -----------------  -----------------
       1       -0.000042691479    -0.000008634392    -0.000000084388
       2       -0.000148209949     0.000093378575    -0.000094837557
       3        0.000028775503    -0.000027032787     0.000116674744
       4        0.000057736813    -0.000061205929     0.000055870223
       5        0.000030116441     0.000016863438    -0.000013341914
       6        0.000050263892    -0.000017445718    -0.000063066776
       7        0.000015961768    -0.000015437827     0.000004226982
       8       -0.000011460102     0.000008116752     0.000003233179
       9        0.000000872183     0.000000217756    -0.000005272529
      10        0.000009950633     0.000013510586    -0.000001435634
      11        0.000001108525    -0.000001850852    -0.000000666222
      12        0.000000197465     0.000002081122     0.000000869157
      13        0.000000331087    -0.000001873013    -0.000001092979
      14        0.000009452975    -0.000001252100    -0.000000521164
      15       -0.000002405757     0.000000564390    -0.000000555122

  **** Optimization is complete! (in 2 steps) ****
    Final optimized geometry and variables:
    Molecular point group: c1

    Geometry (in Angstrom), charge = 0, multiplicity = 1:

    H           -3.162977885824     0.492929527958     0.011672421414
    C           -2.364139460553    -0.234527673479     0.011226984292
    O           -1.158829938560     0.454414210431     0.010585038942
    H           -2.464709026059    -0.863984573516    -0.870566172354
    H           -2.463699128251    -0.863463290578     0.893533925486
    C           -0.028618869105    -0.359603024670    -0.003384486474
    C            1.213007962431     0.509354739071    -0.001711368790
    H           -0.039005997501    -0.998356259123    -0.886910065528
    H           -0.029253591900    -1.015534481297     0.867567689023
    C            2.498044225300    -0.311035286319    -0.017050477138
    H            1.177616033738     1.164112770184    -0.865483407683
    H            1.187393971135     1.146922013291     0.875167499075
    H            2.555635111656    -0.939072616072    -0.899910256440
    H            3.368308174006     0.333824259460    -0.015558607681
    H            2.565465283278    -0.956403940106     0.852509532599

  Mulliken Charges: (a.u.)
   Center  Symbol    Alpha    Beta     Spin     Total
       1     H     0.44685  0.44685  0.00000  0.10630
       2     C     3.03348  3.03348  0.00000 -0.06695
       3     O     4.17152  4.17152  0.00000 -0.34303
       4     H     0.47227  0.47227  0.00000  0.05546
       5     H     0.47203  0.47203  0.00000  0.05594
       6     C     2.95607  2.95607  0.00000  0.08786
       7     C     3.08014  3.08014  0.00000 -0.16028
       8     H     0.47578  0.47578  0.00000  0.04843
       9     H     0.47591  0.47591  0.00000  0.04818
      10     C     3.15581  3.15581  0.00000 -0.31163
      11     H     0.45111  0.45111  0.00000  0.09778
      12     H     0.45110  0.45110  0.00000  0.09780
      13     H     0.45584  0.45584  0.00000  0.08833
      14     H     0.44626  0.44626  0.00000  0.10747
      15     H     0.45583  0.45583  0.00000  0.08834

   Total alpha = 21.00000, Total beta = 21.00000, Total charge = -0.00000
