  ==> Input File <==

--------------------------------------------------------------------------
set {
	reference rhf
	basis 6-31G*
}

set_num_threads( 1 )
memory 2 gb

molecule MOL {
0 1

H	 2.736905	 -1.450830	 1.024357
O	 2.826016	 -1.159218	 0.122261
C	 2.077727	 -0.067559	 -0.035091
C	 0.624473	 -0.343591	 0.253101
O	 2.542965	 0.974826	 -0.363729
C	 -0.265902	 0.883932	 0.072916
H	 0.324016	 -1.163849	 -0.390541
H	 0.565024	 -0.726111	 1.268924
C	 -1.728698	 0.646073	 0.462102
H	 -0.209144	 1.219470	 -0.958188
H	 0.135059	 1.692851	 0.673903
C	 -2.482460	 -0.343073	 -0.431425
H	 -2.245265	 1.602650	 0.432430
H	 -1.779332	 0.308348	 1.496285
C	 -3.960546	 -0.461025	 -0.060175
H	 -2.395034	 -0.026811	 -1.468912
H	 -2.024850	 -1.327147	 -0.371646
H	 -4.472726	 -1.168004	 -0.705284
H	 -4.465146	 0.496508	 -0.151489
H	 -4.081218	 -0.800940	 0.964585

	symmetry c1
}
set optking {
	frozen_dihedral = ("
		16 12 9 6,
		7 4 6 10,
		12 9 6 10,
		5 3 4 7
	")
}

ee = energy('scf')
oeprop('DIPOLE', 'QUADRUPOLE', 'MULLIKEN_CHARGES')
f=open( 'psi4out.xyz', 'w' )
f.write( "20  " )
f.write( str(ee) + "\n" )
f.write( MOL.save_string_xyz() )
f.close()
--------------------------------------------------------------------------

    Molecular point group: c1

    Geometry (in Angstrom), charge = 0, multiplicity = 1:

       Center              X                  Y                   Z               Mass
    ------------   -----------------  -----------------  -----------------  -----------------
           H          2.745522486940    -1.446293351454     1.014850948754     1.007825032070
           O          2.834633486940    -1.154681351454     0.112754948754    15.994914619560
           C          2.086344486940    -0.063022351454    -0.044597051246    12.000000000000
           C          0.633090486940    -0.339054351454     0.243594948754    12.000000000000
           O          2.551582486940     0.979362648546    -0.373235051246    15.994914619560
           C         -0.257284513060     0.888468648546     0.063409948754    12.000000000000
           H          0.332633486940    -1.159312351454    -0.400047051246     1.007825032070
           H          0.573641486940    -0.721574351454     1.259417948754     1.007825032070
           C         -1.720080513060     0.650609648546     0.452595948754    12.000000000000
           H         -0.200526513060     1.224006648546    -0.967694051246     1.007825032070
           H          0.143676486940     1.697387648546     0.664396948754     1.007825032070
           C         -2.473842513060    -0.338536351454    -0.440931051246    12.000000000000
           H         -2.236647513060     1.607186648546     0.422923948754     1.007825032070
           H         -1.770714513060     0.312884648546     1.486778948754     1.007825032070
           C         -3.951928513060    -0.456488351454    -0.069681051246    12.000000000000
           H         -2.386416513060    -0.022274351454    -1.478418051246     1.007825032070
           H         -2.016232513060    -1.322610351454    -0.381152051246     1.007825032070
           H         -4.464108513060    -1.163467351454    -0.714790051246     1.007825032070
           H         -4.456528513060     0.501044648546    -0.160995051246     1.007825032070
           H         -4.072600513060    -0.796403351454     0.955078948754     1.007825032070

  Charge       = 0
  Multiplicity = 1
  Basis Set: 6-31G*
  Basis Set:

    Orbital Energies (a.u.)
    -----------------------

    Doubly Occupied:

       1A    -20.602976     2A    -20.557622     3A    -11.380106
       4A    -11.245820     5A    -11.226141     6A    -11.223708
       7A    -11.223101     8A    -11.214956     9A     -1.468799
      10A     -1.370347    11A     -1.099375    12A     -1.042818
      13A     -0.960246    14A     -0.865521    15A     -0.823025
      16A     -0.789677    17A     -0.717774    18A     -0.675328
      19A     -0.661740    20A     -0.638200    21A     -0.621245
      22A     -0.591764    23A     -0.563167    24A     -0.552176
      25A     -0.543760    26A     -0.510164    27A     -0.502189
      28A     -0.487274    29A     -0.472397    30A     -0.467600
      31A     -0.460729    32A     -0.442235

  @DF-RHF Final Energy:  -383.92734441691312

   => Energetics <=

    Nuclear Repulsion Energy =            376.3054649312258562
    One-Electron Energy =               -1268.4616471440581336
    Two-Electron Energy =                 508.2288377959193895
    DFT Exchange-Correlation Energy =       0.0000000000000000
    Empirical Dispersion Energy =           0.0000000000000000
    PCM Polarization Energy =               0.0000000000000000
    EFP Energy =                            0.0000000000000000
    Total Energy =                       -383.9273444169128879

  Mulliken Charges: (a.u.)
   Center  Symbol    Alpha    Beta     Spin     Total
       1     H     0.26816  0.26816  0.00000  0.46369
       2     O     4.35364  4.35364  0.00000 -0.70727
       3     C     2.62485  2.62485  0.00000  0.75030
       4     C     3.22099  3.22099  0.00000 -0.44197
       5     O     4.25526  4.25526  0.00000 -0.51053
       6     C     3.15446  3.15446  0.00000 -0.30892
       7     H     0.39419  0.39419  0.00000  0.21162
       8     H     0.41445  0.41445  0.00000  0.17109
       9     C     3.15562  3.15562  0.00000 -0.31125
      10     H     0.40977  0.40977  0.00000  0.18046
      11     H     0.40822  0.40822  0.00000  0.18356
      12     C     3.15476  3.15476  0.00000 -0.30953
      13     H     0.41721  0.41721  0.00000  0.16559
      14     H     0.42511  0.42511  0.00000  0.14978
      15     C     3.23924  3.23924  0.00000 -0.47849
      16     H     0.42042  0.42042  0.00000  0.15917
      17     H     0.42394  0.42394  0.00000  0.15211
      18     H     0.41788  0.41788  0.00000  0.16425
      19     H     0.42008  0.42008  0.00000  0.15983
      20     H     0.42175  0.42175  0.00000  0.15651

   Total alpha = 32.00000, Total beta = 32.00000, Total charge =  0.00000
