  ==> Input File <==

--------------------------------------------------------------------------
set {
	reference rhf
	basis 6-31G*
}

set_num_threads( 4 )
memory 2 gb

molecule MOL {
0 1

O	 -0.682937	 1.318834	 -0.186099
C	 -0.860635	 0.152188	 -0.042321
C	 -2.173363	 -0.477127	 0.338347
O	 0.083258	 -0.765189	 -0.202595
H	 -2.477673	 -1.180929	 -0.427595
H	 -2.923125	 0.290956	 0.455536
H	 -2.058825	 -1.029004	 1.264191
C	 1.391937	 -0.334737	 -0.569838
C	 2.380986	 -1.485473	 -0.554447
H	 1.703209	 0.459042	 0.092103
H	 1.276237	 0.063165	 -1.567730
H	 3.347883	 -1.143379	 -0.910552
H	 2.505970	 -1.873454	 0.448657
H	 2.043481	 -2.287221	 -1.202295

	symmetry c1
}
set optking {
	frozen_dihedral = ("
		10 8 4 2
	")
}

ee = optimize('scf')
oeprop('DIPOLE', 'QUADRUPOLE', 'MULLIKEN_CHARGES')
f=open( 'psi4out.xyz', 'w' )
f.write( "14  " )
f.write( str(ee) + "\n" )
f.write( MOL.save_string_xyz() )
f.close()
--------------------------------------------------------------------------

    Molecular point group: c1
  Charge       = 0
  Multiplicity = 1
  Basis Set: 6-31G*
  Basis Set:
  @DF-RHF Final Energy:  -305.87455981452945
    Total Energy =                       -305.8745598145294480
    Molecular point group: c1
  Basis Set: 6-31G*
  Basis Set:
  Basis Set: 6-31G*
  Basis Set:
  @DF-RHF Final Energy:  -305.87580553805765
    Total Energy =                       -305.8758055380575911
  Basis Set: 6-31G*
  Basis Set:
  Basis Set: 6-31G*
  Basis Set:
  @DF-RHF Final Energy:  -305.87609874179532
    Total Energy =                       -305.8760987417950901
  Basis Set: 6-31G*
  Basis Set:
  Basis Set: 6-31G*
  Basis Set:
  @DF-RHF Final Energy:  -305.87609153644462
    Total Energy =                       -305.8760915364448465
  Basis Set: 6-31G*
  Basis Set:
  Basis Set: 6-31G*
  Basis Set:
  @DF-RHF Final Energy:  -305.87606920965447
    Total Energy =                       -305.8760692096544744
  Basis Set: 6-31G*
  Basis Set:
  Basis Set: 6-31G*
  Basis Set:
  @DF-RHF Final Energy:  -305.87610768971666
    Total Energy =                       -305.8761076897166049
  Basis Set: 6-31G*
  Basis Set:
  Charge       = 0
  Multiplicity = 1
  Basis Set: 6-31G*
  Basis Set:

    Orbital Energies (a.u.)
    -----------------------

    Doubly Occupied:

       1A    -20.602126     2A    -20.544386     3A    -11.374841
       4A    -11.285305     5A    -11.233443     6A    -11.222913
       7A     -1.468346     8A     -1.362621     9A     -1.058021
      10A     -1.000429    11A     -0.871189    12A     -0.780508
      13A     -0.690394    14A     -0.687290    15A     -0.666390
      16A     -0.611007    17A     -0.580306    18A     -0.563998
      19A     -0.553183    20A     -0.540339    21A     -0.508718
      22A     -0.503190    23A     -0.453113    24A     -0.439011

  @DF-RHF Final Energy:  -305.87610803916624

   => Energetics <=

    Nuclear Repulsion Energy =            245.6105935573670536
    One-Electron Energy =                -903.7712728090390328
    Two-Electron Energy =                 352.2845712125058526
    DFT Exchange-Correlation Energy =       0.0000000000000000
    Empirical Dispersion Energy =           0.0000000000000000
    PCM Polarization Energy =               0.0000000000000000
    EFP Energy =                            0.0000000000000000
    Total Energy =                       -305.8761080391661835
    Molecular point group: c1
  Basis Set: 6-31G*
  Basis Set:

  -Total Gradient:
     Atom            X                  Y                   Z
    ------   -----------------  -----------------  -----------------
       1        0.000001619679     0.000000651819     0.000001386449
       2        0.000188138502     0.000043351982     0.000707552613
       3       -0.000004454785     0.000000235677    -0.000010262161
       4       -0.000354861398     0.000074480929    -0.001140648889
       5        0.000001788257    -0.000001436183     0.000004379417
       6        0.000000353570     0.000000407111     0.000001594028
       7        0.000000282216     0.000002125912     0.000003698597
       8        0.000511170713    -0.000685906034     0.000949010265
       9        0.000001701898     0.000000475457    -0.000000429131
      10       -0.000350767040     0.000565558343    -0.000513457381
      11        0.000003483780     0.000002095657    -0.000002298464
      12       -0.000000449461    -0.000000708310     0.000000040395
      13        0.000001092192     0.000000062699    -0.000000535555
      14        0.000000901880    -0.000001395061    -0.000000030182

  **** Optimization is complete! (in 7 steps) ****
    Final optimized geometry and variables:
    Molecular point group: c1

    Geometry (in Angstrom), charge = 0, multiplicity = 1:

    O           -0.714753399347     1.578527951912     0.009296940613
    C           -0.882962008543     0.411757397971     0.160231586233
    C           -2.182510132705    -0.226983623900     0.569515914705
    O            0.067408924546    -0.495352634712    -0.016365941963
    H           -2.498508400433    -0.932732591849    -0.189992909794
    H           -2.935136404836     0.535755669802     0.702281764538
    H           -2.044804305168    -0.778006796974     1.492680424504
    C            1.361502917326    -0.031662104747    -0.388979539686
    C            2.304523631329    -1.214290102387    -0.327892278430
    H            1.660844988936     0.760885767104     0.281767090268
    H            1.308350764320     0.383930266523    -1.386866747318
    H            3.304022532844    -0.904786258142    -0.615683520645
    H            2.346833016496    -1.620755251635     0.676230678306
    H            1.981525945011    -1.999799324448    -1.001535148136

  Mulliken Charges: (a.u.)
   Center  Symbol    Alpha    Beta     Spin     Total
       1     O     4.28322  4.28322  0.00000 -0.56645
       2     C     2.62009  2.62009  0.00000  0.75982
       3     C     3.28158  3.28158  0.00000 -0.56316
       4     O     4.30656  4.30656  0.00000 -0.61312
       5     H     0.40041  0.40041  0.00000  0.19919
       6     H     0.39691  0.39691  0.00000  0.20618
       7     H     0.40060  0.40060  0.00000  0.19881
       8     C     3.00293  3.00293  0.00000 -0.00587
       9     C     3.24848  3.24848  0.00000 -0.49697
      10     H     0.40740  0.40740  0.00000  0.18520
      11     H     0.41203  0.41203  0.00000  0.17595
      12     H     0.41613  0.41613  0.00000  0.16773
      13     H     0.41206  0.41206  0.00000  0.17588
      14     H     0.41159  0.41159  0.00000  0.17682

   Total alpha = 24.00000, Total beta = 24.00000, Total charge = -0.00000
