                              Psi4 1.0.54 Driver

  ==> Input File <==

--------------------------------------------------------------------------
set {
	reference rhf
	basis cc-pvtz
}

set_num_threads( 4 )
memory 2 gb

molecule MOL {
0 1

H	 1.604570	 -0.116514	 -1.259718
O	 1.675515	 -0.612943	 -0.465627
C	 1.135873	 0.113391	 0.608264
C	 0.027642	 1.012027	 0.090274
H	 1.902972	 0.727968	 1.072615
H	 0.756163	 -0.561896	 1.370018
C	 -1.138737	 0.285728	 -0.581921
H	 0.464661	 1.708096	 -0.618252
H	 -0.340737	 1.603071	 0.925246
C	 -1.933983	 -0.631436	 0.343653
H	 -0.763151	 -0.285569	 -1.422081
H	 -1.808359	 1.035291	 -0.992333
H	 -2.789188	 -1.049673	 -0.174718
H	 -1.335629	 -1.461368	 0.700418
H	 -2.305435	 -0.092167	 1.209725

	symmetry c1
}
set optking {
	frozen_dihedral = ("
		1 2 3 4
	")
}

ee,wfn = optimize('scf', return_wfn=True)
oeprop( wfn, 'DIPOLE', 'QUADRUPOLE', 'MULLIKEN_CHARGES')
f=open( 'psi4out.xyz', 'w' )
f.write( "15  " )
f.write( str(ee) + "\n" )
f.write( MOL.save_string_xyz() )
f.close()
--------------------------------------------------------------------------

    Molecular point group: c1
  Charge       = 0
  Multiplicity = 1
  Basis Set: CC-PVTZ
  Basis Set:
  @DF-RHF Final Energy:  -232.23427962306295
    Total Energy =                       -232.2342796230628323
    Molecular point group: c1
  Basis Set: CC-PVTZ
  Basis Set:
  Basis Set: CC-PVTZ
  Basis Set:
  @DF-RHF Final Energy:  -232.16719613479933
    Total Energy =                       -232.1671961347993829
  Basis Set: CC-PVTZ
  Basis Set:
  Basis Set: CC-PVTZ
  Basis Set:
  @DF-RHF Final Energy:  -232.23084059685826
    Total Energy =                       -232.2308405968581155
  Basis Set: CC-PVTZ
  Basis Set:
  Basis Set: CC-PVTZ
  Basis Set:
  @DF-RHF Final Energy:  -232.23592884417258
    Total Energy =                       -232.2359288441726335
  Basis Set: CC-PVTZ
  Basis Set:
  Basis Set: CC-PVTZ
  Basis Set:
  @DF-RHF Final Energy:  -232.23603470385939
    Total Energy =                       -232.2360347038593318
  Basis Set: CC-PVTZ
  Basis Set:
  Basis Set: CC-PVTZ
  Basis Set:
  @DF-RHF Final Energy:  -232.23603973838175
    Total Energy =                       -232.2360397383815780
  Basis Set: CC-PVTZ
  Basis Set:
  Basis Set: CC-PVTZ
  Basis Set:
  @DF-RHF Final Energy:  -232.23604911875935
    Total Energy =                       -232.2360491187592970
  Basis Set: CC-PVTZ
  Basis Set:
  Charge       = 0
  Multiplicity = 1
  Basis Set: CC-PVTZ
  Basis Set:

    Orbital Energies (a.u.)
    -----------------------

    Doubly Occupied:

       1A    -20.544963     2A    -11.264743     3A    -11.221058
       4A    -11.218553     5A    -11.208674     6A     -1.363083
       7A     -1.072037     8A     -0.974899     9A     -0.880941
      10A     -0.793332    11A     -0.668464    12A     -0.650469
      13A     -0.637807    14A     -0.585967    15A     -0.572061
      16A     -0.545314    17A     -0.506896    18A     -0.484896
      19A     -0.477113    20A     -0.457856    21A     -0.431714

  @DF-RHF Final Energy:  -232.23604925686254

   => Energetics <=

    Nuclear Repulsion Energy =            191.6914240120746626
    One-Electron Energy =                -694.7332621711423144
    Two-Electron Energy =                 270.8057889022051086
    DFT Exchange-Correlation Energy =       0.0000000000000000
    Empirical Dispersion Energy =           0.0000000000000000
    PCM Polarization Energy =               0.0000000000000000
    EFP Energy =                            0.0000000000000000
    Total Energy =                       -232.2360492568625432
    Molecular point group: c1
  Basis Set: CC-PVTZ
  Basis Set:

  -Total Gradient:
     Atom            X                  Y                   Z
    ------   -----------------  -----------------  -----------------
       1       -0.001752683808    -0.001280700864    -0.000660707195
       2        0.002609645599     0.001991403272     0.000694500397
       3       -0.001766352995    -0.001807068827     0.000177884940
       4        0.000942211281     0.001076946389    -0.000223458351
       5       -0.000032241558     0.000009381731     0.000005582689
       6       -0.000006943356     0.000021688174     0.000000913641
       7        0.000001941508    -0.000009681790     0.000002929110
       8        0.000001358668     0.000000151185     0.000006501943
       9       -0.000001437719    -0.000007416799    -0.000022052049
      10       -0.000001812734    -0.000007556970     0.000009625778
      11       -0.000018343966     0.000010134187     0.000009403776
      12        0.000017490141    -0.000001818121     0.000021900971
      13        0.000000341105    -0.000001499764     0.000002130869
      14       -0.000003786807     0.000013645216    -0.000013114433
      15        0.000010614636    -0.000007607018    -0.000012042084

  **** Optimization is complete! (in 8 steps) ****
    Final optimized geometry and variables:
    Molecular point group: c1

    Geometry (in Angstrom), charge = 0, multiplicity = 1:

    H            1.999770716270    -0.370440776592    -0.586032234027
    O            1.797035495056    -0.571682575224     0.308886611646
    C            0.909264094704     0.381618483579     0.833073235528
    C           -0.020773394778     0.986595327527    -0.208743378026
    H            1.471438559013     1.182721374866     1.305690459809
    H            0.347541187743    -0.115532116740     1.612307199935
    C           -0.936188009704    -0.004175810110    -0.932091705838
    H            0.584619671430     1.513498414609    -0.944085684354
    H           -0.623874863367     1.745551551911     0.282335987823
    C           -1.954541513856    -0.695338543671    -0.029699602988
    H           -0.336923286651    -0.757129563674    -1.433423677842
    H           -1.464089160623     0.532817459024    -1.713835077371
    H           -2.617894492460    -1.323336736503    -0.612870121101
    H           -1.474553074698    -1.326853891456     0.707598378091
    H           -2.565977982869     0.029631733934     0.498155776992

  Mulliken Charges: (a.u.)
   Center  Symbol    Alpha    Beta     Spin     Total
       1     H     0.39294  0.39294  0.00000  0.21413
       2     O     4.20725  4.20725  0.00000 -0.41450
       3     C     2.96428  2.96428  0.00000  0.07144
       4     C     3.11881  3.11881  0.00000 -0.23763
       5     H     0.46315  0.46315  0.00000  0.07371
       6     H     0.46251  0.46251  0.00000  0.07498
       7     C     3.08177  3.08177  0.00000 -0.16355
       8     H     0.44951  0.44951  0.00000  0.10099
       9     H     0.45047  0.45047  0.00000  0.09905
      10     C     3.15382  3.15382  0.00000 -0.30764
      11     H     0.45553  0.45553  0.00000  0.08894
      12     H     0.44850  0.44850  0.00000  0.10300
      13     H     0.44622  0.44622  0.00000  0.10756
      14     H     0.44966  0.44966  0.00000  0.10068
      15     H     0.45557  0.45557  0.00000  0.08885

   Total alpha = 21.00000, Total beta = 21.00000, Total charge = -0.00000

*** Psi4 exiting successfully. Buy a developer a beer!
