                              Psi4 1.0.54 Driver

  ==> Input File <==

--------------------------------------------------------------------------
set {
	reference rhf
	basis cc-pvtz
}

set_num_threads( 4 )
memory 2 gb

molecule MOL {
0 1

H	 2.141179	 -1.149246	 2.391218
O	 2.534182	 -0.522216	 1.810611
C	 1.637132	 -0.028286	 0.938880
C	 2.086081	 0.910762	 0.021409
C	 0.315765	 -0.421121	 0.933414
H	 3.117476	 1.202160	 0.043055
C	 1.213157	 1.450970	 -0.894850
H	 -0.057584	 -1.143310	 1.629367
C	 -0.532034	 0.141680	 0.000000
H	 1.569058	 2.176041	 -1.600083
C	 -0.118716	 1.072257	 -0.920041
N	 -1.937041	 -0.281114	 0.000000
H	 -0.807642	 1.482963	 -1.625324
O	 -2.159542	 -1.446261	 0.000000
O	 -2.764978	 0.565773	 0.000000

	symmetry c1
}
set optking {
	frozen_dihedral = ("
		11 9 12 14
	")
}

ee,wfn = optimize('scf', return_wfn=True)
oeprop( wfn, 'DIPOLE', 'QUADRUPOLE', 'MULLIKEN_CHARGES')
f=open( 'psi4out.xyz', 'w' )
f.write( "15  " )
f.write( str(ee) + "\n" )
f.write( MOL.save_string_xyz() )
f.close()
--------------------------------------------------------------------------

    Molecular point group: c1
  Charge       = 0
  Multiplicity = 1
  Basis Set: CC-PVTZ
  Basis Set:
  @DF-RHF Final Energy:  -509.21417253295380
    Total Energy =                       -509.2141725329531710
    Molecular point group: c1
  Basis Set: CC-PVTZ
  Basis Set:
  Basis Set: CC-PVTZ
  Basis Set:
  @DF-RHF Final Energy:  -509.20794294514695
    Total Energy =                       -509.2079429451473516
  Basis Set: CC-PVTZ
  Basis Set:
  Basis Set: CC-PVTZ
  Basis Set:
  @DF-RHF Final Energy:  -509.21371614153617
    Total Energy =                       -509.2137161415362243
  Basis Set: CC-PVTZ
  Basis Set:
  Basis Set: CC-PVTZ
  Basis Set:
  @DF-RHF Final Energy:  -509.21461876509142
    Total Energy =                       -509.2146187650917000
  Basis Set: CC-PVTZ
  Basis Set:
  Basis Set: CC-PVTZ
  Basis Set:
  @DF-RHF Final Energy:  -509.21462887477918
    Total Energy =                       -509.2146288747788958
  Basis Set: CC-PVTZ
  Basis Set:
  Basis Set: CC-PVTZ
  Basis Set:
  @DF-RHF Final Energy:  -509.21465459723385
    Total Energy =                       -509.2146545972341301
  Basis Set: CC-PVTZ
  Basis Set:
  Charge       = 0
  Multiplicity = 1
  Basis Set: CC-PVTZ
  Basis Set:

    Orbital Energies (a.u.)
    -----------------------

    Doubly Occupied:

       1A    -20.609829     2A    -20.598044     3A    -20.597680
       4A    -15.850281     5A    -11.329618     6A    -11.311872
       7A    -11.264516     8A    -11.263829     9A    -11.258755
      10A    -11.253433    11A     -1.645852    12A     -1.442639
      13A     -1.428923    14A     -1.204122    15A     -1.096605
      16A     -1.049494    17A     -0.966957    18A     -0.885082
      19A     -0.832866    20A     -0.793991    21A     -0.764465
      22A     -0.740744    23A     -0.725305    24A     -0.712340
      25A     -0.674532    26A     -0.636235    27A     -0.623047
      28A     -0.597501    29A     -0.564243    30A     -0.549054
      31A     -0.531305    32A     -0.494921    33A     -0.490861
      34A     -0.459585    35A     -0.377846    36A     -0.346632

  @DF-RHF Final Energy:  -509.21465486719660

   => Energetics <=

    Nuclear Repulsion Energy =            504.4202366113910330
    One-Electron Energy =               -1695.3237714716119626
    Two-Electron Energy =                 681.6888799930244431
    DFT Exchange-Correlation Energy =       0.0000000000000000
    Empirical Dispersion Energy =           0.0000000000000000
    PCM Polarization Energy =               0.0000000000000000
    EFP Energy =                            0.0000000000000000
    Total Energy =                       -509.2146548671966002
    Molecular point group: c1
  Basis Set: CC-PVTZ
  Basis Set:

  -Total Gradient:
     Atom            X                  Y                   Z
    ------   -----------------  -----------------  -----------------
       1       -0.000002425624     0.000007934032     0.000006708043
       2        0.000004487482     0.000001335246     0.000016014162
       3        0.000008631104    -0.000035257778    -0.000047050323
       4        0.000000252034     0.000002435898     0.000025898576
       5        0.000000705401    -0.000003095069     0.000002678975
       6        0.000000424592    -0.000005341141    -0.000006359076
       7       -0.000026786755     0.000039616867     0.000026759598
       8        0.000002237995     0.000002663072    -0.000002355387
       9       -0.001704677809     0.004752184375     0.002126115919
      10       -0.000002369348    -0.000002006473    -0.000001376102
      11        0.001228796586    -0.003357335127    -0.002814227130
      12        0.000194112963    -0.001395567704     0.005778631046
      13        0.000003687377    -0.000000635121     0.000004577521
      14        0.000295555987    -0.000090308194    -0.005110241413
      15       -0.000002631990     0.000083377112    -0.000005774405

  **** Optimization is complete! (in 7 steps) ****
    Final optimized geometry and variables:
    Molecular point group: c1

    Geometry (in Angstrom), charge = 0, multiplicity = 1:

    H            2.159258700586    -1.216328415335     2.202860948314
    O            2.547051422917    -0.579866104357     1.629133044233
    C            1.653963688784    -0.100066400543     0.747344756748
    C            2.102211367109     0.836435859197    -0.173631723375
    C            0.337178797903    -0.511827141436     0.726704365540
    H            3.131677437550     1.133597623962    -0.148160481487
    C            1.232900589444     1.361426602472    -1.101711582124
    H           -0.028872566546    -1.258938096351     1.402700071356
    C           -0.508302678115     0.060999222297    -0.198645938157
    H            1.591922903424     2.075467198642    -1.816695666831
    C           -0.099713240618     0.982255701419    -1.126371002827
    N           -1.893777971427    -0.408638923683    -0.243395677635
    H           -0.791534244891     1.392489167785    -1.831711614670
    O           -2.068251662067    -1.581204592077    -0.223495165057
    O           -2.742646813871     0.412301700597    -0.335515095715

  Mulliken Charges: (a.u.)
   Center  Symbol    Alpha    Beta     Spin     Total
       1     H     0.38447  0.38447  0.00000  0.23107
       2     O     4.16750  4.16750  0.00000 -0.33499
       3     C     2.84379  2.84379  0.00000  0.31243
       4     C     3.10213  3.10213  0.00000 -0.20425
       5     C     3.14048  3.14048  0.00000 -0.28097
       6     H     0.41376  0.41376  0.00000  0.17248
       7     C     3.05300  3.05300  0.00000 -0.10600
       8     H     0.41767  0.41767  0.00000  0.16467
       9     C     2.93405  2.93405  0.00000  0.13190
      10     H     0.41622  0.41622  0.00000  0.16757
      11     C     3.10711  3.10711  0.00000 -0.21422
      12     N     3.27613  3.27613  0.00000  0.44774
      13     H     0.40760  0.40760  0.00000  0.18479
      14     O     4.16852  4.16852  0.00000 -0.33704
      15     O     4.16759  4.16759  0.00000 -0.33517

   Total alpha = 36.00000, Total beta = 36.00000, Total charge = -0.00000

*** Psi4 exiting successfully. Buy a developer a beer!
