  ==> Input File <==

--------------------------------------------------------------------------
set {
	reference rhf
	basis 6-31G*
}

set_num_threads( 4 )
memory 2 gb

molecule MOL {
0 1

H	 1.520941	 -4.235770	 -3.470795
C	 1.451944	 -3.717048	 -2.520050
C	 0.263386	 -2.756852	 -2.502210
H	 1.361269	 -4.468392	 -1.740636
H	 2.388822	 -3.189889	 -2.363173
C	 0.130719	 -2.005344	 -1.181592
H	 -0.659108	 -3.298792	 -2.685768
H	 0.368163	 -2.039319	 -3.314344
N	 -1.023095	 -1.127805	 -1.191372
H	 -0.000052	 -2.720443	 -0.373820
H	 1.061339	 -1.467786	 -0.970979
C	 -1.217365	 -0.386708	 0.039277
H	 -0.946793	 -0.486145	 -1.957852
C	 -2.452633	 0.504241	 -0.042481
H	 -1.345922	 -1.104533	 0.844981
H	 -0.344655	 0.220357	 0.302399
C	 -3.758029	 -0.289423	 -0.010781
H	 -2.394220	 1.093569	 -0.952170
H	 -2.440793	 1.210787	 0.785871
H	 -3.816659	 -0.981993	 -0.845726
H	 -4.617837	 0.370165	 -0.069296
H	 -3.847478	 -0.867502	 0.904682

	symmetry c1
}
set optking {
	frozen_dihedral = ("
		15 12 14 18
	")
}

ee = optimize('scf')
oeprop('DIPOLE', 'QUADRUPOLE', 'MULLIKEN_CHARGES')
f=open( 'psi4out.xyz', 'w' )
f.write( "22  " )
f.write( str(ee) + "\n" )
f.write( MOL.save_string_xyz() )
f.close()
--------------------------------------------------------------------------

    Molecular point group: c1
  Charge       = 0
  Multiplicity = 1
  Basis Set: 6-31G*
  Basis Set:
  @DF-RHF Final Energy:  -290.38256520959192
    Total Energy =                       -290.3825652095919168
    Molecular point group: c1
  Basis Set: 6-31G*
  Basis Set:
  Basis Set: 6-31G*
  Basis Set:
  @DF-RHF Final Energy:  -290.38270775142723
    Total Energy =                       -290.3827077514275743
  Basis Set: 6-31G*
  Basis Set:
  Basis Set: 6-31G*
  Basis Set:
  @DF-RHF Final Energy:  -290.38274335242517
    Total Energy =                       -290.3827433524254502
  Basis Set: 6-31G*
  Basis Set:
  Charge       = 0
  Multiplicity = 1
  Basis Set: 6-31G*
  Basis Set:

    Orbital Energies (a.u.)
    -----------------------

    Doubly Occupied:

       1A    -15.534375     2A    -11.238498     3A    -11.238388
       4A    -11.214049     5A    -11.213793     6A    -11.210083
       7A    -11.200434     8A     -1.206128     9A     -1.058165
      10A     -1.022070    11A     -0.925849    12A     -0.873459
      13A     -0.807778    14A     -0.791554    15A     -0.661472
      16A     -0.634098    17A     -0.612058    18A     -0.609842
      19A     -0.570470    20A     -0.564408    21A     -0.538771
      22A     -0.524194    23A     -0.501729    24A     -0.488176
      25A     -0.480116    26A     -0.472517    27A     -0.467195
      28A     -0.450506    29A     -0.358736

  @DF-RHF Final Energy:  -290.38274424522382

   => Energetics <=

    Nuclear Repulsion Energy =            317.3632902435695655
    One-Electron Energy =               -1020.5542506227393460
    Two-Electron Energy =                 412.8082161339456206
    DFT Exchange-Correlation Energy =       0.0000000000000000
    Empirical Dispersion Energy =           0.0000000000000000
    PCM Polarization Energy =               0.0000000000000000
    EFP Energy =                            0.0000000000000000
    Total Energy =                       -290.3827442452242167
    Molecular point group: c1
  Basis Set: 6-31G*
  Basis Set:

  -Total Gradient:
     Atom            X                  Y                   Z
    ------   -----------------  -----------------  -----------------
       1        0.000002902342     0.000000128396    -0.000001538485
       2        0.000007347496     0.000008177177    -0.000006222298
       3        0.000005411560    -0.000002613449     0.000013066121
       4       -0.000003444524     0.000000582721    -0.000001780158
       5        0.000001145397    -0.000002303289     0.000002801566
       6       -0.000055795760     0.000017260475    -0.000019948017
       7       -0.000000976654     0.000004087859     0.000009755817
       8       -0.000000644499    -0.000002955237    -0.000003115716
       9        0.000001715265    -0.000061309916    -0.000012293167
      10        0.000006202994    -0.000005652614     0.000001578063
      11        0.000019296909    -0.000008300107     0.000000908826
      12        0.000759856899     0.001209958020     0.001118376925
      13       -0.000008756510    -0.000004512002     0.000033717387
      14        0.000891738029     0.001369904493     0.000926844193
      15       -0.000801577915    -0.001163405063    -0.001188109115
      16       -0.000044989524     0.000037048285     0.000033524584
      17        0.000016572255    -0.000064322439    -0.000016971554
      18       -0.000815766128    -0.001314915518    -0.000929448971
      19        0.000015847693    -0.000006639069     0.000006819129
      20        0.000003314193    -0.000005375646     0.000022727245
      21        0.000041796659     0.000017386749    -0.000007107556
      22       -0.000041196172    -0.000022229826     0.000016415184

  **** Optimization is complete! (in 4 steps) ****
    Final optimized geometry and variables:
    Molecular point group: c1

    Geometry (in Angstrom), charge = 0, multiplicity = 1:

    H            2.448357332981    -2.840893623659    -2.408147734406
    C            2.377339041875    -2.327091361170    -1.454874867442
    C            1.203034039526    -1.349466705375    -1.443154734514
    H            2.267508566844    -3.081740304942    -0.681187461635
    H            3.320243110460    -1.814877000713    -1.285164780306
    C            1.067903877677    -0.604404298775    -0.119160115620
    H            0.274576438000    -1.876557333394    -1.639498498110
    H            1.326821908188    -0.628559586279    -2.249669620202
    N           -0.072318406176     0.290524064664    -0.134972510124
    H            0.918701958144    -1.322471913907     0.682649013184
    H            2.004213217422    -0.081857496640     0.104012606116
    C           -0.262858344570     1.035140683717     1.096383488505
    H            0.019810371402     0.933124144836    -0.899131191126
    C           -1.519684600545     1.901817260385     1.030459252230
    H           -0.368450850719     0.311146763828     1.899724678651
    H            0.602966767214     1.657456924371     1.340572178942
    C           -2.813949150215     1.088792814593     1.046821078060
    H           -1.488369885884     2.501083311696     0.121909169701
    H           -1.512084854792     2.599662298512     1.863785505996
    H           -2.833510064758     0.378489968787     0.229161011465
    H           -3.681542753456     1.735874447411     0.958085602786
    H           -2.911017495855     0.532237162445     1.975144534554

  Mulliken Charges: (a.u.)
   Center  Symbol    Alpha    Beta     Spin     Total
       1     H     0.41766  0.41766  0.00000  0.16467
       2     C     3.24332  3.24332  0.00000 -0.48664
       3     C     3.15567  3.15567  0.00000 -0.31133
       4     H     0.42062  0.42062  0.00000  0.15876
       5     H     0.42159  0.42159  0.00000  0.15683
       6     C     3.04605  3.04605  0.00000 -0.09209
       7     H     0.41317  0.41317  0.00000  0.17366
       8     H     0.42664  0.42664  0.00000  0.14672
       9     N     3.85616  3.85616  0.00000 -0.71233
      10     H     0.42151  0.42151  0.00000  0.15698
      11     H     0.43638  0.43638  0.00000  0.12723
      12     C     3.05358  3.05358  0.00000 -0.10715
      13     H     0.33542  0.33542  0.00000  0.32916
      14     C     3.15574  3.15574  0.00000 -0.31148
      15     H     0.42149  0.42149  0.00000  0.15702
      16     H     0.43296  0.43296  0.00000  0.13409
      17     C     3.23885  3.23885  0.00000 -0.47771
      18     H     0.42622  0.42622  0.00000  0.14757
      19     H     0.42155  0.42155  0.00000  0.15691
      20     H     0.40822  0.40822  0.00000  0.18356
      21     H     0.42278  0.42278  0.00000  0.15445
      22     H     0.42443  0.42443  0.00000  0.15113

   Total alpha = 29.00000, Total beta = 29.00000, Total charge =  0.00000
