  ==> Input File <==

--------------------------------------------------------------------------
set {
	reference rhf
	basis 6-31G*
}

set_num_threads( 1 )
memory 2 gb

molecule MOL {
0 1

H	 -3.161837	 0.500524	 -0.000234
C	 -2.367097	 -0.232926	 -0.000000
O	 -1.158440	 0.455814	 -0.000122
H	 -2.468853	 -0.861886	 -0.882833
H	 -2.468942	 -0.861421	 0.883154
C	 -0.029776	 -0.365156	 0.000148
C	 1.212217	 0.508981	 0.000007
H	 -0.036772	 -1.013236	 -0.877259
H	 -0.036869	 -1.012778	 0.877897
C	 1.592538	 0.983769	 -1.401711
H	 1.033602	 1.360931	 0.648805
H	 2.029558	 -0.054038	 0.440077
H	 0.796350	 1.570787	 -1.851065
H	 2.481655	 1.604616	 -1.372272
H	 1.798732	 0.145654	 -2.061598

	symmetry c1
}
set optking {
	frozen_dihedral = ("
		6 3 2 4,
		8 6 3 2
	")
}

ee = energy('scf')
oeprop('DIPOLE', 'QUADRUPOLE', 'MULLIKEN_CHARGES')
f=open( 'psi4out.xyz', 'w' )
f.write( "15  " )
f.write( str(ee) + "\n" )
f.write( MOL.save_string_xyz() )
f.close()
--------------------------------------------------------------------------

    Molecular point group: c1

    Geometry (in Angstrom), charge = 0, multiplicity = 1:

       Center              X                  Y                   Z               Mass
    ------------   -----------------  -----------------  -----------------  -----------------
           H         -2.977314007481     0.238395779280     0.283928017010     1.007825032070
           C         -2.182574007481    -0.495054220720     0.284162017010    12.000000000000
           O         -0.973917007481     0.193685779280     0.284040017010    15.994914619560
           H         -2.284330007481    -1.124014220720    -0.598670982990     1.007825032070
           H         -2.284419007481    -1.123549220720     1.167316017010     1.007825032070
           C          0.154746992519    -0.627284220720     0.284310017010    12.000000000000
           C          1.396739992519     0.246852779280     0.284169017010    12.000000000000
           H          0.147750992519    -1.275364220720    -0.593096982990     1.007825032070
           H          0.147653992519    -1.274906220720     1.162059017010     1.007825032070
           C          1.777060992519     0.721640779280    -1.117548982990    12.000000000000
           H          1.218124992519     1.098802779280     0.932967017010     1.007825032070
           H          2.214080992519    -0.316166220720     0.724239017010     1.007825032070
           H          0.980872992519     1.308658779280    -1.566902982990     1.007825032070
           H          2.666177992519     1.342487779280    -1.088109982990     1.007825032070
           H          1.983254992519    -0.116474220720    -1.777435982990     1.007825032070

  Charge       = 0
  Multiplicity = 1
  Basis Set: 6-31G*
  Basis Set:

    Orbital Energies (a.u.)
    -----------------------

    Doubly Occupied:

       1A    -20.553809     2A    -11.265784     3A    -11.264081
       4A    -11.213966     5A    -11.206179     6A     -1.378814
       7A     -1.054950     8A     -0.951425     9A     -0.883364
      10A     -0.803331    11A     -0.667855    12A     -0.663103
      13A     -0.632387    14A     -0.585051    15A     -0.574950
      16A     -0.546375    17A     -0.494690    18A     -0.486516
      19A     -0.481041    20A     -0.459941    21A     -0.412237

  @DF-RHF Final Energy:  -232.13768257745596

   => Energetics <=

    Nuclear Repulsion Energy =            192.1168547069987653
    One-Electron Energy =                -695.3493763279857376
    Two-Electron Energy =                 271.0948390435316924
    DFT Exchange-Correlation Energy =       0.0000000000000000
    Empirical Dispersion Energy =           0.0000000000000000
    PCM Polarization Energy =               0.0000000000000000
    EFP Energy =                            0.0000000000000000
    Total Energy =                       -232.1376825774552799

  Mulliken Charges: (a.u.)
   Center  Symbol    Alpha    Beta     Spin     Total
       1     H     0.41230  0.41230  0.00000  0.17539
       2     C     3.07924  3.07924  0.00000 -0.15847
       3     O     4.30396  4.30396  0.00000 -0.60792
       4     H     0.43036  0.43036  0.00000  0.13929
       5     H     0.43032  0.43032  0.00000  0.13937
       6     C     2.98880  2.98880  0.00000  0.02240
       7     C     3.16080  3.16080  0.00000 -0.32160
       8     H     0.43257  0.43257  0.00000  0.13486
       9     H     0.43091  0.43091  0.00000  0.13818
      10     C     3.24349  3.24349  0.00000 -0.48697
      11     H     0.40951  0.40951  0.00000  0.18099
      12     H     0.42234  0.42234  0.00000  0.15533
      13     H     0.41190  0.41190  0.00000  0.17620
      14     H     0.41972  0.41972  0.00000  0.16056
      15     H     0.42380  0.42380  0.00000  0.15240

   Total alpha = 21.00000, Total beta = 21.00000, Total charge =  0.00000
