                              Psi4 1.0.54 Driver

  ==> Input File <==

--------------------------------------------------------------------------
set {
	reference rhf
	basis cc-pvtz
}

set_num_threads( 4 )
memory 2 gb

molecule MOL {
0 1

H	 1.243627	 -2.262415	 0.354384
C	 0.281206	 -1.784499	 0.426316
O	 0.462329	 -0.453336	 -0.000137
H	 -0.058567	 -1.821973	 1.453628
H	 -0.422978	 -2.305395	 -0.210105
C	 -0.590565	 0.341382	 0.000062
O	 -1.693898	 -0.053880	 0.000252
H	 -0.340426	 1.403822	 0.000200

	symmetry c1
}
set optking {
	frozen_dihedral = ("
		2 3 6 7
	")
}

ee,wfn = optimize('scf', return_wfn=True)
oeprop( wfn, 'DIPOLE', 'QUADRUPOLE', 'MULLIKEN_CHARGES')
f=open( 'psi4out.xyz', 'w' )
f.write( "8  " )
f.write( str(ee) + "\n" )
f.write( MOL.save_string_xyz() )
f.close()
--------------------------------------------------------------------------

    Molecular point group: c1
  Charge       = 0
  Multiplicity = 1
  Basis Set: CC-PVTZ
  Basis Set:
  @DF-RHF Final Energy:  -227.87519455934387
    Total Energy =                       -227.8751945593438677
    Molecular point group: c1
  Basis Set: CC-PVTZ
  Basis Set:
  Basis Set: CC-PVTZ
  Basis Set:
  @DF-RHF Final Energy:  -227.87177045325097
    Total Energy =                       -227.8717704532509458
  Basis Set: CC-PVTZ
  Basis Set:
  Basis Set: CC-PVTZ
  Basis Set:
  @DF-RHF Final Energy:  -227.87458605165347
    Total Energy =                       -227.8745860516534663
  Basis Set: CC-PVTZ
  Basis Set:
  Basis Set: CC-PVTZ
  Basis Set:
  @DF-RHF Final Energy:  -227.87643148370972
    Total Energy =                       -227.8764314837097515
  Basis Set: CC-PVTZ
  Basis Set:
  Basis Set: CC-PVTZ
  Basis Set:
  @DF-RHF Final Energy:  -227.87646273843728
    Total Energy =                       -227.8764627384373114
  Basis Set: CC-PVTZ
  Basis Set:
  Basis Set: CC-PVTZ
  Basis Set:
  @DF-RHF Final Energy:  -227.87647652496844
    Total Energy =                       -227.8764765249684672
  Basis Set: CC-PVTZ
  Basis Set:
  Charge       = 0
  Multiplicity = 1
  Basis Set: CC-PVTZ
  Basis Set:

    Orbital Energies (a.u.)
    -----------------------

    Doubly Occupied:

       1A    -20.607805     2A    -20.549692     3A    -11.372784
       4A    -11.288033     5A     -1.481342     6A     -1.380354
       7A     -0.998215     8A     -0.820526     9A     -0.747435
      10A     -0.685733    11A     -0.682562    12A     -0.604725
      13A     -0.560373    14A     -0.534306    15A     -0.470142
      16A     -0.461464

  @DF-RHF Final Energy:  -227.87647684867562

   => Energetics <=

    Nuclear Repulsion Energy =            123.8270881590901098
    One-Electron Energy =                -556.9161455324195913
    Two-Electron Energy =                 205.2125805246538448
    DFT Exchange-Correlation Energy =       0.0000000000000000
    Empirical Dispersion Energy =           0.0000000000000000
    PCM Polarization Energy =               0.0000000000000000
    EFP Energy =                            0.0000000000000000
    Total Energy =                       -227.8764768486756225
    Molecular point group: c1
  Basis Set: CC-PVTZ
  Basis Set:

  -Total Gradient:
     Atom            X                  Y                   Z
    ------   -----------------  -----------------  -----------------
       1       -0.000001343122    -0.000022990547     0.000016411108
       2        0.001724801526     0.001664911118     0.004716153917
       3       -0.002992548419    -0.002635425714    -0.010765659904
       4       -0.000001832077     0.000007627552     0.000009887632
       5       -0.000001833936    -0.000002377014     0.000012118643
       6        0.002075653652     0.001167421695     0.013003948396
       7       -0.000798591660    -0.000214902283    -0.006983054879
       8       -0.000004305962     0.000035735195    -0.000009804913

  **** Optimization is complete! (in 7 steps) ****
    Final optimized geometry and variables:
    Molecular point group: c1

    Geometry (in Angstrom), charge = 0, multiplicity = 1:

    H            1.704414482966    -1.699759189612     0.196159129960
    C            0.719791214189    -1.269821104807     0.274952264734
    O            0.829913079078     0.053847553931    -0.219582540543
    H            0.399415352981    -1.257279533063     1.306535883770
    H            0.015082588805    -1.841118867328    -0.310076688621
    C           -0.227503449140     0.828149300651    -0.113578044471
    O           -1.336135254857     0.462124229939     0.038868037135
    H            0.053614779720     1.868221455001    -0.246003209378

  Mulliken Charges: (a.u.)
   Center  Symbol    Alpha    Beta     Spin     Total
       1     H     0.44427  0.44427  0.00000  0.11146
       2     C     3.02748  3.02748  0.00000 -0.05495
       3     O     4.14181  4.14181  0.00000 -0.28363
       4     H     0.45683  0.45683  0.00000  0.08634
       5     H     0.45058  0.45058  0.00000  0.09883
       6     C     2.83698  2.83698  0.00000  0.32605
       7     O     4.19183  4.19183  0.00000 -0.38367
       8     H     0.45022  0.45022  0.00000  0.09957

   Total alpha = 16.00000, Total beta = 16.00000, Total charge =  0.00000

*** Psi4 exiting successfully. Buy a developer a beer!
