  ==> Input File <==

--------------------------------------------------------------------------
set {
	reference rhf
	basis 6-31G*
}

set_num_threads( 4 )
memory 2 gb

molecule MOL {
0 1

H	 -0.070242	 -6.149698	 -0.286694
C	 0.275609	 -5.130367	 -0.148492
C	 -0.881604	 -4.137901	 -0.252576
H	 0.754585	 -5.074104	 0.824978
H	 1.033845	 -4.934378	 -0.901429
C	 -0.437587	 -2.690815	 -0.064995
H	 -1.639197	 -4.366169	 0.490616
H	 -1.359739	 -4.243265	 -1.225036
N	 -1.564891	 -1.782550	 -0.140482
H	 0.016261	 -2.579454	 0.916119
H	 0.341841	 -2.449233	 -0.795412
C	 -1.217365	 -0.386708	 0.039277
H	 -2.028090	 -1.899432	 -1.021859
C	 -2.452633	 0.504241	 -0.042481
H	 -0.762257	 -0.279219	 1.020236
H	 -0.471396	 -0.046121	 -0.686611
C	 -3.758029	 -0.289423	 -0.010781
H	 -2.394220	 1.093569	 -0.952170
H	 -2.440793	 1.210787	 0.785871
H	 -3.816659	 -0.981993	 -0.845726
H	 -4.617837	 0.370165	 -0.069296
H	 -3.847478	 -0.867502	 0.904682

	symmetry c1
}
set optking {
	frozen_dihedral = ("
		15 12 14 18
	")
}

ee = optimize('scf')
oeprop('DIPOLE', 'QUADRUPOLE', 'MULLIKEN_CHARGES')
f=open( 'psi4out.xyz', 'w' )
f.write( "22  " )
f.write( str(ee) + "\n" )
f.write( MOL.save_string_xyz() )
f.close()
--------------------------------------------------------------------------

    Molecular point group: c1
  Charge       = 0
  Multiplicity = 1
  Basis Set: 6-31G*
  Basis Set:
  @DF-RHF Final Energy:  -290.37196426273084
    Total Energy =                       -290.3719642627309554
    Molecular point group: c1
  Basis Set: 6-31G*
  Basis Set:
  Basis Set: 6-31G*
  Basis Set:
  @DF-RHF Final Energy:  -290.37260294587219
    Total Energy =                       -290.3726029458722451
  Basis Set: 6-31G*
  Basis Set:
  Basis Set: 6-31G*
  Basis Set:
  @DF-RHF Final Energy:  -290.37497142925486
    Total Energy =                       -290.3749714292548560
  Basis Set: 6-31G*
  Basis Set:
  Basis Set: 6-31G*
  Basis Set:
  @DF-RHF Final Energy:  -290.37517793883950
    Total Energy =                       -290.3751779388392151
  Basis Set: 6-31G*
  Basis Set:
  Basis Set: 6-31G*
  Basis Set:
  @DF-RHF Final Energy:  -290.37519636688978
    Total Energy =                       -290.3751963668898952
  Basis Set: 6-31G*
  Basis Set:
  Basis Set: 6-31G*
  Basis Set:
  @DF-RHF Final Energy:  -290.37520338721680
    Total Energy =                       -290.3752033872167999
  Basis Set: 6-31G*
  Basis Set:
  Charge       = 0
  Multiplicity = 1
  Basis Set: 6-31G*
  Basis Set:

    Orbital Energies (a.u.)
    -----------------------

    Doubly Occupied:

       1A    -15.534471     2A    -11.238775     3A    -11.238505
       4A    -11.213947     5A    -11.213707     6A    -11.210039
       7A    -11.202559     8A     -1.205910     9A     -1.055837
      10A     -1.020312    11A     -0.926395    12A     -0.880036
      13A     -0.805164    14A     -0.786868    15A     -0.665049
      16A     -0.628580    17A     -0.618524    18A     -0.602743
      19A     -0.573917    20A     -0.566111    21A     -0.531011
      22A     -0.530151    23A     -0.504089    24A     -0.486793
      25A     -0.484652    26A     -0.470575    27A     -0.457985
      28A     -0.450046    29A     -0.357576

  @DF-RHF Final Energy:  -290.37520396571557

   => Energetics <=

    Nuclear Repulsion Energy =            318.0850296095107410
    One-Electron Energy =               -1021.9998160121074307
    Two-Electron Energy =                 413.5395824368810054
    DFT Exchange-Correlation Energy =       0.0000000000000000
    Empirical Dispersion Energy =           0.0000000000000000
    PCM Polarization Energy =               0.0000000000000000
    EFP Energy =                            0.0000000000000000
    Total Energy =                       -290.3752039657157411
    Molecular point group: c1
  Basis Set: 6-31G*
  Basis Set:

  -Total Gradient:
     Atom            X                  Y                   Z
    ------   -----------------  -----------------  -----------------
       1       -0.000000754298     0.000001284044    -0.000000666318
       2        0.000000261555     0.000002440247     0.000000170718
       3       -0.000002944711    -0.000000249222    -0.000002850108
       4       -0.000000124527    -0.000000587241     0.000000608271
       5        0.000000767518     0.000000282225     0.000000105839
       6        0.000004665249    -0.000004225911     0.000000341359
       7        0.000000050490     0.000000401176     0.000000725291
       8       -0.000000726013    -0.000000921069     0.000000312692
       9       -0.000015278849    -0.000008886802     0.000000004920
      10       -0.000002455408     0.000001260850     0.000000751323
      11       -0.000002051556     0.000001100965    -0.000000097788
      12       -0.003096281466    -0.003707230796     0.002818137837
      13        0.000001468225    -0.000010976326    -0.000008846782
      14       -0.002534344611    -0.003632318979    -0.003494128621
      15        0.003010295547     0.003724117365    -0.001827222677
      16        0.000001448205     0.000005443695    -0.000000581092
      17        0.000003924656     0.000000821193    -0.000015019120
      18        0.002621391202     0.003649517897     0.002495743782
      19        0.000010351212    -0.000014427463     0.000019894055
      20        0.000014205460    -0.000025308392     0.000018917279
      21       -0.000000228783    -0.000002901861    -0.000024842484
      22       -0.000013639095     0.000021364405     0.000018541626

  **** Optimization is complete! (in 7 steps) ****
    Final optimized geometry and variables:
    Molecular point group: c1

    Geometry (in Angstrom), charge = 0, multiplicity = 1:

    H            1.470909238404    -4.164689306717    -0.193619197405
    C            1.782367927512    -3.139395808129    -0.021792355327
    C            0.610486524127    -2.173216570522    -0.189559722941
    H            2.195957880340    -3.084361864037     0.981238176284
    H            2.582631039988    -2.916031394845    -0.721743190657
    C            1.006564870854    -0.718856653266     0.043420847968
    H           -0.187770199842    -2.428949503770     0.500162115587
    H            0.199089051056    -2.277189604961    -1.192271176893
    N           -0.135804859390     0.163491295231    -0.092735905820
    H            1.394481503531    -0.609631878866     1.052590579266
    H            1.824368936509    -0.448871248499    -0.633130036548
    C            0.182256389473     1.562275589928     0.115833341721
    H           -0.536757331187     0.042842216267    -1.003281817143
    C           -1.038494100847     2.508096758439     0.025504798923
    H            0.647105429228     1.665382456689     1.091195915495
    H            0.942414163735     1.910338436278    -0.590463209362
    C           -2.410949330166     1.847581628131     0.153154408469
    H           -0.981910871094     3.092634905779    -0.889056483640
    H           -0.943216956446     3.243799901056     0.820274346765
    H           -2.615270173310     1.163964465246    -0.663395357066
    H           -3.188076943950     2.606189401162     0.147702105754
    H           -2.491501598221     1.284572015342     1.075358446407

  Mulliken Charges: (a.u.)
   Center  Symbol    Alpha    Beta     Spin     Total
       1     H     0.41765  0.41765  0.00000  0.16469
       2     C     3.24331  3.24331  0.00000 -0.48662
       3     C     3.15564  3.15564  0.00000 -0.31129
       4     H     0.42064  0.42064  0.00000  0.15871
       5     H     0.42160  0.42160  0.00000  0.15679
       6     C     3.04621  3.04621  0.00000 -0.09241
       7     H     0.41296  0.41296  0.00000  0.17408
       8     H     0.42669  0.42669  0.00000  0.14661
       9     N     3.85768  3.85768  0.00000 -0.71537
      10     H     0.42142  0.42142  0.00000  0.15717
      11     H     0.43626  0.43626  0.00000  0.12748
      12     C     3.05047  3.05047  0.00000 -0.10094
      13     H     0.33408  0.33408  0.00000  0.33184
      14     C     3.16793  3.16793  0.00000 -0.33587
      15     H     0.42023  0.42023  0.00000  0.15954
      16     H     0.43412  0.43412  0.00000  0.13177
      17     C     3.22991  3.22991  0.00000 -0.45981
      18     H     0.42198  0.42198  0.00000  0.15604
      19     H     0.41961  0.41961  0.00000  0.16078
      20     H     0.42492  0.42492  0.00000  0.15016
      21     H     0.42368  0.42368  0.00000  0.15265
      22     H     0.41300  0.41300  0.00000  0.17400

   Total alpha = 29.00000, Total beta = 29.00000, Total charge =  0.00000
