                              Psi4 1.0.54 Driver

  ==> Input File <==

--------------------------------------------------------------------------
set {
	reference rhf
	basis cc-pvtz
}

set_num_threads( 4 )
memory 2 gb

molecule MOL {
0 1

H	 3.617434	 0.565064	 0.788301
O	 2.715056	 0.412678	 1.025344
C	 2.076458	 -0.067370	 -0.038225
C	 0.626018	 -0.337582	 0.258241
O	 2.622591	 -0.244357	 -1.071790
C	 -0.267326	 0.883135	 0.076490
H	 0.325620	 -1.161483	 -0.378003
H	 0.574537	 -0.713685	 1.275261
C	 -1.726822	 0.642622	 0.463839
H	 -0.210803	 1.217591	 -0.953497
H	 0.129920	 1.693110	 0.675679
C	 -2.480891	 -0.340606	 -0.429852
H	 -2.243098	 1.597649	 0.438609
H	 -1.776542	 0.301208	 1.495542
C	 -3.955933	 -0.460128	 -0.060472
H	 -2.393755	 -0.020485	 -1.464726
H	 -2.024244	 -1.323637	 -0.374360
H	 -4.467673	 -1.160944	 -0.709827
H	 -4.458917	 0.497287	 -0.144505
H	 -4.076458	 -0.806900	 0.960497

	symmetry c1
}
set optking {
	frozen_dihedral = ("
		5 3 4 7
	")
}

ee,wfn = optimize('scf', return_wfn=True)
oeprop( wfn, 'DIPOLE', 'QUADRUPOLE', 'MULLIKEN_CHARGES')
f=open( 'psi4out.xyz', 'w' )
f.write( "20  " )
f.write( str(ee) + "\n" )
f.write( MOL.save_string_xyz() )
f.close()
--------------------------------------------------------------------------

    Molecular point group: c1
  Charge       = 0
  Multiplicity = 1
  Basis Set: CC-PVTZ
  Basis Set:
  @DF-RHF Final Energy:  -384.09300992082166
    Total Energy =                       -384.0930099208214870
    Molecular point group: c1
  Basis Set: CC-PVTZ
  Basis Set:
  Basis Set: CC-PVTZ
  Basis Set:
  @DF-RHF Final Energy:  -384.09292420609938
    Total Energy =                       -384.0929242060996103
  Basis Set: CC-PVTZ
  Basis Set:
  Basis Set: CC-PVTZ
  Basis Set:
  @DF-RHF Final Energy:  -384.09313362631627
    Total Energy =                       -384.0931336263159324
  Basis Set: CC-PVTZ
  Basis Set:
  Basis Set: CC-PVTZ
  Basis Set:
  @DF-RHF Final Energy:  -384.09372624418245
    Total Energy =                       -384.0937262441829034
  Basis Set: CC-PVTZ
  Basis Set:
  Basis Set: CC-PVTZ
  Basis Set:
  @DF-RHF Final Energy:  -384.09374176291243
    Total Energy =                       -384.0937417629120887
  Basis Set: CC-PVTZ
  Basis Set:
  Charge       = 0
  Multiplicity = 1
  Basis Set: CC-PVTZ
  Basis Set:

    Orbital Energies (a.u.)
    -----------------------

    Doubly Occupied:

       1A    -20.604713     2A    -20.538038     3A    -11.371947
       4A    -11.236590     5A    -11.231349     6A    -11.222341
       7A    -11.219707     8A    -11.211640     9A     -1.476774
      10A     -1.367423    11A     -1.100681    12A     -1.043357
      13A     -0.961987    14A     -0.866335    15A     -0.824578
      16A     -0.788658    17A     -0.705346    18A     -0.689818
      19A     -0.648438    20A     -0.633155    21A     -0.623679
      22A     -0.594960    23A     -0.580048    24A     -0.556149
      25A     -0.541610    26A     -0.522101    27A     -0.498316
      28A     -0.486709    29A     -0.476982    30A     -0.470953
      31A     -0.459569    32A     -0.438394

  @DF-RHF Final Energy:  -384.09374246505115

   => Energetics <=

    Nuclear Repulsion Energy =            377.1898997330135899
    One-Electron Energy =               -1270.5825899181313616
    Two-Electron Energy =                 509.2989477200663941
    DFT Exchange-Correlation Energy =       0.0000000000000000
    Empirical Dispersion Energy =           0.0000000000000000
    PCM Polarization Energy =               0.0000000000000000
    EFP Energy =                            0.0000000000000000
    Total Energy =                       -384.0937424650513776
    Molecular point group: c1
  Basis Set: CC-PVTZ
  Basis Set:

  -Total Gradient:
     Atom            X                  Y                   Z
    ------   -----------------  -----------------  -----------------
       1       -0.000090091862    -0.000012569293     0.000026117819
       2        0.000028407036    -0.000003643311     0.000033877993
       3        0.000253287512    -0.000496900860     0.000034448211
       4       -0.000095070812     0.000381844294    -0.000249700059
       5       -0.000183967260     0.000317113739    -0.000026745580
       6        0.000000260696     0.000040242604    -0.000067076530
       7        0.000147160637    -0.000178196335     0.000263866049
       8       -0.000008246803    -0.000010277067    -0.000024757182
       9       -0.000004345154    -0.000047210519     0.000026907295
      10       -0.000000414872    -0.000011515413    -0.000005849008
      11       -0.000009617429    -0.000000919499    -0.000016891489
      12       -0.000010718809     0.000010337464     0.000006599703
      13        0.000006167339    -0.000002857147     0.000014492301
      14        0.000010295730    -0.000018503839     0.000001458689
      15       -0.000004704078     0.000014435921    -0.000011704517
      16        0.000007198720    -0.000007880347    -0.000013460023
      17       -0.000045399106     0.000023612948     0.000011781508
      18       -0.000001455913     0.000003340835    -0.000001741661
      19       -0.000004135851    -0.000000460725     0.000001864603
      20        0.000005390283     0.000000006552    -0.000003488118

  **** Optimization is complete! (in 6 steps) ****
    Final optimized geometry and variables:
    Molecular point group: c1

    Geometry (in Angstrom), charge = 0, multiplicity = 1:

    H            3.613923059874     0.564272644846     0.707798051649
    O            2.734197828810     0.354290694286     0.983317342507
    C            2.071383455031    -0.131839449652    -0.061974213592
    C            0.635637015835    -0.446019398621     0.256514838150
    O            2.577648908733    -0.261396376897    -1.123340430944
    C           -0.245906827836     0.795029923127     0.055191999410
    H            0.332733296845    -1.246508497994    -0.400999622542
    H            0.565316703057    -0.786592385199     1.281643522913
    C           -1.713176857982     0.576991256979     0.425307128317
    H           -0.172948602190     1.114004658384    -0.979406692740
    H            0.149713085632     1.602787047857     0.661176337844
    C           -2.465211481202    -0.408296310175    -0.467285195737
    H           -2.216105658466     1.538620150085     0.380957210256
    H           -1.778215433333     0.249680074133     1.460220449894
    C           -3.946516857714    -0.505356839819    -0.116597735015
    H           -2.359339760590    -0.103033502036    -1.504733089940
    H           -2.020469879052    -1.395067046787    -0.392456861955
    H           -4.456268472092    -1.211242206506    -0.761825508452
    H           -4.438084663591     0.455734495430    -0.223479143147
    H           -4.085320381041    -0.834198959799     0.907984714606

  Mulliken Charges: (a.u.)
   Center  Symbol    Alpha    Beta     Spin     Total
       1     H     0.38041  0.38041  0.00000  0.23918
       2     O     4.16321  4.16321  0.00000 -0.32642
       3     C     2.80321  2.80321  0.00000  0.39358
       4     C     3.09106  3.09106  0.00000 -0.18211
       5     O     4.19761  4.19761  0.00000 -0.39522
       6     C     3.11080  3.11080  0.00000 -0.22160
       7     H     0.43695  0.43695  0.00000  0.12610
       8     H     0.44215  0.44215  0.00000  0.11570
       9     C     3.09812  3.09812  0.00000 -0.19625
      10     H     0.44250  0.44250  0.00000  0.11500
      11     H     0.43950  0.43950  0.00000  0.12100
      12     C     3.08654  3.08654  0.00000 -0.17308
      13     H     0.44627  0.44627  0.00000  0.10747
      14     H     0.45210  0.45210  0.00000  0.09581
      15     C     3.14964  3.14964  0.00000 -0.29927
      16     H     0.45124  0.45124  0.00000  0.09752
      17     H     0.45295  0.45295  0.00000  0.09410
      18     H     0.44708  0.44708  0.00000  0.10585
      19     H     0.45388  0.45388  0.00000  0.09223
      20     H     0.45479  0.45479  0.00000  0.09042

   Total alpha = 32.00000, Total beta = 32.00000, Total charge = -0.00000

*** Psi4 exiting successfully. Buy a developer a beer!
