                              Psi4 1.0.54 Driver

  ==> Input File <==

--------------------------------------------------------------------------
set {
	reference rhf
	basis cc-pvtz
}

set_num_threads( 4 )
memory 2 gb

molecule MOL {
0 1

H	 2.867672	 -0.456275	 0.875795
C	 2.403497	 -0.020426	 0.000000
N	 0.989899	 -0.304564	 0.000000
H	 2.867672	 -0.456275	 -0.875795
H	 2.620366	 1.051270	 0.000000
C	 0.579246	 -1.069697	 -1.159096
C	 0.184933	 0.892029	 0.133268
H	 0.778970	 -0.526427	 -2.087920
H	 1.142105	 -1.995312	 -1.193045
C	 -0.902047	 -1.384659	 -1.076557
H	 0.458471	 1.405796	 1.047570
H	 0.354998	 1.582850	 -0.698350
C	 -1.286229	 0.526662	 0.182602
H	 -1.236449	 -1.875219	 -1.979969
H	 -1.086129	 -2.049155	 -0.234739
O	 -1.658937	 -0.218832	 -0.938323
H	 -1.898332	 1.417678	 0.189357
H	 -1.490192	 -0.038929	 1.089578

	symmetry c1
}
set optking {
	frozen_dihedral = ("
		6 3 2 5
	")
}

ee,wfn = optimize('scf', return_wfn=True)
oeprop( wfn, 'DIPOLE', 'QUADRUPOLE', 'MULLIKEN_CHARGES')
f=open( 'psi4out.xyz', 'w' )
f.write( "18  " )
f.write( str(ee) + "\n" )
f.write( MOL.save_string_xyz() )
f.close()
--------------------------------------------------------------------------

    Molecular point group: c1
  Charge       = 0
  Multiplicity = 1
  Basis Set: CC-PVTZ
  Basis Set:
  @DF-RHF Final Energy:  -325.13913372634136
    Total Energy =                       -325.1391337263411287
    Molecular point group: c1
  Basis Set: CC-PVTZ
  Basis Set:
  Basis Set: CC-PVTZ
  Basis Set:
  @DF-RHF Final Energy:  -325.13970875077553
    Total Energy =                       -325.1397087507756396
  Basis Set: CC-PVTZ
  Basis Set:
  Basis Set: CC-PVTZ
  Basis Set:
  @DF-RHF Final Energy:  -325.13983353680874
    Total Energy =                       -325.1398335368085100
  Basis Set: CC-PVTZ
  Basis Set:
  Basis Set: CC-PVTZ
  Basis Set:
  @DF-RHF Final Energy:  -325.13983809303608
    Total Energy =                       -325.1398380930360190
  Basis Set: CC-PVTZ
  Basis Set:
  Charge       = 0
  Multiplicity = 1
  Basis Set: CC-PVTZ
  Basis Set:

    Orbital Energies (a.u.)
    -----------------------

    Doubly Occupied:

       1A    -20.546925     2A    -15.540620     3A    -11.263485
       4A    -11.263451     5A    -11.242404     6A    -11.242370
       7A    -11.238878     8A     -1.385795     9A     -1.228925
      10A     -1.038745    11A     -0.980933    12A     -0.883541
      13A     -0.870446    14A     -0.773496    15A     -0.684307
      16A     -0.645600    17A     -0.644250    18A     -0.631917
      19A     -0.627619    20A     -0.572242    21A     -0.558336
      22A     -0.547488    23A     -0.527239    24A     -0.499851
      25A     -0.485075    26A     -0.453339    27A     -0.409801
      28A     -0.348100

  @DF-RHF Final Energy:  -325.13983868836590

   => Energetics <=

    Nuclear Repulsion Energy =            341.3444944807558841
    One-Electron Energy =               -1118.6983099677311202
    Two-Electron Energy =                 452.2139767986093375
    DFT Exchange-Correlation Energy =       0.0000000000000000
    Empirical Dispersion Energy =           0.0000000000000000
    PCM Polarization Energy =               0.0000000000000000
    EFP Energy =                            0.0000000000000000
    Total Energy =                       -325.1398386883658986
    Molecular point group: c1
  Basis Set: CC-PVTZ
  Basis Set:

  -Total Gradient:
     Atom            X                  Y                   Z
    ------   -----------------  -----------------  -----------------
       1       -0.000018719393    -0.000003121321    -0.000020191911
       2        0.000158087531    -0.000300455135    -0.001216810577
       3       -0.000212599349     0.001004486914    -0.000311881257
       4       -0.000008468285    -0.000004510179    -0.000004191669
       5       -0.000049045473     0.000027848300     0.001111579422
       6        0.000136891274    -0.000715193053     0.000471847715
       7        0.000022333965     0.000006631255    -0.000009846791
       8       -0.000003386041    -0.000002178090     0.000005979955
       9       -0.000007591977     0.000002341538    -0.000002850762
      10       -0.000016733267    -0.000009570612    -0.000022612850
      11       -0.000006677597    -0.000001675434    -0.000002758374
      12        0.000006922779    -0.000002566037    -0.000000075808
      13       -0.000013204007    -0.000018872675     0.000013225901
      14       -0.000019997367    -0.000001193074    -0.000002959943
      15        0.000015166012     0.000003211537    -0.000003827788
      16        0.000019998113     0.000012320088    -0.000006880762
      17       -0.000007809158    -0.000004933906    -0.000008599287
      18        0.000004832237     0.000007429886     0.000010854786

  **** Optimization is complete! (in 5 steps) ****
    Final optimized geometry and variables:
    Molecular point group: c1

    Geometry (in Angstrom), charge = 0, multiplicity = 1:

    H            2.825682233084    -0.168375891023     1.323431805350
    C            2.376777578194     0.229416677713     0.419508695825
    N            0.951570199629    -0.048089938147     0.376754814272
    H            2.889586777414    -0.212654025444    -0.426932026316
    H            2.577159445147     1.296237871966     0.397454459866
    C            0.537018540051    -0.840200055465    -0.761088897996
    C            0.121816708830     1.126435711435     0.533861933940
    H            0.706702747640    -0.313537868742    -1.705529015666
    H            1.113903542850    -1.757112450374    -0.788493584970
    C           -0.935641813662    -1.184341239401    -0.643941174593
    H            0.397859791572     1.640703466061     1.447215688992
    H            0.256241462237     1.828917883272    -0.294650799467
    C           -1.338686110334     0.724694056175     0.612017078033
    H           -1.278928405315    -1.690399641189    -1.535585635184
    H           -1.086992168450    -1.844697751689     0.207756808703
    O           -1.714086823020    -0.033738274474    -0.499119704627
    H           -1.972506213785     1.600461392733     0.628063230259
    H           -1.510846027908     0.157242626692     1.524546737800

  Mulliken Charges: (a.u.)
   Center  Symbol    Alpha    Beta     Spin     Total
       1     H     0.44955  0.44955  0.00000  0.10091
       2     C     3.08973  3.08973  0.00000 -0.17946
       3     N     3.61946  3.61946  0.00000 -0.23893
       4     H     0.45911  0.45911  0.00000  0.08178
       5     H     0.46116  0.46116  0.00000  0.07769
       6     C     3.04152  3.04152  0.00000 -0.08304
       7     C     3.04177  3.04177  0.00000 -0.08354
       8     H     0.46893  0.46893  0.00000  0.06214
       9     H     0.45366  0.45366  0.00000  0.09267
      10     C     2.98446  2.98446  0.00000  0.03107
      11     H     0.45360  0.45360  0.00000  0.09280
      12     H     0.46886  0.46886  0.00000  0.06229
      13     C     2.98448  2.98448  0.00000  0.03105
      14     H     0.45013  0.45013  0.00000  0.09973
      15     H     0.46853  0.46853  0.00000  0.06293
      16     O     4.18639  4.18639  0.00000 -0.37277
      17     H     0.45016  0.45016  0.00000  0.09967
      18     H     0.46850  0.46850  0.00000  0.06300

   Total alpha = 28.00000, Total beta = 28.00000, Total charge =  0.00000

*** Psi4 exiting successfully. Buy a developer a beer!
