                              Psi4 1.0.54 Driver

  ==> Input File <==

--------------------------------------------------------------------------
set {
	reference rhf
	basis cc-pvtz
}

set_num_threads( 4 )
memory 2 gb

molecule MOL {
0 1

H	 -4.340537	 -0.784487	 0.000000
O	 -3.958786	 0.074640	 0.000000
C	 -2.613554	 0.009900	 0.000000
C	 -1.963186	 0.192051	 1.209140
C	 -1.879659	 -0.227761	 -1.146212
H	 -2.542515	 0.375788	 2.092021
C	 -0.588320	 0.136023	 1.266569
H	 -2.377093	 -0.370069	 -2.087952
C	 -0.499059	 -0.283713	 -1.086788
H	 -0.087056	 0.277178	 2.202826
C	 0.141072	 -0.101972	 0.117237
H	 0.065906	 -0.468249	 -1.978115
Br	 2.036044	 -0.178253	 0.201731

	symmetry c1
}
set optking {
	frozen_dihedral = ("
		4 3 2 1
	")
}

ee,wfn = optimize('scf', return_wfn=True)
oeprop( wfn, 'DIPOLE', 'QUADRUPOLE', 'MULLIKEN_CHARGES')
f=open( 'psi4out.xyz', 'w' )
f.write( "13  " )
f.write( str(ee) + "\n" )
f.write( MOL.save_string_xyz() )
f.close()
--------------------------------------------------------------------------

    Molecular point group: c1
  Charge       = 0
  Multiplicity = 1
  Basis Set: CC-PVTZ
  Basis Set:
  @DF-RHF Final Energy: -2877.54210352117889
    Total Energy =                      -2877.5421035211766139
    Molecular point group: c1
  Basis Set: CC-PVTZ
  Basis Set:
  Basis Set: CC-PVTZ
  Basis Set:
  @DF-RHF Final Energy: -2877.54279377620469
    Total Energy =                      -2877.5427937762074180
  Basis Set: CC-PVTZ
  Basis Set:
  Basis Set: CC-PVTZ
  Basis Set:
  @DF-RHF Final Energy: -2877.54284709672584
    Total Energy =                      -2877.5428470967253816
  Basis Set: CC-PVTZ
  Basis Set:
  Basis Set: CC-PVTZ
  Basis Set:
  @DF-RHF Final Energy: -2877.54285299284538
    Total Energy =                      -2877.5428529928476564
  Basis Set: CC-PVTZ
  Basis Set:
  Charge       = 0
  Multiplicity = 1
  Basis Set: CC-PVTZ
  Basis Set:

    Orbital Energies (a.u.)
    -----------------------

    Doubly Occupied:

       1A   -490.021002     2A    -65.161336     3A    -58.516560
       4A    -58.515195     5A    -58.515180     6A    -20.582563
       7A    -11.302937     8A    -11.294139     9A    -11.252086
      10A    -11.251765    11A    -11.242499    12A    -11.241669
      13A     -9.835140    14A     -7.446764    15A     -7.439975
      16A     -7.439956    17A     -3.190456    18A     -3.186913
      19A     -3.186766    20A     -3.178130    21A     -3.178126
      22A     -1.410301    23A     -1.180835    24A     -1.067787
      25A     -1.041865    26A     -0.970626    27A     -0.862364
      28A     -0.826384    29A     -0.752779    30A     -0.677625
      31A     -0.664523    32A     -0.646493    33A     -0.610498
      34A     -0.599904    35A     -0.547707    36A     -0.532589
      37A     -0.502657    38A     -0.487305    39A     -0.435386
      40A     -0.415774    41A     -0.358986    42A     -0.329579

  @DF-RHF Final Energy: -2877.54285411608498

   => Energetics <=

    Nuclear Repulsion Energy =            525.1303112231784098
    One-Electron Energy =               -5041.5440808650191684
    Two-Electron Energy =                1638.8709155257527073
    DFT Exchange-Correlation Energy =       0.0000000000000000
    Empirical Dispersion Energy =           0.0000000000000000
    PCM Polarization Energy =               0.0000000000000000
    EFP Energy =                            0.0000000000000000
    Total Energy =                      -2877.5428541160881650
    Molecular point group: c1
  Basis Set: CC-PVTZ
  Basis Set:

  -Total Gradient:
     Atom            X                  Y                   Z
    ------   -----------------  -----------------  -----------------
       1       -0.000042028914     0.000000527371     0.000706573762
       2       -0.000169108786    -0.000270802106    -0.000803501067
       3        0.000319220065     0.000778291466    -0.000174863073
       4       -0.000031396895    -0.000483208013     0.000203316600
       5       -0.000158563153    -0.000036014759     0.000045693021
       6        0.000020732148     0.000002816011    -0.000023533475
       7       -0.000083488634    -0.000041752444     0.000059758926
       8       -0.000023146523     0.000014474030     0.000003728938
       9        0.000146368333     0.000019732642     0.000095650716
      10        0.000039385462     0.000004467742    -0.000012393199
      11        0.000022373972     0.000010336860    -0.000137358293
      12       -0.000011903388     0.000000505075     0.000009889579
      13       -0.000028442632     0.000000626121     0.000027037477

  **** Optimization is complete! (in 5 steps) ****
    Final optimized geometry and variables:
    Molecular point group: c1

    Geometry (in Angstrom), charge = 0, multiplicity = 1:

    H           -4.353682907682    -0.677376272830    -0.148968141583
    O           -3.965225139215     0.180051644975    -0.151555949313
    C           -2.603851092335     0.093660121772    -0.101082717558
    C           -1.952636626923     0.281255110678     1.101900232837
    C           -1.876305841221    -0.137306576708    -1.251896108333
    H           -2.528109839516     0.471609617454     1.986374078274
    C           -0.573164913597     0.233831426911     1.157886554401
    H           -2.390493089042    -0.265388916911    -2.184526299162
    C           -0.496657173050    -0.189760950857    -1.200892263958
    H           -0.066490888728     0.380948826883     2.090119481306
    C            0.145458775121    -0.004371490980     0.005185042845
    H            0.068665829282    -0.368647132016    -2.092953442288
    BR           2.040742060319    -0.072798771067     0.079114798211

  Mulliken Charges: (a.u.)
   Center  Symbol    Alpha    Beta     Spin     Total
       1     H     0.38700  0.38700  0.00000  0.22601
       2     O     4.18868  4.18868  0.00000 -0.37736
       3     C     2.88125  2.88125  0.00000  0.23750
       4     C     3.09109  3.09109  0.00000 -0.18217
       5     C     3.09578  3.09578  0.00000 -0.19156
       6     H     0.41314  0.41314  0.00000  0.17372
       7     C     3.08861  3.08861  0.00000 -0.17722
       8     H     0.41444  0.41444  0.00000  0.17111
       9     C     3.08920  3.08920  0.00000 -0.17841
      10     H     0.41003  0.41003  0.00000  0.17994
      11     C     2.96668  2.96668  0.00000  0.06664
      12     H     0.41008  0.41008  0.00000  0.17984
      13    BR    17.56402 17.56402  0.00000 -0.12804

   Total alpha = 42.00000, Total beta = 42.00000, Total charge = -0.00000

*** Psi4 exiting successfully. Buy a developer a beer!
