  ==> Input File <==

--------------------------------------------------------------------------
set {
	reference rhf
	basis 6-31G*
}

set_num_threads( 1 )
memory 2 gb

molecule MOL {
0 1

H	 -3.420663	 1.227371	 -1.044276
O	 -3.452007	 0.283848	 -0.965577
C	 -3.181085	 -0.079926	 0.364119
C	 -1.765924	 0.277073	 0.805136
H	 -3.327791	 -1.152017	 0.410903
H	 -3.905698	 0.375695	 1.036898
C	 -0.677594	 -0.417312	 -0.014550
H	 -1.637766	 1.358238	 0.744969
H	 -1.659588	 0.017670	 1.857098
C	 0.738335	 -0.034840	 0.421385
H	 -0.814977	 -0.178223	 -1.064632
H	 -0.802730	 -1.495410	 0.071702
C	 1.822265	 -0.738362	 -0.399735
H	 0.853533	 1.043532	 0.342250
H	 0.871597	 -0.279636	 1.474438
C	 3.183260	 -0.850719	 0.296845
H	 1.947342	 -0.220067	 -1.349167
H	 1.476958	 -1.740450	 -0.645499
C	 3.884191	 0.486712	 0.542564
H	 3.831102	 -1.476369	 -0.312378
H	 3.060700	 -1.373443	 1.243388
H	 4.009235	 1.037806	 -0.385767
H	 4.870528	 0.332320	 0.969342
H	 3.328502	 1.116821	 1.229104

	symmetry c1
}
set optking {
	frozen_dihedral = ("
		20 16 13 17,
		13 10 7 11,
		11 7 4 3,
		1 2 3 5,
		7 4 3 2
	")
}

ee = energy('scf')
oeprop('DIPOLE', 'QUADRUPOLE', 'MULLIKEN_CHARGES')
f=open( 'psi4out.xyz', 'w' )
f.write( "24  " )
f.write( str(ee) + "\n" )
f.write( MOL.save_string_xyz() )
f.close()
--------------------------------------------------------------------------

    Molecular point group: c1

    Geometry (in Angstrom), charge = 0, multiplicity = 1:

       Center              X                  Y                   Z               Mass
    ------------   -----------------  -----------------  -----------------  -----------------
           H         -3.434226767722     1.340749536723    -1.159321056808     1.007825032070
           O         -3.465570767722     0.397226536723    -1.080622056808    15.994914619560
           C         -3.194648767722     0.033452536723     0.249073943192    12.000000000000
           C         -1.779487767722     0.390451536723     0.690090943192    12.000000000000
           H         -3.341354767722    -1.038638463277     0.295857943192     1.007825032070
           H         -3.919261767722     0.489073536723     0.921852943192     1.007825032070
           C         -0.691157767722    -0.303933463277    -0.129595056808    12.000000000000
           H         -1.651329767722     1.471616536723     0.629923943192     1.007825032070
           H         -1.673151767722     0.131048536723     1.742052943192     1.007825032070
           C          0.724771232278     0.078538536723     0.306339943192    12.000000000000
           H         -0.828540767722    -0.064844463277    -1.179677056808     1.007825032070
           H         -0.816293767722    -1.382031463277    -0.043343056808     1.007825032070
           C          1.808701232278    -0.624983463277    -0.514780056808    12.000000000000
           H          0.839969232278     1.156910536723     0.227204943192     1.007825032070
           H          0.858033232278    -0.166257463277     1.359392943192     1.007825032070
           C          3.169696232278    -0.737340463277     0.181799943192    12.000000000000
           H          1.933778232278    -0.106688463277    -1.464212056808     1.007825032070
           H          1.463394232278    -1.627071463277    -0.760544056808     1.007825032070
           C          3.870627232278     0.600090536723     0.427518943192    12.000000000000
           H          3.817538232278    -1.362990463277    -0.427423056808     1.007825032070
           H          3.047136232278    -1.260064463277     1.128342943192     1.007825032070
           H          3.995671232278     1.151184536723    -0.500812056808     1.007825032070
           H          4.856964232278     0.445698536723     0.854296943192     1.007825032070
           H          3.314938232278     1.230199536723     1.114058943192     1.007825032070

  Charge       = 0
  Multiplicity = 1
  Basis Set: 6-31G*
  Basis Set:

    Orbital Energies (a.u.)
    -----------------------

    Doubly Occupied:

       1A    -20.553573     2A    -11.267743     3A    -11.217384
       4A    -11.214046     5A    -11.212223     6A    -11.211348
       7A    -11.211047     8A    -11.207369     9A     -1.360169
      10A     -1.088591    11A     -1.048240    12A     -0.985665
      13A     -0.914730    14A     -0.850433    15A     -0.801426
      16A     -0.775964    17A     -0.679394    18A     -0.652696
      19A     -0.626295    20A     -0.618908    21A     -0.593650
      22A     -0.589129    23A     -0.553835    24A     -0.543457
      25A     -0.516226    26A     -0.505900    27A     -0.500987
      28A     -0.473594    29A     -0.467870    30A     -0.459282
      31A     -0.452911    32A     -0.451452    33A     -0.419027

  @DF-RHF Final Energy:  -349.24633723383965

   => Energetics <=

    Nuclear Repulsion Energy =            384.1649462773217465
    One-Electron Energy =               -1234.7732998763381147
    Two-Electron Energy =                 501.3620163651763733
    DFT Exchange-Correlation Energy =       0.0000000000000000
    Empirical Dispersion Energy =           0.0000000000000000
    PCM Polarization Energy =               0.0000000000000000
    EFP Energy =                            0.0000000000000000
    Total Energy =                       -349.2463372338399950

  Mulliken Charges: (a.u.)
   Center  Symbol    Alpha    Beta     Spin     Total
       1     H     0.28338  0.28338  0.00000  0.43324
       2     O     4.36830  4.36830  0.00000 -0.73659
       3     C     2.99619  2.99619  0.00000  0.00762
       4     C     3.16918  3.16918  0.00000 -0.33836
       5     H     0.41636  0.41636  0.00000  0.16727
       6     H     0.42817  0.42817  0.00000  0.14367
       7     C     3.15283  3.15283  0.00000 -0.30567
       8     H     0.42831  0.42831  0.00000  0.14338
       9     H     0.42233  0.42233  0.00000  0.15535
      10     C     3.15345  3.15345  0.00000 -0.30690
      11     H     0.41192  0.41192  0.00000  0.17616
      12     H     0.42338  0.42338  0.00000  0.15323
      13     C     3.15305  3.15305  0.00000 -0.30610
      14     H     0.42271  0.42271  0.00000  0.15458
      15     H     0.42510  0.42510  0.00000  0.14980
      16     C     3.15280  3.15280  0.00000 -0.30560
      17     H     0.42298  0.42298  0.00000  0.15403
      18     H     0.42118  0.42118  0.00000  0.15763
      19     C     3.24083  3.24083  0.00000 -0.48166
      20     H     0.42149  0.42149  0.00000  0.15703
      21     H     0.42368  0.42368  0.00000  0.15264
      22     H     0.42241  0.42241  0.00000  0.15519
      23     H     0.41971  0.41971  0.00000  0.16058
      24     H     0.42026  0.42026  0.00000  0.15949

   Total alpha = 33.00000, Total beta = 33.00000, Total charge = -0.00000
