  ==> Input File <==

--------------------------------------------------------------------------
set {
	reference rhf
	basis 6-31G*
}

set_num_threads( 4 )
memory 2 gb

molecule MOL {
0 1

H	 -4.031818	 -0.453427	 -0.000094
C	 -2.967712	 -0.297022	 -0.000064
C	 -2.458620	 0.992929	 0.000032
C	 -2.109895	 -1.385637	 -0.000122
H	 -3.124998	 1.836319	 0.000077
C	 -1.090278	 1.193236	 0.000070
H	 -2.506361	 -2.384847	 -0.000198
C	 -0.739812	 -1.187531	 -0.000085
H	 -0.678594	 2.184290	 0.000146
C	 -0.226438	 0.104061	 0.000012
H	 -0.072310	 -2.027032	 -0.000131
C	 1.239129	 0.373821	 0.000060
O	 1.966927	 -0.712529	 0.211616
O	 1.717577	 1.451110	 -0.171395
C	 3.373710	 -0.547080	 0.227742
H	 3.720824	 -0.166932	 -0.721886
H	 3.782774	 -1.528326	 0.411249
H	 3.665522	 0.134615	 1.013272

	symmetry c1
}
set optking {
	frozen_dihedral = ("
		13 12 10 6
	")
}

ee = optimize('scf')
oeprop('DIPOLE', 'QUADRUPOLE', 'MULLIKEN_CHARGES')
f=open( 'psi4out.xyz', 'w' )
f.write( "18  " )
f.write( str(ee) + "\n" )
f.write( MOL.save_string_xyz() )
f.close()
--------------------------------------------------------------------------

    Molecular point group: c1
  Charge       = 0
  Multiplicity = 1
  Basis Set: 6-31G*
  Basis Set:
  @DF-RHF Final Energy:  -457.35038568862751
    Total Energy =                       -457.3503856886279664
    Molecular point group: c1
  Basis Set: 6-31G*
  Basis Set:
  Basis Set: 6-31G*
  Basis Set:
  @DF-RHF Final Energy:  -457.35002980659789
    Total Energy =                       -457.3500298065985135
  Basis Set: 6-31G*
  Basis Set:
  Basis Set: 6-31G*
  Basis Set:
  @DF-RHF Final Energy:  -457.35040960592460
    Total Energy =                       -457.3504096059242556
  Basis Set: 6-31G*
  Basis Set:
  Basis Set: 6-31G*
  Basis Set:
  @DF-RHF Final Energy:  -457.35041466015042
    Total Energy =                       -457.3504146601503635
  Basis Set: 6-31G*
  Basis Set:
  Charge       = 0
  Multiplicity = 1
  Basis Set: 6-31G*
  Basis Set:

    Orbital Energies (a.u.)
    -----------------------

    Doubly Occupied:

       1A    -20.607765     2A    -20.544570     3A    -11.377912
       4A    -11.282972     5A    -11.245701     6A    -11.245170
       7A    -11.244203     8A    -11.241825     9A    -11.237565
      10A    -11.236810    11A     -1.472861    12A     -1.363992
      13A     -1.165363    14A     -1.048163    15A     -1.024875
      16A     -0.978187    17A     -0.860202    18A     -0.834483
      19A     -0.777838    20A     -0.739827    21A     -0.683368
      22A     -0.677483    23A     -0.672096    24A     -0.631039
      25A     -0.624168    26A     -0.597762    27A     -0.584961
      28A     -0.560977    29A     -0.529574    30A     -0.516596
      31A     -0.503616    32A     -0.499157    33A     -0.459122
      34A     -0.444439    35A     -0.344797    36A     -0.341057

  @DF-RHF Final Energy:  -457.35041482926073

   => Energetics <=

    Nuclear Repulsion Energy =            492.9968677726549799
    One-Electron Energy =               -1600.2935742212712285
    Two-Electron Energy =                 649.9462916193557476
    DFT Exchange-Correlation Energy =       0.0000000000000000
    Empirical Dispersion Energy =           0.0000000000000000
    PCM Polarization Energy =               0.0000000000000000
    EFP Energy =                            0.0000000000000000
    Total Energy =                       -457.3504148292605578
    Molecular point group: c1
  Basis Set: 6-31G*
  Basis Set:

  -Total Gradient:
     Atom            X                  Y                   Z
    ------   -----------------  -----------------  -----------------
       1       -0.000001081107     0.000000566309     0.000005295434
       2        0.000000405941    -0.000003928403    -0.000016530481
       3        0.000003124913     0.000003396166     0.000010061791
       4       -0.000003469272     0.000000976792    -0.000003234868
       5        0.000000271330    -0.000000560276    -0.000003637906
       6       -0.000005122755    -0.000002530252     0.001235841302
       7        0.000000603301    -0.000000214177     0.000002034222
       8        0.000003687890     0.000000342334     0.000017135766
       9        0.000001320441    -0.000000278263     0.000003939391
      10        0.000002920610     0.000073278328    -0.001342685445
      11       -0.000000693351     0.000001223323    -0.000015979827
      12        0.000057508275    -0.000277469959    -0.001129459305
      13       -0.000047996928     0.000201692905     0.001262434420
      14       -0.000009087023     0.000006463949    -0.000002239404
      15        0.000000297875    -0.000007822494    -0.000063230876
      16        0.000009551239    -0.000004137087     0.000016431927
      17       -0.000000914120     0.000000387607     0.000010960367
      18       -0.000011327272     0.000008613195     0.000012863491

  **** Optimization is complete! (in 5 steps) ****
    Final optimized geometry and variables:
    Molecular point group: c1

    Geometry (in Angstrom), charge = 0, multiplicity = 1:

    H           -4.030613264164    -0.457668271734    -0.026617667183
    C           -2.966641764080    -0.300687338292    -0.029496867725
    C           -2.458232378342     0.989528631364    -0.030894750122
    C           -2.108279089370    -1.388884117786    -0.030159249966
    H           -3.125031212868     1.832623205299    -0.027567394186
    C           -1.090009410603     1.190656386145    -0.037086334300
    H           -2.504259205167    -2.388268633522    -0.028672457997
    C           -0.738331822171    -1.189911046444    -0.029270754726
    H           -0.679150753303     2.182076288788    -0.042814224397
    C           -0.225819540381     0.101910748131    -0.038440121709
    H           -0.070369618805    -2.029130258792    -0.023442971203
    C            1.239778492425     0.371896311357    -0.031982738271
    O            1.966100351967    -0.715646252826     0.177835182176
    O            1.718282172906     1.452168252770    -0.183369983800
    C            3.372960981228    -0.551658546615     0.196022910305
    H            3.721996756995    -0.164990784768    -0.750357528240
    H            3.780768928131    -1.534518991225     0.373341431203
    H            3.664240727323     0.124118498971     0.986750009579

  Mulliken Charges: (a.u.)
   Center  Symbol    Alpha    Beta     Spin     Total
       1     H     0.39542  0.39542  0.00000  0.20917
       2     C     3.09015  3.09015  0.00000 -0.18030
       3     C     3.10696  3.10696  0.00000 -0.21391
       4     C     3.10710  3.10710  0.00000 -0.21420
       5     H     0.39537  0.39537  0.00000  0.20926
       6     C     3.08696  3.08696  0.00000 -0.17392
       7     H     0.39624  0.39624  0.00000  0.20752
       8     C     3.08734  3.08734  0.00000 -0.17468
       9     H     0.37634  0.37634  0.00000  0.24732
      10     C     3.07394  3.07394  0.00000 -0.14787
      11     H     0.38087  0.38087  0.00000  0.23826
      12     C     2.58273  2.58273  0.00000  0.83454
      13     O     4.31368  4.31368  0.00000 -0.62737
      14     O     4.29145  4.29145  0.00000 -0.58290
      15     C     3.09269  3.09269  0.00000 -0.18539
      16     H     0.40762  0.40762  0.00000  0.18476
      17     H     0.40791  0.40791  0.00000  0.18417
      18     H     0.40723  0.40723  0.00000  0.18553

   Total alpha = 36.00000, Total beta = 36.00000, Total charge = -0.00000
