  ==> Input File <==

--------------------------------------------------------------------------
set {
	reference rhf
	basis cc-pvtz
}

set_num_threads( 4 )
memory 2 gb

molecule MOL {
0 1

H	 -1.046410	 -0.852095	 -1.007676
O	 -1.432053	 -0.565244	 -0.200812
C	 -0.727158	 0.534527	 0.310686
C	 0.680222	 0.664433	 -0.252229
H	 -1.306802	 1.408001	 0.044211
H	 -0.690821	 0.490158	 1.397609
C	 1.605391	 -0.489360	 0.123098
H	 0.615089	 0.745647	 -1.332226
H	 1.101414	 1.597893	 0.110950
H	 1.247627	 -1.432485	 -0.275204
H	 2.601435	 -0.332816	 -0.273062
H	 1.691776	 -0.589902	 1.200774

	symmetry c1
}
set optking {
	frozen_dihedral = ("
		1 2 3 4
	")
}

ee = optimize('scf')
oeprop('DIPOLE', 'QUADRUPOLE', 'MULLIKEN_CHARGES')
f=open( 'psi4out.xyz', 'w' )
f.write( "12  " )
f.write( str(ee) + "\n" )
f.write( MOL.save_string_xyz() )
f.close()
--------------------------------------------------------------------------

    Molecular point group: c1
  Charge       = 0
  Multiplicity = 1
  Basis Set: CC-PVTZ
  Basis Set:
  @DF-RHF Final Energy:  -193.18791218585986
    Total Energy =                       -193.1879121858599149
    Molecular point group: c1
  Basis Set: CC-PVTZ
  Basis Set:
  Basis Set: CC-PVTZ
  Basis Set:
  @DF-RHF Final Energy:  -193.18859977019108
    Total Energy =                       -193.1885997701910469
  Basis Set: CC-PVTZ
  Basis Set:
  Basis Set: CC-PVTZ
  Basis Set:
  @DF-RHF Final Energy:  -193.18888807120112
    Total Energy =                       -193.1888880712010632
  Basis Set: CC-PVTZ
  Basis Set:
  Basis Set: CC-PVTZ
  Basis Set:
  @DF-RHF Final Energy:  -193.18889194433294
    Total Energy =                       -193.1888919443329371
  Basis Set: CC-PVTZ
  Basis Set:
  Basis Set: CC-PVTZ
  Basis Set:
  @DF-RHF Final Energy:  -193.18889426909072
    Total Energy =                       -193.1888942690906674
  Basis Set: CC-PVTZ
  Basis Set:
  Charge       = 0
  Multiplicity = 1
  Basis Set: CC-PVTZ
  Basis Set:

    Orbital Energies (a.u.)
    -----------------------

    Doubly Occupied:

       1A    -20.544269     2A    -11.265591     3A    -11.224651
       4A    -11.214492     5A     -1.362674     6A     -1.054485
       7A     -0.927311     8A     -0.820821     9A     -0.664561
      10A     -0.645806    11A     -0.638900    12A     -0.573336
      13A     -0.547454    14A     -0.513575    15A     -0.491598
      16A     -0.466978    17A     -0.434343

  @DF-RHF Final Energy:  -193.18889436090049

   => Energetics <=

    Nuclear Repulsion Energy =            133.2599836496498540
    One-Electron Energy =                -526.1160664312428707
    Two-Electron Energy =                 199.6671884206923551
    DFT Exchange-Correlation Energy =       0.0000000000000000
    Empirical Dispersion Energy =           0.0000000000000000
    PCM Polarization Energy =               0.0000000000000000
    EFP Energy =                            0.0000000000000000
    Total Energy =                       -193.1888943609006901
    Molecular point group: c1
  Basis Set: CC-PVTZ
  Basis Set:

  -Total Gradient:
     Atom            X                  Y                   Z
    ------   -----------------  -----------------  -----------------
       1        0.001238198076    -0.001288808766     0.001074116954
       2       -0.001734606118     0.001903242572    -0.001765731641
       3        0.000940046505    -0.001385028823     0.001674191783
       4       -0.000452253239     0.000751784922    -0.000980212703
       5        0.000007141744    -0.000001246522     0.000000020153
       6       -0.000000833356     0.000010411619     0.000005654607
       7        0.000000029712     0.000004139116    -0.000002428354
       8        0.000002184073     0.000000153305    -0.000000740194
       9        0.000010032878     0.000004320744    -0.000003632639
      10       -0.000006215827    -0.000002847773    -0.000003309815
      11       -0.000004651126     0.000002830977     0.000001522848
      12        0.000000926679     0.000001048628     0.000000549001

  **** Optimization is complete! (in 6 steps) ****
    Final optimized geometry and variables:
    Molecular point group: c1

    Geometry (in Angstrom), charge = 0, multiplicity = 1:

    H           -1.046889186949    -0.875261954355    -0.987883055289
    O           -1.434181277661    -0.578082393281    -0.185898448899
    C           -0.730235619593     0.527102859720     0.320454694193
    C            0.681070445369     0.658172494779    -0.229925078106
    H           -1.285035368494     1.434135684383     0.098660729441
    H           -0.701283818478     0.419618790144     1.398800218394
    C            1.605954045916    -0.494977999748     0.150325022766
    H            0.628969752119     0.751845980884    -1.312934340113
    H            1.096992164064     1.592511540580     0.133739631380
    H            1.225750248588    -1.447349066468    -0.199860072330
    H            2.592810528379    -0.356403881948    -0.275177160568
    H            1.713764925039    -0.563762351626     1.227182413793

  Mulliken Charges: (a.u.)
   Center  Symbol    Alpha    Beta     Spin     Total
       1     H     0.39288  0.39288  0.00000  0.21425
       2     O     4.20708  4.20708  0.00000 -0.41416
       3     C     2.95493  2.95493  0.00000  0.09013
       4     C     3.10509  3.10509  0.00000 -0.21018
       5     H     0.46583  0.46583  0.00000  0.06834
       6     H     0.46870  0.46870  0.00000  0.06260
       7     C     3.14248  3.14248  0.00000 -0.28496
       8     H     0.45563  0.45563  0.00000  0.08874
       9     H     0.45072  0.45072  0.00000  0.09855
      10     H     0.45502  0.45502  0.00000  0.08996
      11     H     0.44854  0.44854  0.00000  0.10293
      12     H     0.45310  0.45310  0.00000  0.09380

   Total alpha = 17.00000, Total beta = 17.00000, Total charge = -0.00000
