  ==> Input File <==

--------------------------------------------------------------------------
set {
	reference rhf
	basis 6-31G*
}

set_num_threads( 4 )
memory 2 gb

molecule MOL {
0 1

H	 -1.616783	 -0.152954	 -0.983432
N	 -1.172117	 -0.314371	 -0.100254
C	 -0.024542	 0.565565	 0.069209
H	 -1.859158	 -0.134954	 0.607462
C	 1.271298	 -0.229563	 -0.014192
H	 -0.049409	 1.297310	 -0.731596
H	 -0.046881	 1.125219	 1.006750
H	 1.332152	 -0.753033	 -0.961461
H	 2.134169	 0.422483	 0.080702
H	 1.326077	 -0.968298	 0.781395

	symmetry c1
}
set optking {
	frozen_dihedral = ("
		1 2 3 6
	")
}

ee = optimize('scf')
oeprop('DIPOLE', 'QUADRUPOLE', 'MULLIKEN_CHARGES')
f=open( 'psi4out.xyz', 'w' )
f.write( "10  " )
f.write( str(ee) + "\n" )
f.write( MOL.save_string_xyz() )
f.close()
--------------------------------------------------------------------------

    Molecular point group: c1
  Charge       = 0
  Multiplicity = 1
  Basis Set: 6-31G*
  Basis Set:
  @DF-RHF Final Energy:  -134.24327238214579
    Total Energy =                       -134.2432723821457614
    Molecular point group: c1
  Basis Set: 6-31G*
  Basis Set:
  Basis Set: 6-31G*
  Basis Set:
  @DF-RHF Final Energy:  -134.24413115106870
    Total Energy =                       -134.2441311510686432
  Basis Set: 6-31G*
  Basis Set:
  Basis Set: 6-31G*
  Basis Set:
  @DF-RHF Final Energy:  -134.24436682668590
    Total Energy =                       -134.2443668266858765
  Basis Set: 6-31G*
  Basis Set:
  Basis Set: 6-31G*
  Basis Set:
  @DF-RHF Final Energy:  -134.24436875088659
    Total Energy =                       -134.2443687508865935
  Basis Set: 6-31G*
  Basis Set:
  Charge       = 0
  Multiplicity = 1
  Basis Set: 6-31G*
  Basis Set:

    Orbital Energies (a.u.)
    -----------------------

    Doubly Occupied:

       1A    -15.531557     2A    -11.243215     3A    -11.199394
       4A     -1.172715     5A     -0.985115     6A     -0.819761
       7A     -0.671162     8A     -0.622736     9A     -0.568442
      10A     -0.523888    11A     -0.509133    12A     -0.477422
      13A     -0.380098

  @DF-RHF Final Energy:  -134.24436907870091

   => Energetics <=

    Nuclear Repulsion Energy =             83.0225592099331493
    One-Electron Energy =                -345.1245796429589063
    Two-Electron Energy =                 127.8576513543248723
    DFT Exchange-Correlation Energy =       0.0000000000000000
    Empirical Dispersion Energy =           0.0000000000000000
    PCM Polarization Energy =               0.0000000000000000
    EFP Energy =                            0.0000000000000000
    Total Energy =                       -134.2443690787008848
    Molecular point group: c1
  Basis Set: 6-31G*
  Basis Set:

  -Total Gradient:
     Atom            X                  Y                   Z
    ------   -----------------  -----------------  -----------------
       1       -0.000842826425     0.001030367289     0.000642705896
       2        0.001244379300    -0.001507872232    -0.001025198140
       3       -0.001110706443     0.001288428066     0.001171323728
       4       -0.000017237050    -0.000007487284     0.000006181093
       5       -0.000007415053     0.000023374337    -0.000000700166
       6        0.000726959951    -0.000838660063    -0.000797013196
       7        0.000014181832     0.000004123154     0.000007343110
       8       -0.000002014467     0.000000884804     0.000000338825
       9        0.000003426125    -0.000002828375    -0.000005218152
      10       -0.000008747770     0.000009670303     0.000000237002

  **** Optimization is complete! (in 5 steps) ****
    Final optimized geometry and variables:
    Molecular point group: c1

    Geometry (in Angstrom), charge = 0, multiplicity = 1:

    H           -1.649608114452    -0.169890210733    -0.938067375641
    N           -1.177730180675    -0.323661826539    -0.069928928369
    C           -0.015395129305     0.555266818371     0.069840216032
    H           -1.847859624605    -0.158272492478     0.653458213740
    C            1.284196671910    -0.239647631499     0.011370825310
    H           -0.001926369507     1.312593989477    -0.711023336645
    H           -0.069432875496     1.087061918971     1.014950961938
    H            1.365398353642    -0.767027383438    -0.933694471260
    H            2.147791215373     0.412683470019     0.113821243527
    H            1.312030465533    -0.978102092764     0.805205832506

  Mulliken Charges: (a.u.)
   Center  Symbol    Alpha    Beta     Spin     Total
       1     H     0.33195  0.33195  0.00000  0.33611
       2     N     3.92442  3.92442  0.00000 -0.84883
       3     C     3.06926  3.06926  0.00000 -0.13852
       4     H     0.33145  0.33145  0.00000  0.33711
       5     C     3.22475  3.22475  0.00000 -0.44950
       6     H     0.42690  0.42690  0.00000  0.14619
       7     H     0.42388  0.42388  0.00000  0.15223
       8     H     0.42087  0.42087  0.00000  0.15826
       9     H     0.42849  0.42849  0.00000  0.14303
      10     H     0.41803  0.41803  0.00000  0.16394

   Total alpha = 13.00000, Total beta = 13.00000, Total charge = -0.00000
