                              Psi4 1.0.54 Driver

  ==> Input File <==

--------------------------------------------------------------------------
set {
	reference rhf
	basis cc-pvtz
}

set_num_threads( 4 )
memory 2 gb

molecule MOL {
0 1

H	 -2.853862	 -0.331946	 0.038977
N	 -1.903401	 -0.201448	 0.312227
C	 -1.244029	 0.768544	 -0.542457
H	 -1.445245	 -1.085328	 0.242612
C	 0.197294	 0.949714	 -0.124829
H	 -1.264739	 0.500788	 -1.598119
H	 -1.749239	 1.722539	 -0.438980
O	 0.881195	 -0.248324	 -0.336237
H	 0.653356	 1.748645	 -0.707830
H	 0.241249	 1.226710	 0.926013
C	 2.208068	 -0.234417	 0.074171
H	 2.725499	 -1.027054	 -0.446768
H	 2.688377	 0.712084	 -0.164856
H	 2.295137	 -0.403407	 1.144883

	symmetry c1
}
set optking {
	frozen_dihedral = ("
		5 8 11 13
	")
}

ee,wfn = optimize('scf', return_wfn=True)
oeprop( wfn, 'DIPOLE', 'QUADRUPOLE', 'MULLIKEN_CHARGES')
f=open( 'psi4out.xyz', 'w' )
f.write( "14  " )
f.write( str(ee) + "\n" )
f.write( MOL.save_string_xyz() )
f.close()
--------------------------------------------------------------------------

    Molecular point group: c1
  Charge       = 0
  Multiplicity = 1
  Basis Set: CC-PVTZ
  Basis Set:
  @DF-RHF Final Energy:  -248.22522292020824
    Total Energy =                       -248.2252229202083527
    Molecular point group: c1
  Basis Set: CC-PVTZ
  Basis Set:
  Basis Set: CC-PVTZ
  Basis Set:
  @DF-RHF Final Energy:  -248.22526156734099
    Total Energy =                       -248.2252615673411356
  Basis Set: CC-PVTZ
  Basis Set:
  Charge       = 0
  Multiplicity = 1
  Basis Set: CC-PVTZ
  Basis Set:

    Orbital Energies (a.u.)
    -----------------------

    Doubly Occupied:

       1A    -20.549839     2A    -15.523506     3A    -11.264106
       4A    -11.263553     5A    -11.239783     6A     -1.383387
       7A     -1.175956     8A     -1.000531     9A     -0.907726
      10A     -0.815792    11A     -0.685392    12A     -0.675131
      13A     -0.646896    14A     -0.612116    15A     -0.607176
      16A     -0.542193    17A     -0.531547    18A     -0.498028
      19A     -0.474681    20A     -0.418345    21A     -0.383874

  @DF-RHF Final Energy:  -248.22527108663022

   => Energetics <=

    Nuclear Repulsion Energy =            194.6390026298539340
    One-Electron Energy =                -723.3294316020517272
    Two-Electron Energy =                 280.4651578855674074
    DFT Exchange-Correlation Energy =       0.0000000000000000
    Empirical Dispersion Energy =           0.0000000000000000
    PCM Polarization Energy =               0.0000000000000000
    EFP Energy =                            0.0000000000000000
    Total Energy =                       -248.2252710866303573
    Molecular point group: c1
  Basis Set: CC-PVTZ
  Basis Set:

  -Total Gradient:
     Atom            X                  Y                   Z
    ------   -----------------  -----------------  -----------------
       1        0.000004549526    -0.000012565031     0.000002017351
       2       -0.000032204638     0.000002715696     0.000003123856
       3        0.000060491489    -0.000071428086     0.000013274635
       4        0.000001449138     0.000001122832    -0.000005301136
       5        0.000531205836     0.000727895781    -0.001783321141
       6       -0.000002365057    -0.000000224097    -0.000006923160
       7        0.000040977288     0.000002464860     0.000014762821
       8       -0.001048983395    -0.000692387291     0.003126989103
       9        0.000000331614    -0.000003976577    -0.000001877997
      10       -0.000006551855    -0.000003837624    -0.000000189137
      11        0.001033850554    -0.000757579530    -0.003498833332
      12        0.000029633797    -0.000038513063    -0.000028389006
      13       -0.000632145012     0.000834740824     0.002219818383
      14        0.000019760719     0.000011571309    -0.000055151240

  **** Optimization is complete! (in 3 steps) ****
    Final optimized geometry and variables:
    Molecular point group: c1

    Geometry (in Angstrom), charge = 0, multiplicity = 1:

    H           -2.886436239987    -0.527126548269     0.180417699708
    N           -1.934037172763    -0.395339905786     0.446128204031
    C           -1.284334983049     0.580150619674    -0.409663797783
    H           -1.474392030794    -1.277739699241     0.368177516042
    C            0.159227523042     0.765526705592    -0.002137282672
    H           -1.311187586049     0.315778046441    -1.466081493330
    H           -1.792174531533     1.532035567403    -0.299554251621
    O            0.845145744630    -0.429515889677    -0.225393364489
    H            0.608882895169     1.567040794733    -0.585683830037
    H            0.207864485781     1.039752215377     1.049414887678
    C            2.174862639123    -0.425755838833     0.181584066667
    H            2.689943970368    -1.223880754183    -0.333561036412
    H            2.660215622984     0.519629010965    -0.047100400433
    H            2.257141972415    -0.589116187404     1.253620178639

  Mulliken Charges: (a.u.)
   Center  Symbol    Alpha    Beta     Spin     Total
       1     H     0.43025  0.43025  0.00000  0.13951
       2     N     3.69416  3.69416  0.00000 -0.38833
       3     C     3.02285  3.02285  0.00000 -0.04570
       4     H     0.42241  0.42241  0.00000  0.15518
       5     C     2.96860  2.96860  0.00000  0.06280
       6     H     0.46463  0.46463  0.00000  0.07075
       7     H     0.45870  0.45870  0.00000  0.08259
       8     O     4.18114  4.18114  0.00000 -0.36227
       9     H     0.46867  0.46867  0.00000  0.06267
      10     H     0.46975  0.46975  0.00000  0.06049
      11     C     3.03091  3.03091  0.00000 -0.06182
      12     H     0.44949  0.44949  0.00000  0.10103
      13     H     0.47282  0.47282  0.00000  0.05436
      14     H     0.46563  0.46563  0.00000  0.06874

   Total alpha = 21.00000, Total beta = 21.00000, Total charge = -0.00000

*** Psi4 exiting successfully. Buy a developer a beer!
