  ==> Input File <==

--------------------------------------------------------------------------
set {
	reference rhf
	basis 6-31G*
}

set_num_threads( 4 )
memory 2 gb

molecule MOL {
0 1

H	 -1.108549	 -0.811529	 0.336520
N	 -0.712432	 0.000013	 -0.096310
C	 0.734192	 -0.000004	 0.040609
H	 -1.110868	 0.796916	 0.360913
H	 1.139899	 -0.873598	 -0.456463
H	 1.139939	 0.873831	 -0.456100
H	 1.096456	 -0.000300	 1.069655

	symmetry c1
}
set optking {
	frozen_dihedral = ("
		1 2 3 7
	")
}

ee = optimize('scf')
oeprop('DIPOLE', 'QUADRUPOLE', 'MULLIKEN_CHARGES')
f=open( 'psi4out.xyz', 'w' )
f.write( "7  " )
f.write( str(ee) + "\n" )
f.write( MOL.save_string_xyz() )
f.close()
--------------------------------------------------------------------------

    Molecular point group: c1
  Charge       = 0
  Multiplicity = 1
  Basis Set: 6-31G*
  Basis Set:
  @DF-RHF Final Energy:   -95.20979340094794
    Total Energy =                        -95.2097934009479303
    Molecular point group: c1
  Basis Set: 6-31G*
  Basis Set:
  Charge       = 0
  Multiplicity = 1
  Basis Set: 6-31G*
  Basis Set:

    Orbital Energies (a.u.)
    -----------------------

    Doubly Occupied:

       1A    -15.534840     2A    -11.237473     3A     -1.170896
       4A     -0.896588     5A     -0.664649     6A     -0.602911
       7A     -0.557157     8A     -0.517540     9A     -0.383713

  @DF-RHF Final Energy:   -95.20979355107336

   => Energetics <=

    Nuclear Repulsion Energy =             42.3343446548371816
    One-Electron Energy =                -211.9567430271458193
    Two-Electron Energy =                  74.4126048212352202
    DFT Exchange-Correlation Energy =       0.0000000000000000
    Empirical Dispersion Energy =           0.0000000000000000
    PCM Polarization Energy =               0.0000000000000000
    EFP Energy =                            0.0000000000000000
    Total Energy =                        -95.2097935510734033
    Molecular point group: c1
  Basis Set: 6-31G*
  Basis Set:

  -Total Gradient:
     Atom            X                  Y                   Z
    ------   -----------------  -----------------  -----------------
       1        0.000004822132    -0.000085243829    -0.000106421274
       2        0.000009335167     0.000138939993     0.000133674055
       3       -0.000003121666    -0.000182091847    -0.000039254063
       4       -0.000021882332     0.000019122751     0.000012365038
       5        0.000018989267    -0.000014881187    -0.000004531641
       6       -0.000002779432    -0.000002093901     0.000000055316
       7       -0.000005363137     0.000126248021     0.000004112569

  **** Optimization is complete! (in 2 steps) ****
    Final optimized geometry and variables:
    Molecular point group: c1

    Geometry (in Angstrom), charge = 0, multiplicity = 1:

    H           -1.108562826732    -0.810966726325     0.336885342282
    N           -0.712465296571     0.000471967331    -0.096115380071
    C            0.734277461946     0.000393382287     0.040466841936
    H           -1.111109211135     0.797867456942     0.360036840899
    H            1.139824001368    -0.873008674061    -0.457126464273
    H            1.139767419330     0.874664948269    -0.455735830641
    H            1.096407056064     0.000201380263     1.069569114314

  Mulliken Charges: (a.u.)
   Center  Symbol    Alpha    Beta     Spin     Total
       1     H     0.33383  0.33383  0.00000  0.33235
       2     N     3.91675  3.91675  0.00000 -0.83351
       3     C     3.14780  3.14780  0.00000 -0.29560
       4     H     0.33381  0.33381  0.00000  0.33239
       5     H     0.41719  0.41719  0.00000  0.16562
       6     H     0.41710  0.41710  0.00000  0.16581
       7     H     0.43353  0.43353  0.00000  0.13294

   Total alpha =  9.00000, Total beta =  9.00000, Total charge =  0.00000
