                              Psi4 1.0.54 Driver

  ==> Input File <==

--------------------------------------------------------------------------
set {
	reference rhf
	basis cc-pvtz
}

set_num_threads( 4 )
memory 2 gb

molecule MOL {
0 1

H	 2.249768	 -0.563630	 0.094473
C	 1.735629	 -0.709913	 -0.864650
C	 0.446491	 0.048235	 -1.020000
O	 2.201465	 -1.425713	 -1.682122
C	 -0.554654	 -0.292621	 0.086567
H	 0.039115	 -0.164959	 -1.999504
H	 0.685383	 1.108851	 -0.976367
C	 -1.846385	 0.513195	 -0.016346
H	 -0.786401	 -1.353005	 0.043948
H	 -0.097716	 -0.115838	 1.056942
C	 -3.089953	 -0.365049	 -0.098564
H	 -1.798267	 1.154820	 -0.891143
H	 -1.925398	 1.173265	 0.842889
H	 -3.055079	 -1.012299	 -0.968245
H	 -3.988403	 0.236438	 -0.170014
H	 -3.183055	 -0.995885	 0.779079

	symmetry c1
}
set optking {
	frozen_dihedral = ("
		9 5 8 12
	")
}

ee,wfn = optimize('scf', return_wfn=True)
oeprop( wfn, 'DIPOLE', 'QUADRUPOLE', 'MULLIKEN_CHARGES')
f=open( 'psi4out.xyz', 'w' )
f.write( "16  " )
f.write( str(ee) + "\n" )
f.write( MOL.save_string_xyz() )
f.close()
--------------------------------------------------------------------------

    Molecular point group: c1
  Charge       = 0
  Multiplicity = 1
  Basis Set: CC-PVTZ
  Basis Set:
  @DF-RHF Final Energy:  -270.11323246862031
    Total Energy =                       -270.1132324686204242
    Molecular point group: c1
  Basis Set: CC-PVTZ
  Basis Set:
  Basis Set: CC-PVTZ
  Basis Set:
  @DF-RHF Final Energy:  -270.11347900239491
    Total Energy =                       -270.1134790023949108
  Basis Set: CC-PVTZ
  Basis Set:
  Basis Set: CC-PVTZ
  Basis Set:
  @DF-RHF Final Energy:  -270.11343480349865
    Total Energy =                       -270.1134348034984214
  Basis Set: CC-PVTZ
  Basis Set:
  Basis Set: CC-PVTZ
  Basis Set:
  @DF-RHF Final Energy:  -270.11354572170484
    Total Energy =                       -270.1135457217048952
  Basis Set: CC-PVTZ
  Basis Set:
  Basis Set: CC-PVTZ
  Basis Set:
  @DF-RHF Final Energy:  -270.11355111345063
    Total Energy =                       -270.1135511134508533
  Basis Set: CC-PVTZ
  Basis Set:
  Charge       = 0
  Multiplicity = 1
  Basis Set: CC-PVTZ
  Basis Set:

    Orbital Energies (a.u.)
    -----------------------

    Doubly Occupied:

       1A    -20.552150     2A    -11.321104     3A    -11.234824
       4A    -11.234056     5A    -11.227169     6A    -11.216511
       7A     -1.406829     8A     -1.095158     9A     -1.019243
      10A     -0.906593    11A     -0.813207    12A     -0.794662
      13A     -0.678120    14A     -0.651207    15A     -0.626458
      16A     -0.605480    17A     -0.588700    18A     -0.551246
      19A     -0.525357    20A     -0.517334    21A     -0.488555
      22A     -0.479748    23A     -0.474249    24A     -0.411117

  @DF-RHF Final Energy:  -270.11355162437428

   => Energetics <=

    Nuclear Repulsion Energy =            229.8269872299413521
    One-Electron Energy =                -821.0429332375128979
    Two-Electron Energy =                 321.1023943831974066
    DFT Exchange-Correlation Energy =       0.0000000000000000
    Empirical Dispersion Energy =           0.0000000000000000
    PCM Polarization Energy =               0.0000000000000000
    EFP Energy =                            0.0000000000000000
    Total Energy =                       -270.1135516243741677
    Molecular point group: c1
  Basis Set: CC-PVTZ
  Basis Set:

  -Total Gradient:
     Atom            X                  Y                   Z
    ------   -----------------  -----------------  -----------------
       1        0.000033645631    -0.000024272615     0.000006242126
       2       -0.000038191728     0.000012682871    -0.000019209065
       3       -0.000043030101     0.000000417753    -0.000035280758
       4        0.000001120158     0.000036456187     0.000032876209
       5        0.000353304872     0.000174593280    -0.001306630720
       6       -0.000004486089     0.000034212678    -0.000057483314
       7        0.000076414897     0.000004473308    -0.000022940231
       8       -0.000781118646    -0.000941964297    -0.000514175144
       9       -0.000143435552    -0.000006385496     0.001274423315
      10       -0.000066012746    -0.000009162800    -0.000008220235
      11       -0.000008490100    -0.000139595153    -0.000001988015
      12        0.000553762570     0.000888097611     0.000717027173
      13        0.000066961355     0.000012374594    -0.000049346122
      14       -0.000043266727    -0.000051713224    -0.000022033026
      15        0.000074844552     0.000033582381     0.000006085529
      16       -0.000032022345    -0.000023797076     0.000000652281

  **** Optimization is complete! (in 6 steps) ****
    Final optimized geometry and variables:
    Molecular point group: c1

    Geometry (in Angstrom), charge = 0, multiplicity = 1:

    H            2.450264600693    -0.170950393667     0.706982289784
    C            1.938209074848    -0.321523881005    -0.252642505904
    C            0.649482445363     0.435780497285    -0.414790986324
    O            2.405716895295    -1.041427287128    -1.065663208023
    C           -0.361173251639     0.087551587467     0.681735041252
    H            0.249085394878     0.227740195109    -1.398544993034
    H            0.885781066737     1.496574539562    -0.362934826080
    C           -1.673406638639     0.892857703746     0.577970343362
    H           -0.578643501338    -0.974543191849     0.638916141906
    H            0.096057539278     0.255663568228     1.651587141043
    C           -2.919388302420     0.016058011900     0.506002426963
    H           -1.637761252401     1.537710899919    -0.293606764551
    H           -1.757146075698     1.558461356606     1.429999844384
    H           -2.889118518867    -0.635141787560    -0.361141614439
    H           -3.817402659299     0.618935085891     0.438109154997
    H           -3.006738550524    -0.611442903434     1.386517901883

  Mulliken Charges: (a.u.)
   Center  Symbol    Alpha    Beta     Spin     Total
       1     H     0.46558  0.46558  0.00000  0.06883
       2     C     2.91002  2.91002  0.00000  0.17995
       3     C     3.07925  3.07925  0.00000 -0.15851
       4     O     4.16365  4.16365  0.00000 -0.32729
       5     C     3.10758  3.10758  0.00000 -0.21515
       6     H     0.44219  0.44219  0.00000  0.11563
       7     H     0.44892  0.44892  0.00000  0.10216
       8     C     3.08777  3.08777  0.00000 -0.17555
       9     H     0.44561  0.44561  0.00000  0.10879
      10     H     0.44736  0.44736  0.00000  0.10527
      11     C     3.14644  3.14644  0.00000 -0.29288
      12     H     0.45211  0.45211  0.00000  0.09578
      13     H     0.44895  0.44895  0.00000  0.10210
      14     H     0.45295  0.45295  0.00000  0.09410
      15     H     0.44818  0.44818  0.00000  0.10364
      16     H     0.45343  0.45343  0.00000  0.09313

   Total alpha = 24.00000, Total beta = 24.00000, Total charge =  0.00000

*** Psi4 exiting successfully. Buy a developer a beer!
