  ==> Input File <==

--------------------------------------------------------------------------
set {
	reference rhf
	basis 6-31G*
}

set_num_threads( 4 )
memory 2 gb

molecule MOL {
0 1

O	 3.217782	 1.341664	 0.583739
C	 2.698702	 0.273511	 0.635350
C	 1.245376	 -0.013843	 0.345420
O	 3.350386	 -0.834935	 0.964417
C	 0.455112	 1.231400	 -0.050772
H	 1.219457	 -0.775043	 -0.427299
H	 0.824435	 -0.478102	 1.233660
C	 -0.998893	 1.219485	 0.433193
H	 0.482531	 1.345121	 -1.130325
H	 0.957290	 2.103070	 0.354729
C	 -1.883438	 0.145884	 -0.207175
H	 -1.431207	 2.195402	 0.224832
H	 -1.019646	 1.105716	 1.516076
C	 -3.347647	 0.245583	 0.225435
H	 -1.822183	 0.231698	 -1.291012
H	 -1.510341	 -0.844814	 0.042401
C	 -4.239992	 -0.825570	 -0.404234
H	 -3.732888	 1.230466	 -0.033079
H	 -3.408585	 0.170602	 1.310038
C	 -5.701275	 -0.716658	 0.029921
H	 -4.179496	 -0.752714	 -1.488058
H	 -3.859041	 -1.810759	 -0.143352
H	 -6.308102	 -1.488908	 -0.432678
H	 -6.122175	 0.245478	 -0.248167
H	 -5.799072	 -0.820114	 1.106957
C	 4.728165	 -0.705301	 1.264089
H	 5.267566	 -0.317149	 0.412097
H	 5.072883	 -1.699155	 1.503737
H	 4.873376	 -0.045178	 2.107112

	symmetry c1
}
set optking {
	frozen_dihedral = ("
		6 3 5 9
	")
}

ee = optimize('scf')
oeprop('DIPOLE', 'QUADRUPOLE', 'MULLIKEN_CHARGES')
f=open( 'psi4out.xyz', 'w' )
f.write( "29  " )
f.write( str(ee) + "\n" )
f.write( MOL.save_string_xyz() )
f.close()
--------------------------------------------------------------------------

    Molecular point group: c1
  Charge       = 0
  Multiplicity = 1
  Basis Set: 6-31G*
  Basis Set:
  @DF-RHF Final Energy:  -501.04169418860954
    Total Energy =                       -501.0416941886101085
    Molecular point group: c1
  Basis Set: 6-31G*
  Basis Set:
  Basis Set: 6-31G*
  Basis Set:
  @DF-RHF Final Energy:  -501.04188443201087
    Total Energy =                       -501.0418844320108747
  Basis Set: 6-31G*
  Basis Set:
  Basis Set: 6-31G*
  Basis Set:
  @DF-RHF Final Energy:  -501.04203016465442
    Total Energy =                       -501.0420301646545340
  Basis Set: 6-31G*
  Basis Set:
  Basis Set: 6-31G*
  Basis Set:
  @DF-RHF Final Energy:  -501.04203847348049
    Total Energy =                       -501.0420384734813979
  Basis Set: 6-31G*
  Basis Set:
  Basis Set: 6-31G*
  Basis Set:
  @DF-RHF Final Energy:  -501.04203526949698
    Total Energy =                       -501.0420352694966368
  Basis Set: 6-31G*
  Basis Set:
  Basis Set: 6-31G*
  Basis Set:
  @DF-RHF Final Energy:  -501.04204530438733
    Total Energy =                       -501.0420453043873295
  Basis Set: 6-31G*
  Basis Set:
  Basis Set: 6-31G*
  Basis Set:
  @DF-RHF Final Energy:  -501.04204811909494
    Total Energy =                       -501.0420481190951705
  Basis Set: 6-31G*
  Basis Set:
  Charge       = 0
  Multiplicity = 1
  Basis Set: 6-31G*
  Basis Set:

    Orbital Energies (a.u.)
    -----------------------

    Doubly Occupied:

       1A    -20.603460     2A    -20.545649     3A    -11.372331
       4A    -11.280743     5A    -11.235204     6A    -11.217997
       7A    -11.216914     8A    -11.215854     9A    -11.215675
      10A    -11.214270    11A    -11.209029    12A     -1.469342
      13A     -1.362714    14A     -1.097623    15A     -1.066076
      16A     -1.019419    17A     -0.976747    18A     -0.928283
      19A     -0.861450    20A     -0.799429    21A     -0.790510
      22A     -0.763327    23A     -0.700083    24A     -0.682368
      25A     -0.672445    26A     -0.652374    27A     -0.627016
      28A     -0.604753    29A     -0.593951    30A     -0.580926
      31A     -0.567041    32A     -0.550408    33A     -0.532562
      34A     -0.528177    35A     -0.514635    36A     -0.511931
      37A     -0.498238    38A     -0.476274    39A     -0.469999
      40A     -0.461968    41A     -0.458720    42A     -0.455887
      43A     -0.439649    44A     -0.436739

  @DF-RHF Final Energy:  -501.04204834787845

   => Energetics <=

    Nuclear Repulsion Energy =            610.2842912225561349
    One-Electron Energy =               -1891.6962961365006777
    Two-Electron Energy =                 780.3699565660658664
    DFT Exchange-Correlation Energy =       0.0000000000000000
    Empirical Dispersion Energy =           0.0000000000000000
    PCM Polarization Energy =               0.0000000000000000
    EFP Energy =                            0.0000000000000000
    Total Energy =                       -501.0420483478787901
    Molecular point group: c1
  Basis Set: 6-31G*
  Basis Set:

  -Total Gradient:
     Atom            X                  Y                   Z
    ------   -----------------  -----------------  -----------------
       1        0.000005109460     0.000000951334    -0.000019033635
       2       -0.000007504372    -0.000001845478     0.000018371110
       3       -0.004235085299    -0.001964872299     0.001813335932
       4       -0.000009011983     0.000005191151     0.000004362260
       5        0.004220898017     0.002530160140    -0.000126775463
       6        0.002833682337     0.001224381518    -0.001468338559
       7        0.000000835049    -0.000008647487    -0.000012359722
       8        0.000004660181     0.000000431831    -0.000007021677
       9       -0.002831702606    -0.001789627254    -0.000198285667
      10        0.000000342980     0.000009470832    -0.000000861747
      11       -0.000000555518    -0.000005832820    -0.000007068653
      12        0.000005444479     0.000004506381     0.000001958829
      13        0.000006636387    -0.000006085545    -0.000002660141
      14        0.000000156902     0.000004265540     0.000000447601
      15        0.000004052878    -0.000001544009    -0.000000021083
      16       -0.000003092792    -0.000001305253     0.000002711046
      17        0.000003856013    -0.000001665617     0.000000735043
      18       -0.000001144516    -0.000000545709    -0.000000016770
      19       -0.000001593570     0.000000270431     0.000002225457
      20        0.000001130186     0.000002004182     0.000001238797
      21       -0.000000528527     0.000000805919     0.000000205257
      22        0.000000676716    -0.000000620727    -0.000000918573
      23        0.000001049954     0.000000153270    -0.000000549985
      24       -0.000000458402     0.000000330644     0.000000196147
      25        0.000000223503    -0.000000120546    -0.000000375661
      26        0.000001693034    -0.000000025644    -0.000000355840
      27       -0.000000079764     0.000000060936    -0.000000196070
      28        0.000000450687     0.000000020333    -0.000000292345
      29       -0.000000141434    -0.000000266057    -0.000000655890

  **** Optimization is complete! (in 8 steps) ****
    Final optimized geometry and variables:
    Molecular point group: c1

    Geometry (in Angstrom), charge = 0, multiplicity = 1:

    O            3.250798706819     1.205034770543     0.210389879586
    C            2.689543294937     0.159969594000     0.286190825765
    C            1.216665211130    -0.081355978461     0.040877982983
    O            3.306160401924    -0.970765596362     0.607614320750
    C            0.452217344758     1.176837675361    -0.387766194977
    H            1.166663532582    -0.860555213296    -0.712629079623
    H            0.811661681855    -0.508914692154     0.953520935701
    C           -1.013897727778     1.179049525727     0.060401220625
    H            0.478004561356     1.259527018661    -1.470867672898
    H            0.952205439389     2.050188108095     0.010109645448
    C           -1.868111337583     0.072820005956    -0.564380489374
    H           -1.448334920337     2.143333923800    -0.193336431470
    H           -1.058870471039     1.102432202318     1.145792539034
    C           -3.336504146201     0.137833471243    -0.140075970768
    H           -1.803928510752     0.142658235478    -1.649325827100
    H           -1.465737425337    -0.902629638785    -0.298174968882
    C           -4.196928533608    -0.963274568142    -0.762475127422
    H           -3.746463125771     1.109378365787    -0.410895909873
    H           -3.400958000214     0.072819966334     0.944940186391
    C           -5.662298168708    -0.890248554707    -0.334620547993
    H           -4.134334461475    -0.899207850873    -1.846748791419
    H           -3.790155768722    -1.935131267951    -0.490759251269
    H           -6.246059527167    -1.683140747626    -0.791973574510
    H           -6.108222776272     0.057367940987    -0.623367388342
    H           -5.761357373309    -0.986127841373     0.742993762849
    C            4.695539300408    -0.893615151608     0.869399279035
    H            5.226748962085    -0.534566305912    -0.000307826085
    H            5.006832171870    -1.898391747345     1.109255865310
    H            4.889489499194    -0.232756469489     1.701964279135

  Mulliken Charges: (a.u.)
   Center  Symbol    Alpha    Beta     Spin     Total
       1     O     4.28519  4.28519  0.00000 -0.57038
       2     C     2.61056  2.61056  0.00000  0.77889
       3     C     3.20888  3.20888  0.00000 -0.41776
       4     O     4.30619  4.30619  0.00000 -0.61239
       5     C     3.15844  3.15844  0.00000 -0.31688
       6     H     0.39813  0.39813  0.00000  0.20374
       7     H     0.39960  0.39960  0.00000  0.20079
       8     C     3.15771  3.15771  0.00000 -0.31541
       9     H     0.41787  0.41787  0.00000  0.16427
      10     H     0.39738  0.39738  0.00000  0.20525
      11     C     3.15492  3.15492  0.00000 -0.30984
      12     H     0.41899  0.41899  0.00000  0.16201
      13     H     0.42343  0.42343  0.00000  0.15314
      14     C     3.15020  3.15020  0.00000 -0.30041
      15     H     0.42350  0.42350  0.00000  0.15301
      16     H     0.42296  0.42296  0.00000  0.15408
      17     C     3.15141  3.15141  0.00000 -0.30283
      18     H     0.42336  0.42336  0.00000  0.15328
      19     H     0.42399  0.42399  0.00000  0.15201
      20     C     3.23933  3.23933  0.00000 -0.47867
      21     H     0.42299  0.42299  0.00000  0.15402
      22     H     0.42341  0.42341  0.00000  0.15317
      23     H     0.41928  0.41928  0.00000  0.16143
      24     H     0.42157  0.42157  0.00000  0.15686
      25     H     0.42179  0.42179  0.00000  0.15643
      26     C     3.09216  3.09216  0.00000 -0.18432
      27     H     0.40903  0.40903  0.00000  0.18193
      28     H     0.40854  0.40854  0.00000  0.18291
      29     H     0.40917  0.40917  0.00000  0.18166

   Total alpha = 44.00000, Total beta = 44.00000, Total charge =  0.00000
