  ==> Input File <==

--------------------------------------------------------------------------
set {
	reference rhf
	basis 6-31G*
}

set_num_threads( 4 )
memory 2 gb

molecule MOL {
0 1

O	 1.242696	 0.345789	 0.960664
C	 0.576249	 0.131685	 -0.000108
C	 -0.766779	 -0.556801	 -0.000461
O	 0.938307	 0.480490	 -1.228079
C	 -1.945214	 0.412366	 0.000161
H	 -0.796911	 -1.211249	 -0.867467
H	 -0.796854	 -1.212390	 0.865687
C	 -3.287791	 -0.317055	 0.000105
H	 -1.876087	 1.060580	 -0.866812
H	 -1.875822	 1.059691	 0.867761
H	 -3.394745	 -0.949193	 -0.877058
H	 -4.111778	 0.388953	 0.000015
H	 -3.394954	 -0.949187	 0.877259
C	 2.184567	 1.138048	 -1.368299
H	 2.190670	 2.063591	 -0.810737
H	 2.296647	 1.336002	 -2.422869
H	 2.988735	 0.507034	 -1.018092

	symmetry c1
}
set optking {
	frozen_dihedral = ("
		1 2 3 6
	")
}

ee = optimize('scf')
oeprop('DIPOLE', 'QUADRUPOLE', 'MULLIKEN_CHARGES')
f=open( 'psi4out.xyz', 'w' )
f.write( "17  " )
f.write( str(ee) + "\n" )
f.write( MOL.save_string_xyz() )
f.close()
--------------------------------------------------------------------------

    Molecular point group: c1
  Charge       = 0
  Multiplicity = 1
  Basis Set: 6-31G*
  Basis Set:
  @DF-RHF Final Energy:  -344.90487449037408
    Total Energy =                       -344.9048744903740840
    Molecular point group: c1
  Basis Set: 6-31G*
  Basis Set:
  Basis Set: 6-31G*
  Basis Set:
  @DF-RHF Final Energy:  -344.90484666637724
    Total Energy =                       -344.9048466663771819
  Basis Set: 6-31G*
  Basis Set:
  Basis Set: 6-31G*
  Basis Set:
  @DF-RHF Final Energy:  -344.90482151465449
    Total Energy =                       -344.9048215146547705
  Basis Set: 6-31G*
  Basis Set:
  Basis Set: 6-31G*
  Basis Set:
  @DF-RHF Final Energy:  -344.90552217217049
    Total Energy =                       -344.9055221721705493
  Basis Set: 6-31G*
  Basis Set:
  Basis Set: 6-31G*
  Basis Set:
  @DF-RHF Final Energy:  -344.90552390766140
    Total Energy =                       -344.9055239076614043
  Basis Set: 6-31G*
  Basis Set:
  Charge       = 0
  Multiplicity = 1
  Basis Set: 6-31G*
  Basis Set:

    Orbital Energies (a.u.)
    -----------------------

    Doubly Occupied:

       1A    -20.604632     2A    -20.543566     3A    -11.371022
       4A    -11.280872     5A    -11.234276     6A    -11.232567
       7A    -11.218978     8A     -1.468910     9A     -1.361507
      10A     -1.084641    11A     -0.999533    12A     -0.941662
      13A     -0.830719    14A     -0.774036    15A     -0.697207
      16A     -0.679643    17A     -0.673149    18A     -0.636470
      19A     -0.595503    20A     -0.581437    21A     -0.551272
      22A     -0.544993    23A     -0.525953    24A     -0.507400
      25A     -0.488870    26A     -0.484421    27A     -0.454164
      28A     -0.432002

  @DF-RHF Final Energy:  -344.90552414600751

   => Energetics <=

    Nuclear Repulsion Energy =            314.0781210318687613
    One-Electron Energy =               -1092.3684771934986202
    Two-Electron Energy =                 433.3848320156224077
    DFT Exchange-Correlation Energy =       0.0000000000000000
    Empirical Dispersion Energy =           0.0000000000000000
    PCM Polarization Energy =               0.0000000000000000
    EFP Energy =                            0.0000000000000000
    Total Energy =                       -344.9055241460075081
    Molecular point group: c1
  Basis Set: 6-31G*
  Basis Set:

  -Total Gradient:
     Atom            X                  Y                   Z
    ------   -----------------  -----------------  -----------------
       1       -0.000141819291     0.000263854190     0.000003571237
       2        0.000151393334    -0.000293048745    -0.000064458091
       3        0.000097938657    -0.000150373397     0.000250300886
       4       -0.000009635492    -0.000028043781     0.000027688733
       5       -0.000004072485     0.000030969701    -0.000037970345
       6       -0.000113779287     0.000226917988    -0.000148822895
       7        0.000000842148    -0.000023294880    -0.000035253718
       8        0.000005326537    -0.000010929899     0.000021116926
       9        0.000003399217    -0.000009799915     0.000007860045
      10        0.000002579045    -0.000008121636    -0.000021517665
      11        0.000001242068     0.000008774117    -0.000003885590
      12        0.000000225312     0.000007486529     0.000008769334
      13        0.000004066018    -0.000010386035    -0.000004375833
      14       -0.000006923117    -0.000007145091    -0.000001965561
      15        0.000002045947     0.000000526021     0.000000257423
      16        0.000006032807     0.000003744685    -0.000001323424
      17        0.000001138577    -0.000001129850     0.000000008537

  **** Optimization is complete! (in 6 steps) ****
    Final optimized geometry and variables:
    Molecular point group: c1

    Geometry (in Angstrom), charge = 0, multiplicity = 1:

    O            1.371786872283     0.055430379781     1.203575087234
    C            0.705769688230    -0.151846070911     0.240498224382
    C           -0.633182445468    -0.844713540295     0.249726800585
    O            1.050789422932     0.241072007659    -0.979294910849
    C           -1.786612769885     0.169906693078     0.211893518757
    H           -0.696686414405    -1.502990077633    -0.609615262283
    H           -0.685820704558    -1.440474335412     1.152089530855
    C           -3.152243150885    -0.513090704582     0.251505098729
    H           -1.703335895160     0.772287766964    -0.687174405445
    H           -1.691802341400     0.846184907337     1.056664516875
    H           -3.284259435191    -1.175749396692    -0.598796567821
    H           -3.952260384389     0.219633957267     0.228224218377
    H           -3.269521011232    -1.103888316797     1.155043842706
    C            2.272367206511     0.946098991542    -1.105216861290
    H            2.247679553125     1.855886304031    -0.522797706986
    H            2.374037688468     1.175930481356    -2.154410539082
    H            3.099065562874     0.334529839998    -0.773722296245

  Mulliken Charges: (a.u.)
   Center  Symbol    Alpha    Beta     Spin     Total
       1     O     4.28487  4.28487  0.00000 -0.56974
       2     C     2.61750  2.61750  0.00000  0.76499
       3     C     3.19256  3.19256  0.00000 -0.38513
       4     O     4.30290  4.30290  0.00000 -0.60581
       5     C     3.16545  3.16545  0.00000 -0.33090
       6     H     0.40458  0.40458  0.00000  0.19084
       7     H     0.39996  0.39996  0.00000  0.20008
       8     C     3.24080  3.24080  0.00000 -0.48160
       9     H     0.40976  0.40976  0.00000  0.18048
      10     H     0.41026  0.41026  0.00000  0.17947
      11     H     0.41919  0.41919  0.00000  0.16162
      12     H     0.41515  0.41515  0.00000  0.16971
      13     H     0.41811  0.41811  0.00000  0.16377
      14     C     3.09256  3.09256  0.00000 -0.18512
      15     H     0.40910  0.40910  0.00000  0.18179
      16     H     0.40876  0.40876  0.00000  0.18248
      17     H     0.40847  0.40847  0.00000  0.18306

   Total alpha = 28.00000, Total beta = 28.00000, Total charge =  0.00000
