  ==> Input File <==

--------------------------------------------------------------------------
set {
	reference rhf
	basis 6-31G*
}

set_num_threads( 4 )
memory 2 gb

molecule MOL {
0 1

O	 2.927261	 0.566575	 -1.272901
C	 2.527381	 -0.175757	 -0.434988
C	 1.245376	 -0.013843	 0.345420
O	 3.176730	 -1.273685	 -0.068205
C	 0.455112	 1.231400	 -0.050772
H	 0.669960	 -0.922795	 0.204368
H	 1.509678	 0.009567	 1.399598
C	 -0.998893	 1.219485	 0.433193
H	 0.482531	 1.345121	 -1.130325
H	 0.957290	 2.103070	 0.354729
C	 -1.883438	 0.145884	 -0.207175
H	 -1.431207	 2.195402	 0.224832
H	 -1.019646	 1.105716	 1.516076
C	 -3.347647	 0.245583	 0.225435
H	 -1.822183	 0.231698	 -1.291012
H	 -1.510341	 -0.844814	 0.042401
C	 -4.239992	 -0.825570	 -0.404234
H	 -3.732888	 1.230466	 -0.033079
H	 -3.408585	 0.170602	 1.310038
C	 -5.701275	 -0.716658	 0.029921
H	 -4.179496	 -0.752714	 -1.488058
H	 -3.859041	 -1.810759	 -0.143352
H	 -6.308102	 -1.488908	 -0.432678
H	 -6.122175	 0.245478	 -0.248167
H	 -5.799072	 -0.820114	 1.106957
C	 4.401929	 -1.544913	 -0.724108
H	 4.245830	 -1.665087	 -1.786509
H	 4.769958	 -2.463380	 -0.294015
H	 5.107870	 -0.744072	 -0.557263

	symmetry c1
}
set optking {
	frozen_dihedral = ("
		6 3 5 9
	")
}

ee = optimize('scf')
oeprop('DIPOLE', 'QUADRUPOLE', 'MULLIKEN_CHARGES')
f=open( 'psi4out.xyz', 'w' )
f.write( "29  " )
f.write( str(ee) + "\n" )
f.write( MOL.save_string_xyz() )
f.close()
--------------------------------------------------------------------------

    Molecular point group: c1
  Charge       = 0
  Multiplicity = 1
  Basis Set: 6-31G*
  Basis Set:
  @DF-RHF Final Energy:  -501.04285915350761
    Total Energy =                       -501.0428591535071519
    Molecular point group: c1
  Basis Set: 6-31G*
  Basis Set:
  Basis Set: 6-31G*
  Basis Set:
  @DF-RHF Final Energy:  -501.04284875991880
    Total Energy =                       -501.0428487599191385
  Basis Set: 6-31G*
  Basis Set:
  Basis Set: 6-31G*
  Basis Set:
  @DF-RHF Final Energy:  -501.04311046680152
    Total Energy =                       -501.0431104668009539
  Basis Set: 6-31G*
  Basis Set:
  Basis Set: 6-31G*
  Basis Set:
  @DF-RHF Final Energy:  -501.04310427192274
    Total Energy =                       -501.0431042719226298
  Basis Set: 6-31G*
  Basis Set:
  Basis Set: 6-31G*
  Basis Set:
  @DF-RHF Final Energy:  -501.04300248083484
    Total Energy =                       -501.0430024808345024
  Basis Set: 6-31G*
  Basis Set:
  Basis Set: 6-31G*
  Basis Set:
  @DF-RHF Final Energy:  -501.04313719405616
    Total Energy =                       -501.0431371940558165
  Basis Set: 6-31G*
  Basis Set:
  Charge       = 0
  Multiplicity = 1
  Basis Set: 6-31G*
  Basis Set:

    Orbital Energies (a.u.)
    -----------------------

    Doubly Occupied:

       1A    -20.603484     2A    -20.545382     3A    -11.372346
       4A    -11.280722     5A    -11.234553     6A    -11.218861
       7A    -11.217847     8A    -11.215700     9A    -11.215572
      10A    -11.214243    11A    -11.208868    12A     -1.469225
      13A     -1.362658    14A     -1.097567    15A     -1.066520
      16A     -1.019539    17A     -0.977231    18A     -0.928437
      19A     -0.861301    20A     -0.799399    21A     -0.790177
      22A     -0.764590    23A     -0.701739    24A     -0.681954
      25A     -0.672451    26A     -0.649638    27A     -0.627831
      28A     -0.605433    29A     -0.595275    30A     -0.580785
      31A     -0.566432    32A     -0.548048    33A     -0.533992
      34A     -0.530371    35A     -0.516505    36A     -0.508675
      37A     -0.495756    38A     -0.477536    39A     -0.470009
      40A     -0.462214    41A     -0.459146    42A     -0.456299
      43A     -0.441421    44A     -0.434965

  @DF-RHF Final Energy:  -501.04313723545215

   => Energetics <=

    Nuclear Repulsion Energy =            611.0807788375698237
    One-Electron Energy =               -1893.2864440144053333
    Two-Electron Energy =                 781.1625279413838143
    DFT Exchange-Correlation Energy =       0.0000000000000000
    Empirical Dispersion Energy =           0.0000000000000000
    PCM Polarization Energy =               0.0000000000000000
    EFP Energy =                            0.0000000000000000
    Total Energy =                       -501.0431372354516952
    Molecular point group: c1
  Basis Set: 6-31G*
  Basis Set:

  -Total Gradient:
     Atom            X                  Y                   Z
    ------   -----------------  -----------------  -----------------
       1       -0.000047402152    -0.000029120314    -0.000074095265
       2        0.000131659526     0.000134464000     0.000161472607
       3        0.001675486061    -0.000061304686    -0.003205408812
       4       -0.000031844670    -0.000061885612    -0.000028761653
       5       -0.002949963941    -0.001805569616     0.000498896605
       6       -0.000911866104     0.000289446425     0.002525391226
       7        0.000016089489    -0.000004363085    -0.000019524144
       8       -0.000000255709     0.000028494433    -0.000016197846
       9        0.002171465729     0.001511577549     0.000150376192
      10       -0.000022029073     0.000003263819     0.000006597502
      11       -0.000006142858    -0.000000274745    -0.000039834373
      12        0.000038636594     0.000033295258    -0.000008177852
      13       -0.000029050903    -0.000005032000    -0.000009077361
      14        0.000017138154    -0.000047798384     0.000048934582
      15       -0.000027166861    -0.000007908760    -0.000021605891
      16       -0.000025117676     0.000019700529     0.000022848630
      17        0.000002979970     0.000006811492    -0.000005253540
      18        0.000003312186    -0.000015418200     0.000024828888
      19        0.000013078619    -0.000024112017     0.000013719739
      20       -0.000007447529     0.000030001581    -0.000027595127
      21        0.000016220990    -0.000019331439    -0.000013041920
      22       -0.000012182901     0.000008679580     0.000024533195
      23       -0.000000944118     0.000006060210    -0.000006814790
      24       -0.000010232223     0.000004142439     0.000005504614
      25        0.000009764763    -0.000002412031    -0.000007702331
      26       -0.000007430033     0.000010643051    -0.000001980019
      27        0.000001412096    -0.000000933250    -0.000000795571
      28       -0.000006569934    -0.000000816312     0.000002599580
      29       -0.000001597506    -0.000000299913     0.000000163136

  **** Optimization is complete! (in 7 steps) ****
    Final optimized geometry and variables:
    Molecular point group: c1

    Geometry (in Angstrom), charge = 0, multiplicity = 1:

    O            3.040031932641     0.656702632753    -1.096146535817
    C            2.645691704905    -0.063365917733    -0.236422901891
    C            1.345375152301     0.090261526780     0.512937564522
    O            3.320593276819    -1.124420633165     0.187906962309
    C            0.526872480423     1.306690244348     0.079284939259
    H            0.790972984059    -0.836720499905     0.411038054508
    H            1.592424993482     0.153390356797     1.569691652824
    C           -0.913042965871     1.305344520070     0.603681912694
    H            0.540298484903     1.386802106189    -1.002281412165
    H            1.032193701271     2.198792261962     0.437496319829
    C           -1.837516536049     0.283030645172    -0.064076546534
    H           -1.330149157685     2.297933169408     0.451458740516
    H           -0.909087682197     1.142834207246     1.680585014971
    C           -3.275385902082     0.353623977093     0.454242272990
    H           -1.834037826868     0.450571833050    -1.139682875472
    H           -1.458792354144    -0.725069266685     0.088151739891
    C           -4.211331777376    -0.653420269807    -0.216579100584
    H           -3.663479967735     1.359441690114     0.302603112998
    H           -3.279449695943     0.185434349211     1.530070064257
    C           -5.647995740395    -0.568246605149     0.297667952287
    H           -4.203187857539    -0.490991934197    -1.292270147189
    H           -3.830748727731    -1.660231946502    -0.057618796270
    H           -6.286764246940    -1.293728584805    -0.196560193867
    H           -6.069535139019     0.417446811409     0.121830152883
    H           -5.694146433039    -0.760500190833     1.365935840064
    C            4.566423638903    -1.383933619647    -0.432950415133
    H            4.435630257312    -1.551581299150    -1.492331119026
    H            4.952961509075    -2.272556773605     0.041305327638
    H            5.244428903830    -0.555632884212    -0.285463477934

  Mulliken Charges: (a.u.)
   Center  Symbol    Alpha    Beta     Spin     Total
       1     O     4.28583  4.28583  0.00000 -0.57167
       2     C     2.60539  2.60539  0.00000  0.78922
       3     C     3.21036  3.21036  0.00000 -0.42072
       4     O     4.30713  4.30713  0.00000 -0.61426
       5     C     3.15558  3.15558  0.00000 -0.31116
       6     H     0.39896  0.39896  0.00000  0.20207
       7     H     0.40046  0.40046  0.00000  0.19908
       8     C     3.15712  3.15712  0.00000 -0.31425
       9     H     0.40661  0.40661  0.00000  0.18678
      10     H     0.41372  0.41372  0.00000  0.17256
      11     C     3.15401  3.15401  0.00000 -0.30803
      12     H     0.41814  0.41814  0.00000  0.16372
      13     H     0.42418  0.42418  0.00000  0.15164
      14     C     3.15041  3.15041  0.00000 -0.30082
      15     H     0.42147  0.42147  0.00000  0.15707
      16     H     0.42452  0.42452  0.00000  0.15095
      17     C     3.15149  3.15149  0.00000 -0.30297
      18     H     0.42342  0.42342  0.00000  0.15316
      19     H     0.42411  0.42411  0.00000  0.15178
      20     C     3.23934  3.23934  0.00000 -0.47869
      21     H     0.42257  0.42257  0.00000  0.15487
      22     H     0.42343  0.42343  0.00000  0.15313
      23     H     0.41922  0.41922  0.00000  0.16156
      24     H     0.42157  0.42157  0.00000  0.15686
      25     H     0.42192  0.42192  0.00000  0.15616
      26     C     3.09237  3.09237  0.00000 -0.18473
      27     H     0.40907  0.40907  0.00000  0.18187
      28     H     0.40850  0.40850  0.00000  0.18300
      29     H     0.40909  0.40909  0.00000  0.18182

   Total alpha = 44.00000, Total beta = 44.00000, Total charge = -0.00000
