  ==> Input File <==

--------------------------------------------------------------------------
set {
	reference rhf
	basis 6-31G*
}

set_num_threads( 4 )
memory 2 gb

molecule MOL {
0 1

H	 -0.367348	 2.047014	 -0.308205
C	 0.352277	 1.337084	 0.083769
N	 -0.000016	 0.000074	 -0.335546
H	 1.328359	 1.600444	 -0.307950
H	 0.381933	 1.450534	 1.172486
C	 -0.679015	 -0.004351	 -1.611167
C	 1.141017	 -0.886575	 -0.328161
H	 -0.990117	 -1.012981	 -1.858621
H	 -1.567182	 0.615095	 -1.557220
H	 -0.054756	 0.368464	 -2.429820
H	 1.581331	 -0.911287	 0.662236
H	 0.826172	 -1.893367	 -0.578521
H	 1.919697	 -0.588348	 -1.037841

	symmetry c1
}
set optking {
	frozen_dihedral = ("
		6 3 2 1
	")
}

ee = optimize('scf')
oeprop('DIPOLE', 'QUADRUPOLE', 'MULLIKEN_CHARGES')
f=open( 'psi4out.xyz', 'w' )
f.write( "13  " )
f.write( str(ee) + "\n" )
f.write( MOL.save_string_xyz() )
f.close()
--------------------------------------------------------------------------

    Molecular point group: c1
  Charge       = 0
  Multiplicity = 1
  Basis Set: 6-31G*
  Basis Set:
  @DF-RHF Final Energy:  -173.26566810791985
    Total Energy =                       -173.2656681079199075
    Molecular point group: c1
  Basis Set: 6-31G*
  Basis Set:
  Basis Set: 6-31G*
  Basis Set:
  @DF-RHF Final Energy:  -173.26651993512974
    Total Energy =                       -173.2665199351297929
  Basis Set: 6-31G*
  Basis Set:
  Basis Set: 6-31G*
  Basis Set:
  @DF-RHF Final Energy:  -173.26661955925965
    Total Energy =                       -173.2666195592596523
  Basis Set: 6-31G*
  Basis Set:
  Basis Set: 6-31G*
  Basis Set:
  @DF-RHF Final Energy:  -173.26662357815061
    Total Energy =                       -173.2666235781505861
  Basis Set: 6-31G*
  Basis Set:
  Charge       = 0
  Multiplicity = 1
  Basis Set: 6-31G*
  Basis Set:

    Orbital Energies (a.u.)
    -----------------------

    Doubly Occupied:

       1A    -15.540699     2A    -11.236078     3A    -11.235728
       4A    -11.235636     5A     -1.222471     6A     -0.952612
       7A     -0.951440     8A     -0.805352     9A     -0.638656
      10A     -0.630841    11A     -0.629674    12A     -0.546747
      13A     -0.543371    14A     -0.516595    15A     -0.503041
      16A     -0.501907    17A     -0.339850

  @DF-RHF Final Energy:  -173.26662391499076

   => Energetics <=

    Nuclear Repulsion Energy =            138.9920076796553872
    One-Electron Energy =                -508.4558639018064241
    Two-Electron Energy =                 196.1972323071602489
    DFT Exchange-Correlation Energy =       0.0000000000000000
    Empirical Dispersion Energy =           0.0000000000000000
    PCM Polarization Energy =               0.0000000000000000
    EFP Energy =                            0.0000000000000000
    Total Energy =                       -173.2666239149907881
    Molecular point group: c1
  Basis Set: 6-31G*
  Basis Set:

  -Total Gradient:
     Atom            X                  Y                   Z
    ------   -----------------  -----------------  -----------------
       1        0.002578081688     0.000684481270    -0.003955411162
       2       -0.004528903738    -0.000787471923     0.005699677576
       3        0.005130462068    -0.000147176869    -0.003518868416
       4        0.000007721676     0.000012500683    -0.000006707417
       5        0.000003046028    -0.000008619946    -0.000008800760
       6       -0.003188686948     0.000218744788     0.001804475758
       7        0.000000522466     0.000032432364     0.000010313866
       8       -0.000001158217     0.000003981729    -0.000004070533
       9       -0.000000367498    -0.000004400412    -0.000007891114
      10       -0.000001729832    -0.000000241045    -0.000005439445
      11        0.000002987092    -0.000006501933     0.000000172212
      12       -0.000007612504     0.000006945833    -0.000001768164
      13        0.000005637718    -0.000004674538    -0.000005682402

  **** Optimization is complete! (in 5 steps) ****
    Final optimized geometry and variables:
    Molecular point group: c1

    Geometry (in Angstrom), charge = 0, multiplicity = 1:

    H           -0.592130452332     1.938661589887     0.305487784051
    C            0.140606859586     1.223121101334     0.657821100524
    N           -0.202043379498    -0.106700712705     0.201732443903
    H            1.108075023901     1.560235303373     0.273198185202
    H            0.181110384670     1.258521638916     1.741312009591
    C           -0.906775496904    -0.129365183116    -1.057469698482
    C            0.916621878906    -1.014307211831     0.250919132225
    H           -1.209662531782    -1.145165735340    -1.286009695814
    H           -1.802736648696     0.476249064671    -0.988413923965
    H           -0.310854079715     0.239496090220    -1.899309893379
    H            1.340640041023    -1.019426800565     1.249282217527
    H            0.587516316048    -2.022265574934     0.024172636098
    H            1.713882458528    -0.749750636120    -0.451764286675

  Mulliken Charges: (a.u.)
   Center  Symbol    Alpha    Beta     Spin     Total
       1     H     0.41887  0.41887  0.00000  0.16226
       2     C     3.14125  3.14125  0.00000 -0.28250
       3     N     3.76997  3.76997  0.00000 -0.53994
       4     H     0.43345  0.43345  0.00000  0.13311
       5     H     0.41566  0.41566  0.00000  0.16869
       6     C     3.14013  3.14013  0.00000 -0.28026
       7     C     3.14067  3.14067  0.00000 -0.28134
       8     H     0.41780  0.41780  0.00000  0.16440
       9     H     0.41668  0.41668  0.00000  0.16664
      10     H     0.43585  0.43585  0.00000  0.12831
      11     H     0.41705  0.41705  0.00000  0.16590
      12     H     0.41741  0.41741  0.00000  0.16519
      13     H     0.43522  0.43522  0.00000  0.12955

   Total alpha = 17.00000, Total beta = 17.00000, Total charge =  0.00000
