  ==> Input File <==

--------------------------------------------------------------------------
set {
	reference rhf
	basis cc-pvtz
}

set_num_threads( 4 )
memory 2 gb

molecule MOL {
0 1

H	 1.951863	 -3.780215	 -0.088357
C	 2.188426	 -2.726527	 0.000446
C	 0.929183	 -1.871902	 -0.092145
H	 2.691560	 -2.580754	 0.950522
H	 2.892599	 -2.479158	 -0.786934
C	 1.215950	 -0.382441	 0.027187
H	 0.229036	 -2.153936	 0.686325
H	 0.432053	 -2.065158	 -1.039821
N	 0.000002	 0.398953	 -0.040851
H	 1.690054	 -0.184354	 0.983825
H	 1.938071	 -0.089850	 -0.740937
C	 -1.215959	 -0.382435	 0.027143
H	 -0.000012	 1.086078	 0.683841
C	 -2.451944	 0.502410	 -0.038737
H	 -1.221867	 -1.069392	 -0.813828
H	 -1.259993	 -0.999709	 0.929424
C	 -3.752217	 -0.292550	 0.005776
H	 -2.407325	 1.093801	 -0.946480
H	 -2.431979	 1.206234	 0.790023
H	 -3.817783	 -0.982946	 -0.828547
H	 -4.612613	 0.364348	 -0.042306
H	 -3.830160	 -0.871666	 0.919868

	symmetry c1
}
set optking {
	frozen_dihedral = ("
		10 6 9 12
	")
}

ee = optimize('scf')
oeprop('DIPOLE', 'QUADRUPOLE', 'MULLIKEN_CHARGES')
f=open( 'psi4out.xyz', 'w' )
f.write( "22  " )
f.write( str(ee) + "\n" )
f.write( MOL.save_string_xyz() )
f.close()
--------------------------------------------------------------------------

    Molecular point group: c1
  Charge       = 0
  Multiplicity = 1
  Basis Set: CC-PVTZ
  Basis Set:
  @DF-RHF Final Energy:  -290.46964734080677
    Total Energy =                       -290.4696473408071142
    Molecular point group: c1
  Basis Set: CC-PVTZ
  Basis Set:
  Basis Set: CC-PVTZ
  Basis Set:
  @DF-RHF Final Energy:  -290.46901115801347
    Total Energy =                       -290.4690111580134726
  Basis Set: CC-PVTZ
  Basis Set:
  Basis Set: CC-PVTZ
  Basis Set:
  @DF-RHF Final Energy:  -290.47718737481409
    Total Energy =                       -290.4771873748140933
  Basis Set: CC-PVTZ
  Basis Set:
  Basis Set: CC-PVTZ
  Basis Set:
  @DF-RHF Final Energy:  -290.47885070331199
    Total Energy =                       -290.4788507033118776
  Basis Set: CC-PVTZ
  Basis Set:
  Basis Set: CC-PVTZ
  Basis Set:
  @DF-RHF Final Energy:  -290.47913689752136
    Total Energy =                       -290.4791368975212436
  Basis Set: CC-PVTZ
  Basis Set:
  Basis Set: CC-PVTZ
  Basis Set:
  @DF-RHF Final Energy:  -290.47924473624164
    Total Energy =                       -290.4792447362416965
  Basis Set: CC-PVTZ
  Basis Set:
  Basis Set: CC-PVTZ
  Basis Set:
  @DF-RHF Final Energy:  -290.47925211914423
    Total Energy =                       -290.4792521191444052
  Basis Set: CC-PVTZ
  Basis Set:
  Charge       = 0
  Multiplicity = 1
  Basis Set: CC-PVTZ
  Basis Set:

    Orbital Energies (a.u.)
    -----------------------

    Doubly Occupied:

       1A    -15.522169     2A    -11.236989     3A    -11.235068
       4A    -11.214127     5A    -11.210264     6A    -11.208527
       7A    -11.206477     8A     -1.197478     9A     -1.058208
      10A     -1.028709    11A     -0.929945    12A     -0.875605
      13A     -0.814343    14A     -0.779010    15A     -0.666031
      16A     -0.630048    17A     -0.620678    18A     -0.614479
      19A     -0.568390    20A     -0.558431    21A     -0.542839
      22A     -0.531378    23A     -0.504365    24A     -0.487356
      25A     -0.479536    26A     -0.473443    27A     -0.465260
      28A     -0.461448    29A     -0.345932

  @DF-RHF Final Energy:  -290.47925232013364

   => Energetics <=

    Nuclear Repulsion Energy =            318.3514397128901123
    One-Electron Energy =               -1022.7283194335910821
    Two-Electron Energy =                 413.8976274005669893
    DFT Exchange-Correlation Energy =       0.0000000000000000
    Empirical Dispersion Energy =           0.0000000000000000
    PCM Polarization Energy =               0.0000000000000000
    EFP Energy =                            0.0000000000000000
    Total Energy =                       -290.4792523201340373
    Molecular point group: c1
  Basis Set: CC-PVTZ
  Basis Set:

  -Total Gradient:
     Atom            X                  Y                   Z
    ------   -----------------  -----------------  -----------------
       1       -0.000002305831     0.000003070494    -0.000003173207
       2        0.000002772912     0.000006243612    -0.000016833056
       3       -0.000004894262    -0.000009743821     0.000033798144
       4       -0.000005345586    -0.000000962665    -0.000001289059
       5        0.000009763405    -0.000000345241     0.000000271842
       6       -0.002059203247    -0.003353431422     0.000385882473
       7       -0.000009775618     0.000000950674     0.000002179335
       8        0.000002211971     0.000004544318     0.000002742731
       9        0.000436630749     0.001054291515     0.003798455281
      10        0.001619355447     0.002562251132    -0.001435642495
      11        0.000014006106     0.000002430315     0.000003532946
      12        0.000008171828    -0.000267161558    -0.002752615974
      13        0.000002898125     0.000006350017    -0.000009573450
      14       -0.000009588661    -0.000004741126    -0.000008891418
      15       -0.000001266432    -0.000006058456    -0.000004661747
      16        0.000004220152    -0.000005547809     0.000000968334
      17       -0.000002184286     0.000006718767     0.000005872874
      18       -0.000001316224     0.000001875989    -0.000003488431
      19       -0.000003168246    -0.000001041400     0.000000824974
      20        0.000002353170     0.000003019334    -0.000000343193
      21       -0.000002242819    -0.000001318791     0.000001704057
      22       -0.000001092655    -0.000001393881     0.000000279037

  **** Optimization is complete! (in 8 steps) ****
    Final optimized geometry and variables:
    Molecular point group: c1

    Geometry (in Angstrom), charge = 0, multiplicity = 1:

    H            2.812197378697    -3.037431723666    -0.185591571272
    C            2.889998883938    -1.966493491221    -0.040158741721
    C            1.516576292701    -1.305374006939    -0.102099897316
    H            3.365080228060    -1.797160730349     0.920302779536
    H            3.548981676884    -1.575724769854    -0.807962503312
    C            1.617667215513     0.204141290809     0.082400623664
    H            0.876656177192    -1.738192846619     0.658470513500
    H            1.059095104206    -1.526649912866    -1.060246195975
    N            0.365478436081     0.953562850389     0.008090426976
    H            2.124322856780     0.409956696231     1.024430907678
    H            2.283831816451     0.584317358054    -0.688253500919
    C           -0.910158201342     0.275099426687     0.085002055070
    H            0.386530262993     1.718861969959     0.643015898750
    C           -2.049145117856     1.274451464169    -0.065845990670
    H           -0.976258277617    -0.449719243545    -0.716605286082
    H           -1.051448490270    -0.277417784817     1.017590980079
    C           -3.423769474839     0.617071186042    -0.012709496793
    H           -1.924155345419     1.803840681395    -1.003839604784
    H           -1.977226519191     2.020455859365     0.722287259160
    H           -3.540383282255    -0.111983685977    -0.807711103750
    H           -4.211982394085     1.352515875392    -0.122825228011
    H           -3.580794477101     0.104488518586     0.930486387472

  Mulliken Charges: (a.u.)
   Center  Symbol    Alpha    Beta     Spin     Total
       1     H     0.44729  0.44729  0.00000  0.10543
       2     C     3.15231  3.15231  0.00000 -0.30463
       3     C     3.09827  3.09827  0.00000 -0.19654
       4     H     0.45548  0.45548  0.00000  0.08904
       5     H     0.45394  0.45394  0.00000  0.09212
       6     C     3.01656  3.01656  0.00000 -0.03311
       7     H     0.44987  0.44987  0.00000  0.10027
       8     H     0.44967  0.44967  0.00000  0.10066
       9     N     3.64584  3.64584  0.00000 -0.29167
      10     H     0.46842  0.46842  0.00000  0.06316
      11     H     0.46112  0.46112  0.00000  0.07775
      12     C     3.02420  3.02420  0.00000 -0.04840
      13     H     0.44278  0.44278  0.00000  0.11445
      14     C     3.08167  3.08167  0.00000 -0.16333
      15     H     0.45651  0.45651  0.00000  0.08698
      16     H     0.47357  0.47357  0.00000  0.05286
      17     C     3.15355  3.15355  0.00000 -0.30709
      18     H     0.44975  0.44975  0.00000  0.10049
      19     H     0.46011  0.46011  0.00000  0.07978
      20     H     0.45512  0.45512  0.00000  0.08975
      21     H     0.44779  0.44779  0.00000  0.10442
      22     H     0.45620  0.45620  0.00000  0.08761

   Total alpha = 29.00000, Total beta = 29.00000, Total charge = -0.00000
