  ==> Input File <==

--------------------------------------------------------------------------
set {
	reference rhf
	basis 6-31G*
}

set_num_threads( 1 )
memory 2 gb

molecule MOL {
0 1

O	 -2.439739	 -0.935931	 -0.423848
C	 -1.921153	 0.064240	 -0.045697
C	 -2.624470	 1.379923	 0.150949
O	 -0.632575	 0.154573	 0.251549
H	 -2.168117	 2.136577	 -0.476876
H	 -3.669540	 1.273223	 -0.098610
H	 -2.519365	 1.700893	 1.180846
C	 0.160891	 -1.019931	 0.106212
C	 1.589627	 -0.672828	 0.480843
H	 0.089836	 -1.367806	 -0.916050
H	 -0.238459	 -1.792301	 0.749618
C	 1.722001	 0.048570	 1.823400
H	 1.992087	 -0.045559	 -0.311932
H	 2.181606	 -1.584278	 0.489726
C	 3.169802	 0.406446	 2.156266
H	 1.120678	 0.955282	 1.803815
H	 1.312250	 -0.577517	 2.609198
H	 3.237202	 0.915692	 3.112383
H	 3.597239	 1.061179	 1.402012
H	 3.790670	 -0.483258	 2.211299

	symmetry c1
}
set optking {
	frozen_dihedral = ("
		16 12 9 8,
		2 4 8 10,
		1 2 4 8
	")
}

ee = energy('scf')
oeprop('DIPOLE', 'QUADRUPOLE', 'MULLIKEN_CHARGES')
f=open( 'psi4out.xyz', 'w' )
f.write( "20  " )
f.write( str(ee) + "\n" )
f.write( MOL.save_string_xyz() )
f.close()
--------------------------------------------------------------------------

    Molecular point group: c1

    Geometry (in Angstrom), charge = 0, multiplicity = 1:

       Center              X                  Y                   Z               Mass
    ------------   -----------------  -----------------  -----------------  -----------------
           O         -2.308913989010    -0.868639622832    -0.985125485018    15.994914619560
           C         -1.790327989010     0.131531377168    -0.606974485018    12.000000000000
           C         -2.493644989010     1.447214377168    -0.410328485018    12.000000000000
           O         -0.501749989010     0.221864377168    -0.309728485018    15.994914619560
           H         -2.037291989010     2.203868377168    -1.038153485018     1.007825032070
           H         -3.538714989010     1.340514377168    -0.659887485018     1.007825032070
           H         -2.388539989010     1.768184377168     0.619568514982     1.007825032070
           C          0.291716010990    -0.952639622832    -0.455065485018    12.000000000000
           C          1.720452010990    -0.605536622832    -0.080434485018    12.000000000000
           H          0.220661010990    -1.300514622832    -1.477327485018     1.007825032070
           H         -0.107633989010    -1.725009622832     0.188340514982     1.007825032070
           C          1.852826010990     0.115861377168     1.262122514982    12.000000000000
           H          2.122912010990     0.021732377168    -0.873209485018     1.007825032070
           H          2.312431010990    -1.516986622832    -0.071551485018     1.007825032070
           C          3.300627010990     0.473737377168     1.594988514982    12.000000000000
           H          1.251503010990     1.022573377168     1.242537514982     1.007825032070
           H          1.443075010990    -0.510225622832     2.047920514982     1.007825032070
           H          3.368027010990     0.982983377168     2.551105514982     1.007825032070
           H          3.728064010990     1.128470377168     0.840734514982     1.007825032070
           H          3.921495010990    -0.415966622832     1.650021514982     1.007825032070

  Charge       = 0
  Multiplicity = 1
  Basis Set: 6-31G*
  Basis Set:

    Orbital Energies (a.u.)
    -----------------------

    Doubly Occupied:

       1A    -20.602233     2A    -20.544393     3A    -11.374934
       4A    -11.282445     5A    -11.233823     6A    -11.225324
       7A    -11.219162     8A    -11.212610     9A     -1.468472
      10A     -1.362679    11A     -1.085558    12A     -1.028004
      13A     -0.981393    14A     -0.879789    15A     -0.813926
      16A     -0.770882    17A     -0.690124    18A     -0.685491
      19A     -0.667110    20A     -0.632262    21A     -0.599325
      22A     -0.592646    23A     -0.572875    24A     -0.549471
      25A     -0.544828    26A     -0.533866    27A     -0.510421
      28A     -0.483360    29A     -0.473352    30A     -0.469394
      31A     -0.449418    32A     -0.439221

  @DF-RHF Final Energy:  -383.94445372146248

   => Energetics <=

    Nuclear Repulsion Energy =            386.5926124407537259
    One-Electron Energy =               -1289.1165836680802386
    Two-Electron Energy =                 518.5795175058643736
    DFT Exchange-Correlation Energy =       0.0000000000000000
    Empirical Dispersion Energy =           0.0000000000000000
    PCM Polarization Energy =               0.0000000000000000
    EFP Energy =                            0.0000000000000000
    Total Energy =                       -383.9444537214620823

  Mulliken Charges: (a.u.)
   Center  Symbol    Alpha    Beta     Spin     Total
       1     O     4.28313  4.28313  0.00000 -0.56626
       2     C     2.61880  2.61880  0.00000  0.76240
       3     C     3.28187  3.28187  0.00000 -0.56375
       4     O     4.30871  4.30871  0.00000 -0.61743
       5     H     0.40053  0.40053  0.00000  0.19894
       6     H     0.39672  0.39672  0.00000  0.20656
       7     H     0.40074  0.40074  0.00000  0.19853
       8     C     3.00186  3.00186  0.00000 -0.00372
       9     C     3.16675  3.16675  0.00000 -0.33349
      10     H     0.40757  0.40757  0.00000  0.18486
      11     H     0.41133  0.41133  0.00000  0.17735
      12     C     3.15434  3.15434  0.00000 -0.30868
      13     H     0.41698  0.41698  0.00000  0.16605
      14     H     0.41701  0.41701  0.00000  0.16598
      15     C     3.24031  3.24031  0.00000 -0.48063
      16     H     0.40970  0.40970  0.00000  0.18060
      17     H     0.42281  0.42281  0.00000  0.15438
      18     H     0.41780  0.41780  0.00000  0.16439
      19     H     0.42077  0.42077  0.00000  0.15846
      20     H     0.42226  0.42226  0.00000  0.15547

   Total alpha = 32.00000, Total beta = 32.00000, Total charge =  0.00000
