  ==> Input File <==

--------------------------------------------------------------------------
set {
	reference rhf
	basis cc-pvtz
}

set_num_threads( 4 )
memory 2 gb

molecule MOL {
0 1

O	 -1.656828	 -1.852412	 1.380397
C	 -0.722910	 -1.523268	 0.731314
C	 0.573766	 -2.285640	 0.625109
O	 -0.695554	 -0.422406	 0.000602
C	 0.593159	 -3.563271	 1.448672
H	 1.368190	 -1.610854	 0.924282
H	 0.740035	 -2.491155	 -0.426582
H	 0.443427	 -3.351949	 2.498977
H	 1.545800	 -4.065737	 1.333122
H	 -0.190447	 -4.240270	 1.135846
C	 -1.852370	 0.402254	 0.000718
C	 -3.063338	 -0.501097	 -0.000437
H	 -1.831732	 1.039442	 -0.872158
H	 -1.832493	 1.038301	 0.874430
H	 -3.071944	 -1.133732	 -0.879113
H	 -3.966302	 0.097976	 -0.000483
H	 -3.072764	 -1.134834	 0.877435

	symmetry c1
}
set optking {
	frozen_dihedral = ("
		2 4 11 13
	")
}

ee = optimize('scf')
oeprop('DIPOLE', 'QUADRUPOLE', 'MULLIKEN_CHARGES')
f=open( 'psi4out.xyz', 'w' )
f.write( "17  " )
f.write( str(ee) + "\n" )
f.write( MOL.save_string_xyz() )
f.close()
--------------------------------------------------------------------------

    Molecular point group: c1
  Charge       = 0
  Multiplicity = 1
  Basis Set: CC-PVTZ
  Basis Set:
  @DF-RHF Final Energy:  -345.00345377775523
    Total Energy =                       -345.0034537777553396
    Molecular point group: c1
  Basis Set: CC-PVTZ
  Basis Set:
  Basis Set: CC-PVTZ
  Basis Set:
  @DF-RHF Final Energy:  -345.02702529683677
    Total Energy =                       -345.0270252968368823
  Basis Set: CC-PVTZ
  Basis Set:
  Basis Set: CC-PVTZ
  Basis Set:
  @DF-RHF Final Energy:  -345.03160573658880
    Total Energy =                       -345.0316057365886877
  Basis Set: CC-PVTZ
  Basis Set:
  Basis Set: CC-PVTZ
  Basis Set:
  @DF-RHF Final Energy:  -345.02864277279798
    Total Energy =                       -345.0286427727976388
  Basis Set: CC-PVTZ
  Basis Set:
  @DF-RHF Final Energy:  -345.03301994717094
    Total Energy =                       -345.0330199471712262
  @DF-RHF Final Energy:  -345.03323412233050
    Total Energy =                       -345.0332341223302706
  @DF-RHF Final Energy:  -345.03325064650591
    Total Energy =                       -345.0332506465061897
  Basis Set: CC-PVTZ
  Basis Set:
  @DF-RHF Final Energy:  -345.03325402139455
    Total Energy =                       -345.0332540213945549
  Basis Set: CC-PVTZ
  Basis Set:
  Basis Set: CC-PVTZ
  Basis Set:
  @DF-RHF Final Energy:  -345.03325520202213
    Total Energy =                       -345.0332552020221328
  Basis Set: CC-PVTZ
  Basis Set:
  Basis Set: CC-PVTZ
  Basis Set:
  @DF-RHF Final Energy:  -345.03321338310673
    Total Energy =                       -345.0332133831067267
  Basis Set: CC-PVTZ
  Basis Set:
  Charge       = 0
  Multiplicity = 1
  Basis Set: CC-PVTZ
  Basis Set:

    Orbital Energies (a.u.)
    -----------------------

    Doubly Occupied:

       1A    -20.591056     2A    -20.531229     3A    -11.364251
       4A    -11.287283     5A    -11.234440     6A    -11.213791
       7A    -11.212860     8A     -1.466062     9A     -1.364649
      10A     -1.068734    11A     -1.028549    12A     -0.919209
      13A     -0.857584    14A     -0.748012    15A     -0.701298
      16A     -0.682659    17A     -0.667234    18A     -0.629783
      19A     -0.608556    20A     -0.567945    21A     -0.545646
      22A     -0.529131    23A     -0.522213    24A     -0.518002
      25A     -0.494683    26A     -0.492384    27A     -0.452972
      28A     -0.432899

  @DF-RHF Final Energy:  -345.03325558529883

   => Energetics <=

    Nuclear Repulsion Energy =            319.8494436046634632
    One-Electron Energy =               -1104.2991671711752133
    Two-Electron Energy =                 439.4164679812131453
    DFT Exchange-Correlation Energy =       0.0000000000000000
    Empirical Dispersion Energy =           0.0000000000000000
    PCM Polarization Energy =               0.0000000000000000
    EFP Energy =                            0.0000000000000000
    Total Energy =                       -345.0332555852985479
    Molecular point group: c1
  Basis Set: CC-PVTZ
  Basis Set:

  -Total Gradient:
     Atom            X                  Y                   Z
    ------   -----------------  -----------------  -----------------
       1        0.000009791405    -0.000005770585    -0.000005482249
       2       -0.001624418518    -0.003080105079    -0.004968958088
       3       -0.000032020196    -0.000014782609     0.000021883174
       4        0.002076446662     0.003901520906     0.006896837122
       5        0.000014334483    -0.000001575838    -0.000000626060
       6       -0.000010910045    -0.000001166873     0.000008548534
       7       -0.000008780195     0.000001223016     0.000006859216
       8       -0.000002750020     0.000003088757    -0.000013182979
       9        0.000013327307    -0.000018634312     0.000006612570
      10        0.000002576687     0.000011819101    -0.000001507220
      11        0.002371247140     0.003541068310     0.001674631801
      12       -0.000071292198     0.000116818226     0.000038528736
      13       -0.002805043258    -0.004423702908    -0.003609192895
      14        0.000038689221     0.000009232044    -0.000009498648
      15       -0.000012396423    -0.000028203547    -0.000017291849
      16        0.000018311637    -0.000034499443     0.000015188896
      17        0.000022886312     0.000023670833    -0.000043350058

  **** Optimization is complete! (in 11 steps) ****
    Final optimized geometry and variables:
    Molecular point group: c1

    Geometry (in Angstrom), charge = 0, multiplicity = 1:

    O           -0.555389827601    -0.518122064445     0.960752605806
    C            0.287150976586    -0.163959377532     0.208579936123
    C            1.561768257258    -0.921634001717    -0.072966668595
    O            0.250238090079     0.962594427228    -0.479439974972
    C            1.717074380692    -2.178919697063     0.767203678740
    H            2.386627500539    -0.235999928106     0.083372994476
    H            1.566584246909    -1.153835872370    -1.132589286283
    H            1.728387022124    -1.942950968750     1.823020979206
    H            2.645057891281    -2.679792463579     0.519201532532
    H            0.900321090460    -2.866576286524     0.594152796032
    C           -0.919968771357     1.770711834866    -0.576576350793
    C           -2.226589925575     1.028868979073    -0.806516105674
    H           -0.731741432492     2.368719756667    -1.455292700623
    H           -0.977013593669     2.407101144944     0.295735846986
    H           -2.127054916657     0.324752362192    -1.624979916974
    H           -2.975441690405     1.760822773655    -1.089309895077
    H           -2.566886308334     0.499529336465     0.066465139350

  Mulliken Charges: (a.u.)
   Center  Symbol    Alpha    Beta     Spin     Total
       1     O     4.19924  4.19924  0.00000 -0.39848
       2     C     2.80127  2.80127  0.00000  0.39747
       3     C     3.09415  3.09415  0.00000 -0.18830
       4     O     4.15559  4.15559  0.00000 -0.31117
       5     C     3.13988  3.13988  0.00000 -0.27976
       6     H     0.44010  0.44010  0.00000  0.11981
       7     H     0.44362  0.44362  0.00000  0.11276
       8     H     0.44903  0.44903  0.00000  0.10195
       9     H     0.45073  0.45073  0.00000  0.09855
      10     H     0.44841  0.44841  0.00000  0.10319
      11     C     2.98160  2.98160  0.00000  0.03680
      12     C     3.15748  3.15748  0.00000 -0.31497
      13     H     0.44804  0.44804  0.00000  0.10392
      14     H     0.45430  0.45430  0.00000  0.09139
      15     H     0.45370  0.45370  0.00000  0.09259
      16     H     0.45051  0.45051  0.00000  0.09898
      17     H     0.43236  0.43236  0.00000  0.13528

   Total alpha = 28.00000, Total beta = 28.00000, Total charge = -0.00000
