  ==> Input File <==

--------------------------------------------------------------------------
set {
	reference rhf
	basis cc-pvtz
}

set_num_threads( 4 )
memory 2 gb

molecule MOL {
0 1

H	 -1.310972	 3.848300	 0.775212
O	 -1.232919	 2.912377	 0.771961
C	 -0.067888	 2.526923	 0.089212
C	 0.027642	 1.012027	 0.090274
H	 0.811129	 2.938083	 0.579155
H	 -0.080622	 2.908676	 -0.927923
C	 -1.138737	 0.285728	 -0.581921
H	 0.101109	 0.681911	 1.121357
H	 0.960388	 0.735912	 -0.395484
C	 -1.933983	 -0.631436	 0.343653
H	 -0.763151	 -0.285569	 -1.422081
H	 -1.808359	 1.035291	 -0.992333
H	 -2.789188	 -1.049673	 -0.174718
H	 -1.335629	 -1.461368	 0.700418
H	 -2.305435	 -0.092167	 1.209725

	symmetry c1
}
set optking {
	frozen_dihedral = ("
		8 4 7 11
	")
}

ee = optimize('scf')
oeprop('DIPOLE', 'QUADRUPOLE', 'MULLIKEN_CHARGES')
f=open( 'psi4out.xyz', 'w' )
f.write( "15  " )
f.write( str(ee) + "\n" )
f.write( MOL.save_string_xyz() )
f.close()
--------------------------------------------------------------------------

    Molecular point group: c1
  Charge       = 0
  Multiplicity = 1
  Basis Set: CC-PVTZ
  Basis Set:
  @DF-RHF Final Energy:  -232.23355434490696
    Total Energy =                       -232.2335543449070201
    Molecular point group: c1
  Basis Set: CC-PVTZ
  Basis Set:
  Basis Set: CC-PVTZ
  Basis Set:
  @DF-RHF Final Energy:  -232.23408156521728
    Total Energy =                       -232.2340815652171386
  Basis Set: CC-PVTZ
  Basis Set:
  Basis Set: CC-PVTZ
  Basis Set:
  @DF-RHF Final Energy:  -232.23414067505877
    Total Energy =                       -232.2341406750584838
  Basis Set: CC-PVTZ
  Basis Set:
  Basis Set: CC-PVTZ
  Basis Set:
  @DF-RHF Final Energy:  -232.23414207172476
    Total Energy =                       -232.2341420717247615
  Basis Set: CC-PVTZ
  Basis Set:
  Charge       = 0
  Multiplicity = 1
  Basis Set: CC-PVTZ
  Basis Set:

    Orbital Energies (a.u.)
    -----------------------

    Doubly Occupied:

       1A    -20.547079     2A    -11.266341     3A    -11.210311
       4A    -11.207757     5A    -11.199061     6A     -1.364926
       7A     -1.062638     8A     -0.973825     9A     -0.856527
      10A     -0.786601    11A     -0.708828    12A     -0.640264
      13A     -0.604496    14A     -0.595167    15A     -0.547489
      16A     -0.532958    17A     -0.509420    18A     -0.474993
      19A     -0.463064    20A     -0.454879    21A     -0.433710

  @DF-RHF Final Energy:  -232.23414299576058

   => Energetics <=

    Nuclear Repulsion Energy =            190.7513649598324719
    One-Electron Energy =                -693.0903481613318036
    Two-Electron Energy =                 270.1048402057388671
    DFT Exchange-Correlation Energy =       0.0000000000000000
    Empirical Dispersion Energy =           0.0000000000000000
    PCM Polarization Energy =               0.0000000000000000
    EFP Energy =                            0.0000000000000000
    Total Energy =                       -232.2341429957604646
    Molecular point group: c1
  Basis Set: CC-PVTZ
  Basis Set:

  -Total Gradient:
     Atom            X                  Y                   Z
    ------   -----------------  -----------------  -----------------
       1        0.000012137466    -0.000003641413     0.000003976513
       2       -0.000006906779    -0.000020996112     0.000021222129
       3       -0.000004551878     0.000051863886    -0.000020654956
       4        0.000064760686    -0.000058895469    -0.000026672678
       5       -0.000015688661     0.000008797455    -0.000002492001
       6        0.000032252951    -0.000012608941    -0.000012127186
       7       -0.000010214746    -0.000043141449     0.000071785240
       8       -0.000055439907     0.000045806633     0.000006939500
       9       -0.000006971030     0.000006595823    -0.000003134382
      10       -0.000025709780    -0.000035230829    -0.000014387673
      11       -0.000013249811     0.000058020527    -0.000030780475
      12        0.000019286358    -0.000001493706     0.000005840079
      13        0.000004376853    -0.000008444356     0.000015126127
      14        0.000002345908     0.000000324825    -0.000004745670
      15        0.000003572369     0.000013043130    -0.000009894568

  **** Optimization is complete! (in 5 steps) ****
    Final optimized geometry and variables:
    Molecular point group: c1

    Geometry (in Angstrom), charge = 0, multiplicity = 1:

    H           -0.435898300391     2.558083721046     0.610556268378
    O           -0.322432550344     1.626639825011     0.648838826953
    C            0.817081482418     1.245886280855    -0.078102910139
    C            0.916099714650    -0.266844298996    -0.071509112163
    H            1.710968118969     1.674263914580     0.368382331667
    H            0.753052404904     1.608698396342    -1.102087968684
    C           -0.266529833170    -0.971464407774    -0.767009218393
    H            0.988592840968    -0.591703321223     0.960895718826
    H            1.852459124226    -0.539517556952    -0.547273439003
    C           -1.058024657128    -1.887865044735     0.160942084274
    H            0.098442669108    -1.548769532622    -1.609912076893
    H           -0.939042908293    -0.226509327574    -1.175804216160
    H           -1.879293408402    -2.363011058814    -0.364112998176
    H           -0.427713107394    -2.672229784111     0.567673234831
    H           -1.469777069290    -1.326999107902     0.991882366074

  Mulliken Charges: (a.u.)
   Center  Symbol    Alpha    Beta     Spin     Total
       1     H     0.39570  0.39570  0.00000  0.20860
       2     O     4.19977  4.19977  0.00000 -0.39954
       3     C     2.97455  2.97455  0.00000  0.05090
       4     C     3.09451  3.09451  0.00000 -0.18902
       5     H     0.46461  0.46461  0.00000  0.07078
       6     H     0.47288  0.47288  0.00000  0.05423
       7     C     3.08308  3.08308  0.00000 -0.16617
       8     H     0.45286  0.45286  0.00000  0.09428
       9     H     0.44912  0.44912  0.00000  0.10177
      10     C     3.14798  3.14798  0.00000 -0.29596
      11     H     0.45230  0.45230  0.00000  0.09540
      12     H     0.45392  0.45392  0.00000  0.09216
      13     H     0.45228  0.45228  0.00000  0.09543
      14     H     0.45743  0.45743  0.00000  0.08514
      15     H     0.44901  0.44901  0.00000  0.10199

   Total alpha = 21.00000, Total beta = 21.00000, Total charge =  0.00000
