  ==> Input File <==

--------------------------------------------------------------------------
set {
	reference rhf
	basis 6-31G*
}

set_num_threads( 4 )
memory 2 gb

molecule MOL {
0 1

H	 -0.082370	 -0.554898	 0.823579
N	 -0.626943	 -0.667432	 -0.000092
C	 -1.979713	 -0.158776	 0.000050
C	 -0.063512	 -1.287588	 -1.065041
H	 -2.520245	 -0.492427	 -0.879443
H	 -1.934741	 0.918111	 -0.004428
H	 -2.517790	 -0.485056	 0.883818
C	 1.365959	 -1.740903	 -0.845716
O	 -0.640611	 -1.468664	 -2.101566
H	 1.421997	 -2.444934	 -0.021365
H	 1.723536	 -2.216714	 -1.746515
H	 2.004092	 -0.895394	 -0.608572

	symmetry c1
}
set optking {
	frozen_dihedral = ("
		4 2 3 5
	")
}

ee = optimize('scf')
oeprop('DIPOLE', 'QUADRUPOLE', 'MULLIKEN_CHARGES')
f=open( 'psi4out.xyz', 'w' )
f.write( "12  " )
f.write( str(ee) + "\n" )
f.write( MOL.save_string_xyz() )
f.close()
--------------------------------------------------------------------------

    Molecular point group: c1
  Charge       = 0
  Multiplicity = 1
  Basis Set: 6-31G*
  Basis Set:
  @DF-RHF Final Energy:  -247.00477398484446
    Total Energy =                       -247.0047739848444621
    Molecular point group: c1
  Basis Set: 6-31G*
  Basis Set:
  Basis Set: 6-31G*
  Basis Set:
  @DF-RHF Final Energy:  -247.00535385652611
    Total Energy =                       -247.0053538565260851
  Basis Set: 6-31G*
  Basis Set:
  Basis Set: 6-31G*
  Basis Set:
  @DF-RHF Final Energy:  -247.00544579517302
    Total Energy =                       -247.0054457951730456
  Basis Set: 6-31G*
  Basis Set:
  Basis Set: 6-31G*
  Basis Set:
  @DF-RHF Final Energy:  -247.00540514320718
    Total Energy =                       -247.0054051432070992
  Basis Set: 6-31G*
  Basis Set:
  Basis Set: 6-31G*
  Basis Set:
  @DF-RHF Final Energy:  -247.00548474417710
    Total Energy =                       -247.0054847441770676
  Basis Set: 6-31G*
  Basis Set:
  Basis Set: 6-31G*
  Basis Set:
  @DF-RHF Final Energy:  -247.00548755743083
    Total Energy =                       -247.0054875574307971
  Basis Set: 6-31G*
  Basis Set:
  Basis Set: 6-31G*
  Basis Set:
  @DF-RHF Final Energy:  -247.00549057676903
    Total Energy =                       -247.0054905767690343
  Basis Set: 6-31G*
  Basis Set:
  Charge       = 0
  Multiplicity = 1
  Basis Set: 6-31G*
  Basis Set:

    Orbital Energies (a.u.)
    -----------------------

    Doubly Occupied:

       1A    -20.515946     2A    -15.581242     3A    -11.343137
       4A    -11.253704     5A    -11.229689     6A     -1.384197
       7A     -1.228028     8A     -1.015698     9A     -0.931545
      10A     -0.786394    11A     -0.689179    12A     -0.648040
      13A     -0.632185    14A     -0.585862    15A     -0.579692
      16A     -0.554630    17A     -0.544069    18A     -0.507488
      19A     -0.412918    20A     -0.384182

  @DF-RHF Final Energy:  -247.00549087464714

   => Energetics <=

    Nuclear Repulsion Energy =            181.2721624602326642
    One-Electron Energy =                -694.9396552828280846
    Two-Electron Energy =                 266.6620019479483403
    DFT Exchange-Correlation Energy =       0.0000000000000000
    Empirical Dispersion Energy =           0.0000000000000000
    PCM Polarization Energy =               0.0000000000000000
    EFP Energy =                            0.0000000000000000
    Total Energy =                       -247.0054908746471369
    Molecular point group: c1
  Basis Set: 6-31G*
  Basis Set:

  -Total Gradient:
     Atom            X                  Y                   Z
    ------   -----------------  -----------------  -----------------
       1        0.000006044697     0.000017452280    -0.000005668441
       2        0.000037574603     0.000127769389    -0.000037730538
       3       -0.000050183043    -0.000127670353     0.000069818230
       4       -0.000036727282    -0.000080675917     0.000023678702
       5        0.000033843510     0.000079131086    -0.000051641029
       6        0.000001481023    -0.000001955075     0.000002931358
       7        0.000007801622    -0.000008651798    -0.000001588889
       8        0.000015831930     0.000044836545    -0.000018531804
       9       -0.000004841123    -0.000019896942     0.000004878581
      10       -0.000019853059    -0.000014242204    -0.000005243140
      11       -0.000000606576    -0.000000061457     0.000000458780
      12        0.000009633700    -0.000016035555     0.000018638192

  **** Optimization is complete! (in 8 steps) ****
    Final optimized geometry and variables:
    Molecular point group: c1

    Geometry (in Angstrom), charge = 0, multiplicity = 1:

    H            0.327461555302     0.520440867904     1.612214092677
    N           -0.229861269259     0.379888183892     0.801477972589
    C           -1.574067165544     0.910815781515     0.795711075909
    C            0.332872778493    -0.231302384761    -0.269101544451
    H           -2.065410365217     0.577771763574    -0.104037802352
    H           -1.572116564410     1.996134872050     0.811878954515
    H           -2.128013913526     0.550967393054     1.655531313117
    C            1.763513702606    -0.683940705563    -0.056180261886
    O           -0.247708756033    -0.408764298426    -1.304261699373
    H            1.826939184007    -1.375600081258     0.777912151261
    H            2.112525729437    -1.172456711017    -0.953509872210
    H            2.404538470185     0.164543662388     0.162254407339

  Mulliken Charges: (a.u.)
   Center  Symbol    Alpha    Beta     Spin     Total
       1     H     0.31108  0.31108  0.00000  0.37784
       2     N     3.89147  3.89147  0.00000 -0.78295
       3     C     3.14202  3.14202  0.00000 -0.28405
       4     C     2.63072  2.63072  0.00000  0.73856
       5     H     0.38613  0.38613  0.00000  0.22774
       6     H     0.41665  0.41665  0.00000  0.16670
       7     H     0.41668  0.41668  0.00000  0.16665
       8     C     3.29524  3.29524  0.00000 -0.59048
       9     O     4.30238  4.30238  0.00000 -0.60477
      10     H     0.40770  0.40770  0.00000  0.18460
      11     H     0.39184  0.39184  0.00000  0.21632
      12     H     0.40808  0.40808  0.00000  0.18384

   Total alpha = 20.00000, Total beta = 20.00000, Total charge = -0.00000
