                              Psi4 1.0.54 Driver

  ==> Input File <==

--------------------------------------------------------------------------
set {
	reference rhf
	basis cc-pvtz
}

set_num_threads( 4 )
memory 2 gb

molecule MOL {
0 1

H	 2.279731	 -0.078242	 -0.946328
O	 1.675515	 -0.612943	 -0.465627
C	 1.135873	 0.113391	 0.608264
C	 0.027642	 1.012027	 0.090274
H	 1.902972	 0.727968	 1.072615
H	 0.756163	 -0.561896	 1.370018
C	 -1.138737	 0.285728	 -0.581921
H	 0.464661	 1.708096	 -0.618252
H	 -0.340737	 1.603071	 0.925246
C	 -1.933983	 -0.631436	 0.343653
H	 -0.763151	 -0.285569	 -1.422081
H	 -1.808359	 1.035291	 -0.992333
H	 -2.789188	 -1.049673	 -0.174718
H	 -1.335629	 -1.461368	 0.700418
H	 -2.305435	 -0.092167	 1.209725

	symmetry c1
}
set optking {
	frozen_dihedral = ("
		1 2 3 4
	")
}

ee,wfn = optimize('scf', return_wfn=True)
oeprop( wfn, 'DIPOLE', 'QUADRUPOLE', 'MULLIKEN_CHARGES')
f=open( 'psi4out.xyz', 'w' )
f.write( "15  " )
f.write( str(ee) + "\n" )
f.write( MOL.save_string_xyz() )
f.close()
--------------------------------------------------------------------------

    Molecular point group: c1
  Charge       = 0
  Multiplicity = 1
  Basis Set: CC-PVTZ
  Basis Set:
  @DF-RHF Final Energy:  -232.23553725786078
    Total Energy =                       -232.2355372578609263
    Molecular point group: c1
  Basis Set: CC-PVTZ
  Basis Set:
  Basis Set: CC-PVTZ
  Basis Set:
  @DF-RHF Final Energy:  -232.08127687126631
    Total Energy =                       -232.0812768712661693
  Basis Set: CC-PVTZ
  Basis Set:
  Basis Set: CC-PVTZ
  Basis Set:
  @DF-RHF Final Energy:  -232.18767066244123
    Total Energy =                       -232.1876706624410076
  Basis Set: CC-PVTZ
  Basis Set:
  Basis Set: CC-PVTZ
  Basis Set:
  @DF-RHF Final Energy:  -232.23434257927119
    Total Energy =                       -232.2343425792710718
  Basis Set: CC-PVTZ
  Basis Set:
  @DF-RHF Final Energy:  -232.23643462074725
    Total Energy =                       -232.2364346207471044
  Basis Set: CC-PVTZ
  Basis Set:
  @DF-RHF Final Energy:  -232.23700196222819
    Total Energy =                       -232.2370019622283621
  Basis Set: CC-PVTZ
  Basis Set:
  Basis Set: CC-PVTZ
  Basis Set:
  @DF-RHF Final Energy:  -232.23705077863454
    Total Energy =                       -232.2370507786343978
  Basis Set: CC-PVTZ
  Basis Set:
  Basis Set: CC-PVTZ
  Basis Set:
  @DF-RHF Final Energy:  -232.23704708008546
    Total Energy =                       -232.2370470800856310
  Basis Set: CC-PVTZ
  Basis Set:
  Charge       = 0
  Multiplicity = 1
  Basis Set: CC-PVTZ
  Basis Set:

    Orbital Energies (a.u.)
    -----------------------

    Doubly Occupied:

       1A    -20.546592     2A    -11.265475     3A    -11.213795
       4A    -11.210242     5A    -11.203887     6A     -1.364154
       7A     -1.066665     8A     -0.971351     9A     -0.874890
      10A     -0.786420    11A     -0.688738    12A     -0.641141
      13A     -0.627854    14A     -0.579983    15A     -0.563924
      16A     -0.537479    17A     -0.506224    18A     -0.487609
      19A     -0.470276    20A     -0.454668    21A     -0.429000

  @DF-RHF Final Energy:  -232.23705653819880

   => Energetics <=

    Nuclear Repulsion Energy =            191.5088974682974765
    One-Electron Energy =                -694.5111735455529924
    Two-Electron Energy =                 270.7652195390566590
    DFT Exchange-Correlation Energy =       0.0000000000000000
    Empirical Dispersion Energy =           0.0000000000000000
    PCM Polarization Energy =               0.0000000000000000
    EFP Energy =                            0.0000000000000000
    Total Energy =                       -232.2370565381988285
    Molecular point group: c1
  Basis Set: CC-PVTZ
  Basis Set:

  -Total Gradient:
     Atom            X                  Y                   Z
    ------   -----------------  -----------------  -----------------
       1        0.000662702934     0.000075245686     0.001024799455
       2       -0.000972094790    -0.000308914309    -0.001203658312
       3        0.000852289444     0.000777031624     0.000009538255
       4       -0.000478019589    -0.000551333062     0.000159563617
       5        0.000010392056    -0.000008584125    -0.000002932687
       6       -0.000020971335     0.000016070439     0.000015960871
       7        0.000000658232     0.000026322398     0.000054230559
       8        0.000035110423     0.000041976695    -0.000010522070
       9       -0.000003144284    -0.000003142947     0.000004515906
      10       -0.000047758151    -0.000024453545    -0.000014920884
      11        0.000021086395    -0.000014265825    -0.000011976920
      12       -0.000033868245     0.000007824665    -0.000044516935
      13       -0.000035619813    -0.000024006686     0.000010467402
      14        0.000012722747    -0.000011048126     0.000009486455
      15       -0.000003486022     0.000001277119    -0.000000034712

  **** Optimization is complete! (in 9 steps) ****
    Final optimized geometry and variables:
    Molecular point group: c1

    Geometry (in Angstrom), charge = 0, multiplicity = 1:

    H            2.493908861193    -0.107892289835    -0.097296889034
    O            1.775831827904    -0.509539051508     0.355975314896
    C            0.882263891629     0.473597324044     0.811723378074
    C           -0.054742578170     0.975979619173    -0.278275010733
    H            1.424748256945     1.312020725816     1.239807518353
    H            0.320420122127     0.018957348596     1.616149400985
    C           -0.912475373785    -0.102169810356    -0.942418511074
    H            0.539153998965     1.473103860060    -1.042007756634
    H           -0.696107516896     1.740410282459     0.155105351164
    C           -1.928944318567    -0.762643924743    -0.014372489509
    H           -0.263889135508    -0.860847159238    -1.364477001431
    H           -1.441041723963     0.351153583952    -1.775420856801
    H           -2.550636371522    -1.460595535552    -0.563230036058
    H           -1.447415845182    -1.316675527740     0.782273246706
    H           -2.583737460535    -0.025556117297     0.440178658951

  Mulliken Charges: (a.u.)
   Center  Symbol    Alpha    Beta     Spin     Total
       1     H     0.39428  0.39428  0.00000  0.21145
       2     O     4.20456  4.20456  0.00000 -0.40913
       3     C     2.98283  2.98283  0.00000  0.03433
       4     C     3.09960  3.09960  0.00000 -0.19920
       5     H     0.45856  0.45856  0.00000  0.08288
       6     H     0.45697  0.45697  0.00000  0.08606
       7     C     3.08261  3.08261  0.00000 -0.16522
       8     H     0.45456  0.45456  0.00000  0.09089
       9     H     0.45547  0.45547  0.00000  0.08906
      10     C     3.15478  3.15478  0.00000 -0.30955
      11     H     0.45012  0.45012  0.00000  0.09976
      12     H     0.45069  0.45069  0.00000  0.09861
      13     H     0.44683  0.44683  0.00000  0.10633
      14     H     0.45126  0.45126  0.00000  0.09748
      15     H     0.45688  0.45688  0.00000  0.08625

   Total alpha = 21.00000, Total beta = 21.00000, Total charge =  0.00000

*** Psi4 exiting successfully. Buy a developer a beer!
