  ==> Input File <==

--------------------------------------------------------------------------
set {
	reference rhf
	basis 6-31G*
}

set_num_threads( 4 )
memory 2 gb

molecule MOL {
0 1

H	 4.004620	 -0.221562	 2.748116
C	 3.307438	 -0.721996	 2.083847
C	 2.004882	 0.066940	 1.957791
H	 3.793893	 -0.833247	 1.118854
H	 3.130161	 -1.717521	 2.481024
C	 0.995108	 -0.603762	 1.032095
H	 2.206384	 1.065906	 1.583821
H	 1.561135	 0.189035	 2.944489
N	 -0.214000	 0.187187	 0.914130
H	 1.428258	 -0.702142	 0.040296
H	 0.794791	 -1.621214	 1.384292
C	 -1.217365	 -0.386708	 0.039277
H	 -0.608561	 0.329900	 1.824622
C	 -2.452633	 0.504241	 -0.042481
H	 -0.780507	 -0.485400	 -0.950860
H	 -1.512715	 -1.394860	 0.348762
C	 -3.758029	 -0.289423	 -0.010781
H	 -2.394220	 1.093569	 -0.952170
H	 -2.440793	 1.210787	 0.785871
H	 -3.816659	 -0.981993	 -0.845726
H	 -4.617837	 0.370165	 -0.069296
H	 -3.847478	 -0.867502	 0.904682

	symmetry c1
}
set optking {
	frozen_dihedral = ("
		15 12 14 18
	")
}

ee = optimize('scf')
oeprop('DIPOLE', 'QUADRUPOLE', 'MULLIKEN_CHARGES')
f=open( 'psi4out.xyz', 'w' )
f.write( "22  " )
f.write( str(ee) + "\n" )
f.write( MOL.save_string_xyz() )
f.close()
--------------------------------------------------------------------------

    Molecular point group: c1
  Charge       = 0
  Multiplicity = 1
  Basis Set: 6-31G*
  Basis Set:
  @DF-RHF Final Energy:  -290.37803338337147
    Total Energy =                       -290.3780333833718714
    Molecular point group: c1
  Basis Set: 6-31G*
  Basis Set:
  Basis Set: 6-31G*
  Basis Set:
  @DF-RHF Final Energy:  -290.37836461000956
    Total Energy =                       -290.3783646100092710
  Basis Set: 6-31G*
  Basis Set:
  Basis Set: 6-31G*
  Basis Set:
  @DF-RHF Final Energy:  -290.37847210824685
    Total Energy =                       -290.3784721082461715
  Basis Set: 6-31G*
  Basis Set:
  Basis Set: 6-31G*
  Basis Set:
  @DF-RHF Final Energy:  -290.37847328416757
    Total Energy =                       -290.3784732841677396
  Basis Set: 6-31G*
  Basis Set:
  Charge       = 0
  Multiplicity = 1
  Basis Set: 6-31G*
  Basis Set:

    Orbital Energies (a.u.)
    -----------------------

    Doubly Occupied:

       1A    -15.533579     2A    -11.238270     3A    -11.237583
       4A    -11.213570     5A    -11.213474     6A    -11.209655
       7A    -11.209441     8A     -1.204841     9A     -1.057770
      10A     -1.024970    11A     -0.927569    12A     -0.868725
      13A     -0.810500    14A     -0.794100    15A     -0.667835
      16A     -0.629177    17A     -0.616635    18A     -0.602618
      19A     -0.575801    20A     -0.563058    21A     -0.539078
      22A     -0.527619    23A     -0.508083    24A     -0.487279
      25A     -0.481854    26A     -0.472824    27A     -0.465158
      28A     -0.449893    29A     -0.358313

  @DF-RHF Final Energy:  -290.37847362002697

   => Energetics <=

    Nuclear Repulsion Energy =            313.3160358159869929
    One-Electron Energy =               -1012.4104749988680396
    Two-Electron Energy =                 408.7159655628544215
    DFT Exchange-Correlation Energy =       0.0000000000000000
    Empirical Dispersion Energy =           0.0000000000000000
    PCM Polarization Energy =               0.0000000000000000
    EFP Energy =                            0.0000000000000000
    Total Energy =                       -290.3784736200266252
    Molecular point group: c1
  Basis Set: 6-31G*
  Basis Set:

  -Total Gradient:
     Atom            X                  Y                   Z
    ------   -----------------  -----------------  -----------------
       1        0.000003076552    -0.000000847384    -0.000000681005
       2        0.000003978869     0.000007392546     0.000004897056
       3        0.000012958671    -0.000020103716    -0.000001379784
       4       -0.000001091374    -0.000000162094    -0.000000569941
       5       -0.000001751114     0.000001893070     0.000000455607
       6       -0.000001965246     0.000022641438     0.000011525103
       7        0.000000966868     0.000001806092     0.000000660047
       8        0.000001085465    -0.000001529252     0.000003001107
       9       -0.000006929275    -0.000021192747    -0.000040907824
      10        0.000009381330    -0.000004808806     0.000001971746
      11        0.000008973926    -0.000006831641     0.000002845896
      12       -0.003370277678    -0.004648193960    -0.001362532360
      13       -0.000012108789    -0.000016693274    -0.000030922807
      14        0.002986902275     0.004324541121     0.002661293939
      15        0.002335255105     0.003255914784     0.000748509468
      16       -0.000009091534     0.000043234140    -0.000005076348
      17       -0.000005931648     0.000006567438     0.000040118586
      18       -0.001947071814    -0.002915076353    -0.002034653095
      19        0.000001371075    -0.000035547897     0.000010589705
      20        0.000026187493    -0.000002699972     0.000002398729
      21       -0.000012402084     0.000001300708    -0.000007753690
      22       -0.000021517071     0.000008395760    -0.000003790133

  **** Optimization is complete! (in 5 steps) ****
    Final optimized geometry and variables:
    Molecular point group: c1

    Geometry (in Angstrom), charge = 0, multiplicity = 1:

    H            4.221287724542    -0.021340118590     1.859581119643
    C            3.519267954898    -0.524294293554     1.202308869806
    C            2.210989904735     0.257611428086     1.093062019719
    H            3.995098983544    -0.630782875339     0.231528683061
    H            3.352122494363    -1.521629597505     1.599351516166
    C            1.194640110068    -0.416169710781     0.176747376956
    H            2.402739998346     1.258662371631     0.719583457108
    H            1.777748231938     0.374525038181     2.085110354445
    N           -0.019080836340     0.369112331972     0.072727944509
    H            1.618252457253    -0.511281651618    -0.819590553499
    H            1.003068840622    -1.435398658241     0.529337912915
    C           -1.033885180726    -0.216628369803    -0.785802077661
    H           -0.401334093151     0.513164140396     0.988319400103
    C           -2.268509699781     0.695448810674    -0.886782786438
    H           -0.580014141496    -0.327357556879    -1.765398875079
    H           -1.327417038015    -1.215842880957    -0.451546633527
    C           -3.584607122167    -0.084394140306    -0.914690209281
    H           -2.205589702744     1.288772962759    -1.793418669089
    H           -2.274711931716     1.390882687172    -0.053286756443
    H           -3.608824053139    -0.784437197198    -1.745491471835
    H           -4.434042119537     0.582920660541    -1.022656868062
    H           -3.724490614496    -0.655191100696    -0.000777779691

  Mulliken Charges: (a.u.)
   Center  Symbol    Alpha    Beta     Spin     Total
       1     H     0.41777  0.41777  0.00000  0.16447
       2     C     3.24322  3.24322  0.00000 -0.48644
       3     C     3.15556  3.15556  0.00000 -0.31112
       4     H     0.42070  0.42070  0.00000  0.15859
       5     H     0.42169  0.42169  0.00000  0.15662
       6     C     3.04712  3.04712  0.00000 -0.09424
       7     H     0.41291  0.41291  0.00000  0.17417
       8     H     0.42677  0.42677  0.00000  0.14646
       9     N     3.85808  3.85808  0.00000 -0.71616
      10     H     0.42193  0.42193  0.00000  0.15614
      11     H     0.43648  0.43648  0.00000  0.12704
      12     C     3.05135  3.05135  0.00000 -0.10271
      13     H     0.33577  0.33577  0.00000  0.32845
      14     C     3.15653  3.15653  0.00000 -0.31307
      15     H     0.41934  0.41934  0.00000  0.16131
      16     H     0.43298  0.43298  0.00000  0.13405
      17     C     3.24344  3.24344  0.00000 -0.48688
      18     H     0.41655  0.41655  0.00000  0.16689
      19     H     0.41832  0.41832  0.00000  0.16335
      20     H     0.42155  0.42155  0.00000  0.15690
      21     H     0.41924  0.41924  0.00000  0.16152
      22     H     0.42268  0.42268  0.00000  0.15464

   Total alpha = 29.00000, Total beta = 29.00000, Total charge =  0.00000
