                              Psi4 1.0.54 Driver

  ==> Input File <==

--------------------------------------------------------------------------
set {
	reference rhf
	basis cc-pvtz
}

set_num_threads( 4 )
memory 2 gb

molecule MOL {
0 1

H	 -3.162190	 0.493205	 -0.000107
C	 -2.363908	 -0.234727	 0.000005
O	 -1.158738	 0.454634	 -0.000087
H	 -2.464314	 -0.863616	 -0.882153
H	 -2.464327	 -0.863359	 0.882345
C	 -0.028611	 -0.359694	 0.000037
C	 0.391852	 -0.630283	 -1.430482
H	 -0.243791	 -1.297769	 0.512240
H	 0.781799	 0.125553	 0.544474
C	 1.627753	 -1.518870	 -1.515994
H	 -0.438050	 -1.093370	 -1.952726
H	 0.579435	 0.318627	 -1.920721
H	 1.453643	 -2.484046	 -1.052088
H	 1.905590	 -1.695877	 -2.547738
H	 2.477994	 -1.062488	 -1.020137

	symmetry c1
}
set optking {
	frozen_dihedral = ("
		8 6 3 2
	")
}

ee,wfn = optimize('scf', return_wfn=True)
oeprop( wfn, 'DIPOLE', 'QUADRUPOLE', 'MULLIKEN_CHARGES')
f=open( 'psi4out.xyz', 'w' )
f.write( "15  " )
f.write( str(ee) + "\n" )
f.write( MOL.save_string_xyz() )
f.close()
--------------------------------------------------------------------------

    Molecular point group: c1
  Charge       = 0
  Multiplicity = 1
  Basis Set: CC-PVTZ
  Basis Set:
  @DF-RHF Final Energy:  -232.22393758572107
    Total Energy =                       -232.2239375857212167
    Molecular point group: c1
  Basis Set: CC-PVTZ
  Basis Set:
  Basis Set: CC-PVTZ
  Basis Set:
  @DF-RHF Final Energy:  -232.22480284925498
    Total Energy =                       -232.2248028492550134
  Basis Set: CC-PVTZ
  Basis Set:
  Basis Set: CC-PVTZ
  Basis Set:
  @DF-RHF Final Energy:  -232.22511988265421
    Total Energy =                       -232.2251198826542691
  Basis Set: CC-PVTZ
  Basis Set:
  Charge       = 0
  Multiplicity = 1
  Basis Set: CC-PVTZ
  Basis Set:

    Orbital Energies (a.u.)
    -----------------------

    Doubly Occupied:

       1A    -20.545225     2A    -11.264191     3A    -11.261896
       4A    -11.213878     5A    -11.211977     6A     -1.377805
       7A     -1.057099     8A     -0.958672     9A     -0.881514
      10A     -0.807318    11A     -0.670694    12A     -0.656846
      13A     -0.638333    14A     -0.600115    15A     -0.567988
      16A     -0.534449    17A     -0.515154    18A     -0.497064
      19A     -0.484030    20A     -0.460893    21A     -0.407560

  @DF-RHF Final Energy:  -232.22512436009669

   => Energetics <=

    Nuclear Repulsion Energy =            191.2178518702477845
    One-Electron Energy =                -693.6605486935829958
    Two-Electron Energy =                 270.2175724632385254
    DFT Exchange-Correlation Energy =       0.0000000000000000
    Empirical Dispersion Energy =           0.0000000000000000
    PCM Polarization Energy =               0.0000000000000000
    EFP Energy =                            0.0000000000000000
    Total Energy =                       -232.2251243600966859
    Molecular point group: c1
  Basis Set: CC-PVTZ
  Basis Set:

  -Total Gradient:
     Atom            X                  Y                   Z
    ------   -----------------  -----------------  -----------------
       1        0.000014697673     0.000016574231    -0.000000530532
       2        0.000075986601    -0.000027846980     0.000766902493
       3       -0.000108394844    -0.000110614222    -0.001238929818
       4        0.000004020500     0.000003231306     0.000002239079
       5       -0.000010255884    -0.000001756332     0.000000551684
       6        0.000303062943     0.000450121859     0.001168597223
       7        0.000108071092     0.000002698927     0.000072813896
       8       -0.000343636988    -0.000352285964    -0.000711093859
       9       -0.000033676791     0.000020524725     0.000010262336
      10       -0.000039538509    -0.000007188232    -0.000047234636
      11        0.000017367653    -0.000000002758     0.000007927438
      12       -0.000015854482     0.000024802160    -0.000010605727
      13        0.000018246703     0.000009645987     0.000000782989
      14        0.000022111303    -0.000018347259    -0.000018492463
      15       -0.000012206973    -0.000009557446    -0.000003190103

  **** Optimization is complete! (in 4 steps) ****
    Final optimized geometry and variables:
    Molecular point group: c1

    Geometry (in Angstrom), charge = 0, multiplicity = 1:

    H           -2.843908991824     0.991769395051     0.657810422957
    C           -2.064660315640     0.243337601777     0.642315021111
    O           -0.844578141457     0.906649535504     0.585402163020
    H           -2.223376998875    -0.399874273006    -0.219576587500
    H           -2.145114672175    -0.361734449660     1.542434017392
    C            0.289485930904     0.091341159701     0.535953512117
    C            0.742390761583    -0.189286656950    -0.889537112526
    H            0.103895231846    -0.845928798901     1.057645422571
    H            1.074713894752     0.611113095364     1.072400004933
    C            2.005854673701    -1.041889904877    -0.937910370098
    H           -0.055218857181    -0.686526772656    -1.432311566546
    H            0.912739639781     0.759456967818    -1.386783498636
    H            1.849059199403    -2.007982212696    -0.469348120880
    H            2.317095676053    -1.219260944317    -1.960179786784
    H            2.827993582446    -0.555772350727    -0.423184914979

  Mulliken Charges: (a.u.)
   Center  Symbol    Alpha    Beta     Spin     Total
       1     H     0.44738  0.44738  0.00000  0.10524
       2     C     3.03217  3.03217  0.00000 -0.06433
       3     O     4.17930  4.17930  0.00000 -0.35860
       4     H     0.47286  0.47286  0.00000  0.05428
       5     H     0.46979  0.46979  0.00000  0.06042
       6     C     2.97500  2.97500  0.00000  0.05000
       7     C     3.08162  3.08162  0.00000 -0.16323
       8     H     0.47406  0.47406  0.00000  0.05188
       9     H     0.44965  0.44965  0.00000  0.10071
      10     C     3.15382  3.15382  0.00000 -0.30763
      11     H     0.45680  0.45680  0.00000  0.08641
      12     H     0.45101  0.45101  0.00000  0.09798
      13     H     0.45557  0.45557  0.00000  0.08885
      14     H     0.44670  0.44670  0.00000  0.10660
      15     H     0.45428  0.45428  0.00000  0.09143

   Total alpha = 21.00000, Total beta = 21.00000, Total charge = -0.00000

*** Psi4 exiting successfully. Buy a developer a beer!
