  ==> Input File <==

--------------------------------------------------------------------------
set {
	reference rhf
	basis 6-31G*
}

set_num_threads( 4 )
memory 2 gb

molecule MOL {
0 1

H	 -2.796182	 0.440430	 0.367561
O	 -2.035884	 -0.060112	 0.102722
C	 -0.955155	 0.788182	 -0.092531
C	 0.353668	 0.040312	 -0.004810
H	 -0.985057	 1.290372	 -1.054184
H	 -0.974469	 1.533190	 0.688632
F	 0.394464	 -0.937475	 -0.903053
F	 1.368604	 0.853376	 -0.249821
F	 0.546173	 -0.502608	 1.179981

	symmetry c1
}
set optking {
	frozen_dihedral = ("
		1 2 3 5
	")
}

ee = optimize('scf')
oeprop('DIPOLE', 'QUADRUPOLE', 'MULLIKEN_CHARGES')
f=open( 'psi4out.xyz', 'w' )
f.write( "9  " )
f.write( str(ee) + "\n" )
f.write( MOL.save_string_xyz() )
f.close()
--------------------------------------------------------------------------

    Molecular point group: c1
  Charge       = 0
  Multiplicity = 1
  Basis Set: 6-31G*
  Basis Set:
  @DF-RHF Final Energy:  -450.65783264594575
    Total Energy =                       -450.6578326459454615
    Molecular point group: c1
  Basis Set: 6-31G*
  Basis Set:
  Basis Set: 6-31G*
  Basis Set:
  @DF-RHF Final Energy:  -450.65928203480667
    Total Energy =                       -450.6592820348066653
  Basis Set: 6-31G*
  Basis Set:
  Basis Set: 6-31G*
  Basis Set:
  @DF-RHF Final Energy:  -450.65956302279551
    Total Energy =                       -450.6595630227956235
  Basis Set: 6-31G*
  Basis Set:
  Basis Set: 6-31G*
  Basis Set:
  @DF-RHF Final Energy:  -450.65957437273966
    Total Energy =                       -450.6595743727397121
  Basis Set: 6-31G*
  Basis Set:
  Charge       = 0
  Multiplicity = 1
  Basis Set: 6-31G*
  Basis Set:

    Orbital Energies (a.u.)
    -----------------------

    Doubly Occupied:

       1A    -26.336542     2A    -26.332713     3A    -26.332475
       4A    -20.589190     5A    -11.496412     6A    -11.309835
       7A     -1.733271     8A     -1.631076     9A     -1.629410
      10A     -1.401316    11A     -1.047884    12A     -0.916452
      13A     -0.825032    14A     -0.822944    15A     -0.782417
      16A     -0.733506    17A     -0.706396    18A     -0.695690
      19A     -0.666075    20A     -0.649075    21A     -0.636716
      22A     -0.634141    23A     -0.594593    24A     -0.528407
      25A     -0.478976

  @DF-RHF Final Energy:  -450.65957653060019

   => Energetics <=

    Nuclear Repulsion Energy =            277.1139820822758679
    One-Electron Energy =               -1176.5260325188407933
    Two-Electron Energy =                 448.7524739059645640
    DFT Exchange-Correlation Energy =       0.0000000000000000
    Empirical Dispersion Energy =           0.0000000000000000
    PCM Polarization Energy =               0.0000000000000000
    EFP Energy =                            0.0000000000000000
    Total Energy =                       -450.6595765306003045
    Molecular point group: c1
  Basis Set: 6-31G*
  Basis Set:

  -Total Gradient:
     Atom            X                  Y                   Z
    ------   -----------------  -----------------  -----------------
       1        0.000107493795    -0.000022503091     0.000381101172
       2        0.000005918527     0.000045754303    -0.000567882094
       3       -0.000287835993     0.000282027022     0.000343474186
       4        0.000079954082     0.000114991587     0.000124468096
       5        0.000157939586    -0.000304386893    -0.000131906673
       6       -0.000029214627    -0.000010110346    -0.000004184412
       7        0.000026980242    -0.000026762383    -0.000038845319
       8       -0.000033401171    -0.000088292779    -0.000034997183
       9       -0.000027834434     0.000009282581    -0.000071227772

  **** Optimization is complete! (in 5 steps) ****
    Final optimized geometry and variables:
    Molecular point group: c1

    Geometry (in Angstrom), charge = 0, multiplicity = 1:

    H           -2.775141183494     0.384339238818     0.342986894114
    O           -1.990189048702    -0.087000316991     0.104388970199
    C           -0.940806922529     0.801789956088    -0.098834469741
    C            0.348925591856     0.023563815263    -0.023178544424
    H           -0.983685133038     1.270252098515    -1.076440057668
    H           -0.895629265374     1.574946603217     0.660310488437
    F            0.402241809569    -0.934493807501    -0.927181037413
    F            1.369630423160     0.842170508326    -0.242078964474
    F            0.524444789842    -0.527070428490     1.162321446308

  Mulliken Charges: (a.u.)
   Center  Symbol    Alpha    Beta     Spin     Total
       1     H     0.27132  0.27132  0.00000  0.45736
       2     O     4.36334  4.36334  0.00000 -0.72667
       3     C     3.05294  3.05294  0.00000 -0.10588
       4     C     2.45301  2.45301  0.00000  1.09397
       5     H     0.40940  0.40940  0.00000  0.18120
       6     H     0.41066  0.41066  0.00000  0.17868
       7     F     4.67664  4.67664  0.00000 -0.35327
       8     F     4.68547  4.68547  0.00000 -0.37093
       9     F     4.67723  4.67723  0.00000 -0.35446

   Total alpha = 25.00000, Total beta = 25.00000, Total charge =  0.00000
