  ==> Input File <==

--------------------------------------------------------------------------
set {
	reference rhf
	basis 6-31G*
}

set_num_threads( 4 )
memory 2 gb

molecule MOL {
0 1

H	 -2.098997	 -0.674324	 -0.616650
O	 -2.035884	 -0.060112	 0.102722
C	 -0.955155	 0.788182	 -0.092531
C	 0.353668	 0.040312	 -0.004810
H	 -0.985057	 1.290372	 -1.054184
H	 -0.974469	 1.533190	 0.688632
F	 0.176749	 -1.146223	 0.565635
F	 0.851065	 -0.165412	 -1.213724
F	 1.258378	 0.687607	 0.700923

	symmetry c1
}
set optking {
	frozen_dihedral = ("
		7 4 3 5
	")
}

ee = optimize('scf')
oeprop('DIPOLE', 'QUADRUPOLE', 'MULLIKEN_CHARGES')
f=open( 'psi4out.xyz', 'w' )
f.write( "9  " )
f.write( str(ee) + "\n" )
f.write( MOL.save_string_xyz() )
f.close()
--------------------------------------------------------------------------

    Molecular point group: c1
  Charge       = 0
  Multiplicity = 1
  Basis Set: 6-31G*
  Basis Set:
  @DF-RHF Final Energy:  -450.65516162604058
    Total Energy =                       -450.6551616260406945
    Molecular point group: c1
  Basis Set: 6-31G*
  Basis Set:
  Basis Set: 6-31G*
  Basis Set:
  @DF-RHF Final Energy:  -450.65579760129452
    Total Energy =                       -450.6557976012945801
  Basis Set: 6-31G*
  Basis Set:
  Basis Set: 6-31G*
  Basis Set:
  @DF-RHF Final Energy:  -450.65627774414128
    Total Energy =                       -450.6562777441411640
  Basis Set: 6-31G*
  Basis Set:
  Basis Set: 6-31G*
  Basis Set:
  @DF-RHF Final Energy:  -450.65629880889327
    Total Energy =                       -450.6562988088930979
  Basis Set: 6-31G*
  Basis Set:
  Basis Set: 6-31G*
  Basis Set:
  @DF-RHF Final Energy:  -450.65630103318352
    Total Energy =                       -450.6563010331838655
  Basis Set: 6-31G*
  Basis Set:
  Charge       = 0
  Multiplicity = 1
  Basis Set: 6-31G*
  Basis Set:

    Orbital Energies (a.u.)
    -----------------------

    Doubly Occupied:

       1A    -26.341451     2A    -26.340057     3A    -26.337963
       4A    -20.589354     5A    -11.500299     6A    -11.309969
       7A     -1.738988     8A     -1.638079     9A     -1.633296
      10A     -1.400766    11A     -1.043010    12A     -0.923064
      13A     -0.828041    14A     -0.826557    15A     -0.804294
      16A     -0.726881    17A     -0.711994    18A     -0.695923
      19A     -0.663156    20A     -0.656249    21A     -0.640044
      22A     -0.627112    23A     -0.609748    24A     -0.527620
      25A     -0.479915

  @DF-RHF Final Energy:  -450.65630125776795

   => Energetics <=

    Nuclear Repulsion Energy =            275.9951036839996732
    One-Electron Energy =               -1174.1151535567450992
    Two-Electron Energy =                 447.4637486149775896
    DFT Exchange-Correlation Energy =       0.0000000000000000
    Empirical Dispersion Energy =           0.0000000000000000
    PCM Polarization Energy =               0.0000000000000000
    EFP Energy =                            0.0000000000000000
    Total Energy =                       -450.6563012577678364
    Molecular point group: c1
  Basis Set: 6-31G*
  Basis Set:

  -Total Gradient:
     Atom            X                  Y                   Z
    ------   -----------------  -----------------  -----------------
       1        0.000002685104    -0.000009458241     0.000005670916
       2       -0.000009721693     0.000005651777    -0.000005287759
       3        0.001936992375     0.003433374866     0.000950895539
       4        0.000447303342     0.001186661649     0.003722069495
       5       -0.001748972853    -0.003250216183    -0.001612220852
       6       -0.000000522843     0.000008351641     0.000004370048
       7       -0.000616916656    -0.001361447167    -0.003090010058
       8       -0.000020060136    -0.000023419183    -0.000025878691
       9        0.000009213361     0.000010500846     0.000050391363

  **** Optimization is complete! (in 6 steps) ****
    Final optimized geometry and variables:
    Molecular point group: c1

    Geometry (in Angstrom), charge = 0, multiplicity = 1:

    H           -2.150893919298    -0.640492621915    -0.639386009530
    O           -2.071429598734    -0.034202463228     0.084670504340
    C           -0.967436439017     0.790403202575    -0.088392228972
    C            0.357810673460     0.032480441111     0.001225373865
    H           -0.992624315098     1.285364385499    -1.052615282036
    H           -0.994187897512     1.527032405921     0.698909060361
    F            0.226404977881    -1.148987710672     0.567205208176
    F            0.863858765164    -0.180093992626    -1.210413916304
    F            1.258245868414     0.722902462936     0.679662718244

  Mulliken Charges: (a.u.)
   Center  Symbol    Alpha    Beta     Spin     Total
       1     H     0.27442  0.27442  0.00000  0.45116
       2     O     4.35885  4.35885  0.00000 -0.71770
       3     C     3.06619  3.06619  0.00000 -0.13237
       4     C     2.46004  2.46004  0.00000  1.07992
       5     H     0.40547  0.40547  0.00000  0.18907
       6     H     0.39242  0.39242  0.00000  0.21516
       7     F     4.67446  4.67446  0.00000 -0.34891
       8     F     4.68649  4.68649  0.00000 -0.37298
       9     F     4.68167  4.68167  0.00000 -0.36334

   Total alpha = 25.00000, Total beta = 25.00000, Total charge =  0.00000
