  ==> Input File <==

--------------------------------------------------------------------------
set {
	reference rhf
	basis cc-pvtz
}

set_num_threads( 4 )
memory 2 gb

molecule MOL {
0 1

H	 1.355422	 -1.345685	 0.175438
C	 0.788096	 -0.429819	 0.000000
N	 -0.537714	 -0.645117	 0.000000
O	 1.326235	 0.618584	 -0.167262
C	 -1.522613	 0.412524	 0.000000
H	 -0.845894	 -1.585866	 0.000000
H	 -2.150256	 0.356137	 -0.880771
H	 -1.005621	 1.357208	 0.000000
H	 -2.150256	 0.356137	 0.880771

	symmetry c1
}
set optking {
	frozen_dihedral = ("
		1 2 3 6
	")
}

ee = optimize('scf')
oeprop('DIPOLE', 'QUADRUPOLE', 'MULLIKEN_CHARGES')
f=open( 'psi4out.xyz', 'w' )
f.write( "9  " )
f.write( str(ee) + "\n" )
f.write( MOL.save_string_xyz() )
f.close()
--------------------------------------------------------------------------

    Molecular point group: c1
  Charge       = 0
  Multiplicity = 1
  Basis Set: CC-PVTZ
  Basis Set:
  @DF-RHF Final Energy:  -208.04241386429837
    Total Energy =                       -208.0424138642983962
    Molecular point group: c1
  Basis Set: CC-PVTZ
  Basis Set:
  Basis Set: CC-PVTZ
  Basis Set:
  @DF-RHF Final Energy:  -208.04246029476519
    Total Energy =                       -208.0424602947651636
  Basis Set: CC-PVTZ
  Basis Set:
  Basis Set: CC-PVTZ
  Basis Set:
  @DF-RHF Final Energy:  -208.04322160734662
    Total Energy =                       -208.0432216073465952
  Basis Set: CC-PVTZ
  Basis Set:
  Basis Set: CC-PVTZ
  Basis Set:
  @DF-RHF Final Energy:  -208.04335927248178
    Total Energy =                       -208.0433592724817800
  Basis Set: CC-PVTZ
  Basis Set:
  @DF-RHF Final Energy:  -208.04337651985691
    Total Energy =                       -208.0433765198568778
  @DF-RHF Final Energy:  -208.04338352245625
    Total Energy =                       -208.0433835224562813
  @DF-RHF Final Energy:  -208.04340335253869
    Total Energy =                       -208.0434033525386894
  @DF-RHF Final Energy:  -208.04346085217887
    Total Energy =                       -208.0434608521788107
  @DF-RHF Final Energy:  -208.04351451871008
    Total Energy =                       -208.0435145187101682
  @DF-RHF Final Energy:  -208.04352737237201
    Total Energy =                       -208.0435273723718979
  @DF-RHF Final Energy:  -208.04353903762632
    Total Energy =                       -208.0435390376262603
  @DF-RHF Final Energy:  -208.04355012288892
    Total Energy =                       -208.0435501228889734
  @DF-RHF Final Energy:  -208.04356052524889
    Total Energy =                       -208.0435605252489495
  @DF-RHF Final Energy:  -208.04357022596596
    Total Energy =                       -208.0435702259659365
  @DF-RHF Final Energy:  -208.04357916824532
    Total Energy =                       -208.0435791682451452
  @DF-RHF Final Energy:  -208.04358731333343
    Total Energy =                       -208.0435873133334042
  @DF-RHF Final Energy:  -208.04359461735109
    Total Energy =                       -208.0435946173511752
  @DF-RHF Final Energy:  -208.04360104318337
    Total Energy =                       -208.0436010431833722
  @DF-RHF Final Energy:  -208.04360655372625
    Total Energy =                       -208.0436065537263062
  @DF-RHF Final Energy:  -208.04360767832574
    Total Energy =                       -208.0436076783257988
  @DF-RHF Final Energy:  -208.04360875956192
    Total Energy =                       -208.0436087595618915
  Basis Set: CC-PVTZ
  Basis Set:
  @DF-RHF Final Energy:  -208.04361041619322
    Total Energy =                       -208.0436104161932747
  Basis Set: CC-PVTZ
  Basis Set:
  Basis Set: CC-PVTZ
  Basis Set:
  @DF-RHF Final Energy:  -208.04361200690136
    Total Energy =                       -208.0436120069013555
  Basis Set: CC-PVTZ
  Basis Set:
  Basis Set: CC-PVTZ
  Basis Set:
  @DF-RHF Final Energy:  -208.04361325551162
    Total Energy =                       -208.0436132555115023
  Basis Set: CC-PVTZ
  Basis Set:
  Charge       = 0
  Multiplicity = 1
  Basis Set: CC-PVTZ
  Basis Set:

    Orbital Energies (a.u.)
    -----------------------

    Doubly Occupied:

       1A    -20.517211     2A    -15.584642     3A    -11.336971
       4A    -11.259659     5A     -1.394449     6A     -1.239709
       7A     -0.969747     8A     -0.808554     9A     -0.748681
      10A     -0.646458    11A     -0.630084    12A     -0.596072
      13A     -0.557222    14A     -0.539502    15A     -0.428937
      16A     -0.396914

  @DF-RHF Final Energy:  -208.04361408705506

   => Energetics <=

    Nuclear Repulsion Energy =            122.8358250041832633
    One-Electron Energy =                -526.4492552389772300
    Two-Electron Energy =                 195.5698161477389760
    DFT Exchange-Correlation Energy =       0.0000000000000000
    Empirical Dispersion Energy =           0.0000000000000000
    PCM Polarization Energy =               0.0000000000000000
    EFP Energy =                            0.0000000000000000
    Total Energy =                       -208.0436140870549764
    Molecular point group: c1
  Basis Set: CC-PVTZ
  Basis Set:

  -Total Gradient:
     Atom            X                  Y                   Z
    ------   -----------------  -----------------  -----------------
       1        0.000091932146     0.000258259776     0.001083475465
       2       -0.000356694213    -0.000316972230    -0.001400075537
       3        0.000276018844     0.000082524825     0.000661816233
       4        0.000015860892     0.000047037061     0.000013194337
       5        0.000171882316    -0.000074178474     0.000524276327
       6       -0.000135038103    -0.000024518172    -0.000792007998
       7       -0.000016811725    -0.000007403203     0.000008136877
       8        0.000035503551    -0.000008816228    -0.000107489174
       9       -0.000082653704     0.000044066646     0.000008673469

  **** Optimization is complete! (in 25 steps) ****
    Final optimized geometry and variables:
    Molecular point group: c1

    Geometry (in Angstrom), charge = 0, multiplicity = 1:

    H            1.373256809688    -1.344771851849     0.134868563352
    C            0.786386755380    -0.435230966721    -0.006556885866
    N           -0.519900869934    -0.620170572237     0.247678812117
    O            1.288042409018     0.596162844676    -0.323887809097
    C           -1.500674408336     0.430099510269     0.091222737536
    H           -0.832721938759    -1.550417773870     0.377402646229
    H           -1.848385311020     0.513282257135    -0.932216782868
    H           -1.059301442880     1.371137720826     0.377508084598
    H           -2.346430351198     0.227199207689     0.733334097864

  Mulliken Charges: (a.u.)
   Center  Symbol    Alpha    Beta     Spin     Total
       1     H     0.46351  0.46351  0.00000  0.07298
       2     C     2.88068  2.88068  0.00000  0.23864
       3     N     3.60624  3.60624  0.00000 -0.21249
       4     O     4.21362  4.21362  0.00000 -0.42724
       5     C     3.07856  3.07856  0.00000 -0.15712
       6     H     0.41093  0.41093  0.00000  0.17815
       7     H     0.45535  0.45535  0.00000  0.08929
       8     H     0.43752  0.43752  0.00000  0.12496
       9     H     0.45359  0.45359  0.00000  0.09282

   Total alpha = 16.00000, Total beta = 16.00000, Total charge = -0.00000
