  ==> Input File <==

--------------------------------------------------------------------------
set {
	reference rhf
	basis 6-31G*
}

set_num_threads( 1 )
memory 2 gb

molecule MOL {
0 1

O	 -2.042549	 -1.228399	 -0.269030
C	 -1.653912	 -0.146171	 0.050137
C	 -0.332303	 0.024011	 0.778412
C	 -2.438579	 1.106236	 -0.272369
C	 -0.044544	 1.508214	 1.054476
H	 -0.337347	 -0.531578	 1.712049
H	 0.447273	 -0.384922	 0.145200
C	 1.294231	 1.727031	 1.760756
H	 -0.843237	 1.931234	 1.661292
H	 -0.054126	 2.044139	 0.110107
C	 1.587097	 3.202750	 2.028504
H	 1.300582	 1.180242	 2.701185
H	 2.091793	 1.303907	 1.154597
H	 0.823609	 3.646189	 2.661356
H	 1.619325	 3.769761	 1.102813
H	 2.543120	 3.327805	 2.526908
H	 -3.277823	 0.863061	 -0.908988
H	 -1.806773	 1.843019	 -0.759671
H	 -2.802853	 1.554979	 0.648059

	symmetry c1
}
set optking {
	frozen_dihedral = ("
		11 8 5 9,
		9 5 3 2
	")
}

ee = energy('scf')
oeprop('DIPOLE', 'QUADRUPOLE', 'MULLIKEN_CHARGES')
f=open( 'psi4out.xyz', 'w' )
f.write( "19  " )
f.write( str(ee) + "\n" )
f.write( MOL.save_string_xyz() )
f.close()
--------------------------------------------------------------------------

    Molecular point group: c1

    Geometry (in Angstrom), charge = 0, multiplicity = 1:

       Center              X                  Y                   Z               Mass
    ------------   -----------------  -----------------  -----------------  -----------------
           O         -1.522757716184    -2.128852645574    -1.001885061507    15.994914619560
           C         -1.134120716184    -1.046624645574    -0.682718061507    12.000000000000
           C          0.187488283816    -0.876442645574     0.045556938493    12.000000000000
           C         -1.918787716184     0.205782354426    -1.005224061507    12.000000000000
           C          0.475247283816     0.607760354426     0.321620938493    12.000000000000
           H          0.182444283816    -1.432031645574     0.979193938493     1.007825032070
           H          0.967064283816    -1.285375645574    -0.587655061507     1.007825032070
           C          1.814022283816     0.826577354426     1.027900938493    12.000000000000
           H         -0.323445716184     1.030780354426     0.928436938493     1.007825032070
           H          0.465665283816     1.143685354426    -0.622748061507     1.007825032070
           C          2.106888283816     2.302296354426     1.295648938493    12.000000000000
           H          1.820373283816     0.279788354426     1.968329938493     1.007825032070
           H          2.611584283816     0.403453354426     0.421741938493     1.007825032070
           H          1.343400283816     2.745735354426     1.928500938493     1.007825032070
           H          2.139116283816     2.869307354426     0.369957938493     1.007825032070
           H          3.062911283816     2.427351354426     1.794052938493     1.007825032070
           H         -2.758031716184    -0.037392645574    -1.641843061507     1.007825032070
           H         -1.286981716184     0.942565354426    -1.492526061507     1.007825032070
           H         -2.283061716184     0.654525354426    -0.084796061507     1.007825032070

  Charge       = 0
  Multiplicity = 1
  Basis Set: 6-31G*
  Basis Set:

    Orbital Energies (a.u.)
    -----------------------

    Doubly Occupied:

       1A    -20.545776     2A    -11.325077     3A    -11.231558
       4A    -11.229766     5A    -11.226590     6A    -11.226178
       7A    -11.217122     8A     -1.391891     9A     -1.098015
      10A     -1.030925    11A     -0.979349    12A     -0.894825
      13A     -0.810328    14A     -0.732330    15A     -0.667377
      16A     -0.650162    17A     -0.628460    18A     -0.611949
      19A     -0.585419    20A     -0.571203    21A     -0.547288
      22A     -0.535506    23A     -0.531142    24A     -0.487587
      25A     -0.486190    26A     -0.479996    27A     -0.467372
      28A     -0.396107

  @DF-RHF Final Energy:  -309.05680286888924

   => Energetics <=

    Nuclear Repulsion Energy =            303.5360277061028000
    One-Electron Energy =               -1020.0147487977844776
    Two-Electron Energy =                 407.4219182227921010
    DFT Exchange-Correlation Energy =       0.0000000000000000
    Empirical Dispersion Energy =           0.0000000000000000
    PCM Polarization Energy =               0.0000000000000000
    EFP Energy =                            0.0000000000000000
    Total Energy =                       -309.0568028688895765

  Mulliken Charges: (a.u.)
   Center  Symbol    Alpha    Beta     Spin     Total
       1     O     4.26312  4.26312  0.00000 -0.52624
       2     C     2.73555  2.73555  0.00000  0.52889
       3     C     3.20102  3.20102  0.00000 -0.40204
       4     C     3.29540  3.29540  0.00000 -0.59080
       5     C     3.16806  3.16806  0.00000 -0.33613
       6     H     0.39942  0.39942  0.00000  0.20116
       7     H     0.39965  0.39965  0.00000  0.20071
       8     C     3.15008  3.15008  0.00000 -0.30015
       9     H     0.41941  0.41941  0.00000  0.16117
      10     H     0.41972  0.41972  0.00000  0.16057
      11     C     3.23970  3.23970  0.00000 -0.47940
      12     H     0.42089  0.42089  0.00000  0.15822
      13     H     0.42087  0.42087  0.00000  0.15826
      14     H     0.42109  0.42109  0.00000  0.15782
      15     H     0.42108  0.42108  0.00000  0.15784
      16     H     0.41688  0.41688  0.00000  0.16624
      17     H     0.39490  0.39490  0.00000  0.21020
      18     H     0.40762  0.40762  0.00000  0.18475
      19     H     0.40553  0.40553  0.00000  0.18894

   Total alpha = 28.00000, Total beta = 28.00000, Total charge =  0.00000
