  ==> Input File <==

--------------------------------------------------------------------------
set {
	reference rhf
	basis 6-31G*
}

set_num_threads( 4 )
memory 2 gb

molecule MOL {
0 1

H	 -2.365627	 -1.312883	 -0.379134
C	 -1.358347	 -1.274295	 0.019669
C	 -0.681945	 0.000119	 -0.470601
H	 -0.826096	 -2.155117	 -0.321105
H	 -1.409554	 -1.292283	 1.100109
C	 -1.357790	 1.274691	 0.020220
N	 0.739525	 -0.000142	 0.006128
H	 -0.594190	 0.000341	 -1.545128
H	 -2.364980	 1.313977	 -0.378631
H	 -0.825080	 2.155361	 -0.320114
H	 -1.409060	 1.292170	 1.100671
O	 1.597275	 -0.000059	 -0.821425
O	 0.921810	 -0.000300	 1.186032

	symmetry c1
}
set optking {
	frozen_dihedral = ("
		12 7 3 8
	")
}

ee = optimize('scf')
oeprop('DIPOLE', 'QUADRUPOLE', 'MULLIKEN_CHARGES')
f=open( 'psi4out.xyz', 'w' )
f.write( "13  " )
f.write( str(ee) + "\n" )
f.write( MOL.save_string_xyz() )
f.close()
--------------------------------------------------------------------------

    Molecular point group: c1
  Charge       = 0
  Multiplicity = 1
  Basis Set: 6-31G*
  Basis Set:
  @DF-RHF Final Energy:  -321.73922659698547
    Total Energy =                       -321.7392265969856453
    Molecular point group: c1
  Basis Set: 6-31G*
  Basis Set:
  Charge       = 0
  Multiplicity = 1
  Basis Set: 6-31G*
  Basis Set:

    Orbital Energies (a.u.)
    -----------------------

    Doubly Occupied:

       1A    -20.601530     2A    -20.597716     3A    -15.842793
       4A    -11.305766     5A    -11.246151     6A    -11.246117
       7A     -1.628570     8A     -1.414054     9A     -1.143978
      10A     -0.974718    11A     -0.957886    12A     -0.814088
      13A     -0.749441    14A     -0.728234    15A     -0.722072
      16A     -0.650593    17A     -0.594834    18A     -0.588893
      19A     -0.571375    20A     -0.530047    21A     -0.523184
      22A     -0.482634    23A     -0.468686    24A     -0.447171

  @DF-RHF Final Energy:  -321.73922621282742

   => Energetics <=

    Nuclear Repulsion Energy =            256.7808142839621155
    One-Electron Energy =                -947.3790217187126927
    Two-Electron Energy =                 368.8589812219229884
    DFT Exchange-Correlation Energy =       0.0000000000000000
    Empirical Dispersion Energy =           0.0000000000000000
    PCM Polarization Energy =               0.0000000000000000
    EFP Energy =                            0.0000000000000000
    Total Energy =                       -321.7392262128275320
    Molecular point group: c1
  Basis Set: 6-31G*
  Basis Set:

  -Total Gradient:
     Atom            X                  Y                   Z
    ------   -----------------  -----------------  -----------------
       1        0.000001311953    -0.000002049218     0.000006239660
       2        0.000003090307     0.000008319981    -0.000011684652
       3       -0.000002574389    -0.000115356851    -0.000010918282
       4       -0.000005092953    -0.000003284939    -0.000001812980
       5        0.000002044453    -0.000002749413     0.000011238784
       6        0.000014573223     0.000006705511     0.000013211566
       7        0.000019570603     0.000452515538     0.000009454308
       8        0.000000740271    -0.000011510282    -0.000000749012
       9        0.000000292876    -0.000008399349    -0.000006532788
      10       -0.000001474351    -0.000000580619     0.000000543677
      11        0.000002807749     0.000003481351    -0.000004814952
      12       -0.000013093161    -0.000152447376    -0.000014586571
      13       -0.000022196590    -0.000174644334     0.000010411241

  **** Optimization is complete! (in 2 steps) ****
    Final optimized geometry and variables:
    Molecular point group: c1

    Geometry (in Angstrom), charge = 0, multiplicity = 1:

    H           -2.365549538675    -1.312340406828    -0.378715259226
    C           -1.358079676534    -1.273958260528     0.019572785753
    C           -0.681808342411     0.000527038502    -0.470778426790
    H           -0.826147069526    -2.154763774829    -0.321679532720
    H           -1.408744656103    -1.292192520542     1.100066380125
    C           -1.357874746786     1.275042652866     0.019833463367
    N            0.739502968759     0.000363107801     0.006271687392
    H           -0.593914420964     0.000613874174    -1.545267804043
    H           -2.365339975834     1.313689000179    -0.378450054220
    H           -0.825765478253     2.155812654495    -0.321237516093
    H           -1.408525106719     1.293046325896     1.100328571369
    O            1.597391243216     0.000362093237    -0.821152423597
    O            0.921438262992    -0.002132480491     1.186232693263

  Mulliken Charges: (a.u.)
   Center  Symbol    Alpha    Beta     Spin     Total
       1     H     0.40815  0.40815  0.00000  0.18370
       2     C     3.24996  3.24996  0.00000 -0.49992
       3     C     3.02401  3.02401  0.00000 -0.04802
       4     H     0.40287  0.40287  0.00000  0.19427
       5     H     0.39665  0.39665  0.00000  0.20671
       6     C     3.25000  3.25000  0.00000 -0.50000
       7     N     3.21545  3.21545  0.00000  0.56909
       8     H     0.38518  0.38518  0.00000  0.22964
       9     H     0.40812  0.40812  0.00000  0.18376
      10     H     0.40287  0.40287  0.00000  0.19426
      11     H     0.39668  0.39668  0.00000  0.20665
      12     O     4.22811  4.22811  0.00000 -0.45623
      13     O     4.23195  4.23195  0.00000 -0.46391

   Total alpha = 24.00000, Total beta = 24.00000, Total charge =  0.00000
