  ==> Input File <==

--------------------------------------------------------------------------
set {
	reference rhf
	basis 6-31G*
}

set_num_threads( 1 )
memory 2 gb

molecule MOL {
0 1

H	 3.276176	 0.174363	 -0.109463
N	 2.434251	 -0.367735	 -0.081097
C	 1.267428	 0.496480	 0.024474
H	 2.501951	 -0.965776	 0.720575
C	 -0.016086	 -0.325158	 -0.029487
H	 1.288818	 1.183521	 -0.816092
H	 1.267576	 1.109062	 0.929528
C	 -1.282277	 0.529072	 0.046735
H	 -0.012495	 -0.908639	 -0.945788
H	 -0.015903	 -1.041248	 0.791956
C	 -1.209113	 1.779787	 -0.828515
H	 -1.456830	 0.823254	 1.079680
H	 -2.142493	 -0.067559	 -0.249938
H	 -0.379204	 2.415515	 -0.533861
H	 -2.119146	 2.366876	 -0.753097
H	 -1.069355	 1.518837	 -1.873787

	symmetry c1
}
set optking {
	frozen_dihedral = ("
		6 3 5 9,
		1 2 3 6
	")
}

ee = energy('scf')
oeprop('DIPOLE', 'QUADRUPOLE', 'MULLIKEN_CHARGES')
f=open( 'psi4out.xyz', 'w' )
f.write( "16  " )
f.write( str(ee) + "\n" )
f.write( MOL.save_string_xyz() )
f.close()
--------------------------------------------------------------------------

    Molecular point group: c1

    Geometry (in Angstrom), charge = 0, multiplicity = 1:

       Center              X                  Y                   Z               Mass
    ------------   -----------------  -----------------  -----------------  -----------------
           H          2.997688296517    -0.253507173338     0.059524937380     1.007825032070
           N          2.155763296517    -0.795605173338     0.087890937380    14.003074004780
           C          0.988940296517     0.068609826662     0.193461937380    12.000000000000
           H          2.223463296517    -1.393646173338     0.889562937380     1.007825032070
           C         -0.294573703483    -0.753028173338     0.139500937380    12.000000000000
           H          1.010330296517     0.755650826662    -0.647104062620     1.007825032070
           H          0.989088296517     0.681191826662     1.098515937380     1.007825032070
           C         -1.560764703483     0.101201826662     0.215722937380    12.000000000000
           H         -0.290982703483    -1.336509173338    -0.776800062620     1.007825032070
           H         -0.294390703483    -1.469118173338     0.960943937380     1.007825032070
           C         -1.487600703483     1.351916826662    -0.659527062620    12.000000000000
           H         -1.735317703483     0.395383826662     1.248667937380     1.007825032070
           H         -2.420980703483    -0.495429173338    -0.080950062620     1.007825032070
           H         -0.657691703483     1.987644826662    -0.364873062620     1.007825032070
           H         -2.397633703483     1.939005826662    -0.584109062620     1.007825032070
           H         -1.347842703483     1.090966826662    -1.704799062620     1.007825032070

  Charge       = 0
  Multiplicity = 1
  Basis Set: 6-31G*
  Basis Set:

    Orbital Energies (a.u.)
    -----------------------

    Doubly Occupied:

       1A    -15.532356     2A    -11.238911     3A    -11.214801
       4A    -11.209332     5A    -11.207560     6A     -1.176594
       7A     -1.061390     8A     -0.951610     9A     -0.863541
      10A     -0.774887    11A     -0.664139    12A     -0.634905
      13A     -0.608923    14A     -0.593873    15A     -0.542522
      16A     -0.529403    17A     -0.513250    18A     -0.467626
      19A     -0.461611    20A     -0.455956    21A     -0.381073

  @DF-RHF Final Energy:  -212.31226365059183

   => Energetics <=

    Nuclear Repulsion Energy =            190.3813593997447811
    One-Electron Energy =                -663.2186860524018357
    Two-Electron Energy =                 260.5250630020651670
    DFT Exchange-Correlation Energy =       0.0000000000000000
    Empirical Dispersion Energy =           0.0000000000000000
    PCM Polarization Energy =               0.0000000000000000
    EFP Energy =                            0.0000000000000000
    Total Energy =                       -212.3122636505918877

  Mulliken Charges: (a.u.)
   Center  Symbol    Alpha    Beta     Spin     Total
       1     H     0.33262  0.33262  0.00000  0.33477
       2     N     3.92177  3.92177  0.00000 -0.84353
       3     C     3.06499  3.06499  0.00000 -0.12998
       4     H     0.33559  0.33559  0.00000  0.32881
       5     C     3.15170  3.15170  0.00000 -0.30339
       6     H     0.41688  0.41688  0.00000  0.16624
       7     H     0.43517  0.43517  0.00000  0.12966
       8     C     3.15510  3.15510  0.00000 -0.31020
       9     H     0.41340  0.41340  0.00000  0.17320
      10     H     0.42570  0.42570  0.00000  0.14860
      11     C     3.24628  3.24628  0.00000 -0.49256
      12     H     0.42344  0.42344  0.00000  0.15311
      13     H     0.41913  0.41913  0.00000  0.16175
      14     H     0.41955  0.41955  0.00000  0.16091
      15     H     0.41863  0.41863  0.00000  0.16275
      16     H     0.42007  0.42007  0.00000  0.15985

   Total alpha = 21.00000, Total beta = 21.00000, Total charge =  0.00000
