  ==> Input File <==

--------------------------------------------------------------------------
set {
	reference rhf
	basis 6-31G*
}

set_num_threads( 4 )
memory 2 gb

molecule MOL {
0 1

H	 -0.967761	 -2.386953	 -0.626190
N	 -0.251927	 -1.694812	 -0.735746
C	 -0.563778	 -0.502042	 0.037919
H	 -0.206264	 -1.477556	 -1.713228
C	 0.575259	 0.508231	 -0.048326
H	 -0.695830	 -0.804319	 1.072514
H	 -1.496412	 -0.021765	 -0.269120
C	 1.954651	 -0.143624	 0.035137
H	 0.475158	 1.060484	 -0.977307
H	 0.469181	 1.234488	 0.755973
H	 2.103292	 -0.853109	 -0.774172
H	 2.742821	 0.599562	 -0.030094
H	 2.083613	 -0.679371	 0.971560

	symmetry c1
}
set optking {
	frozen_dihedral = ("
		6 3 5 9
	")
}

ee = optimize('scf')
oeprop('DIPOLE', 'QUADRUPOLE', 'MULLIKEN_CHARGES')
f=open( 'psi4out.xyz', 'w' )
f.write( "13  " )
f.write( str(ee) + "\n" )
f.write( MOL.save_string_xyz() )
f.close()
--------------------------------------------------------------------------

    Molecular point group: c1
  Charge       = 0
  Multiplicity = 1
  Basis Set: 6-31G*
  Basis Set:
  @DF-RHF Final Energy:  -173.27915035991782
    Total Energy =                       -173.2791503599178213
    Molecular point group: c1
  Basis Set: 6-31G*
  Basis Set:
  Basis Set: 6-31G*
  Basis Set:
  @DF-RHF Final Energy:  -173.27989327101088
    Total Energy =                       -173.2798932710107920
  Basis Set: 6-31G*
  Basis Set:
  Basis Set: 6-31G*
  Basis Set:
  @DF-RHF Final Energy:  -173.28030726142120
    Total Energy =                       -173.2803072614213420
  Basis Set: 6-31G*
  Basis Set:
  Basis Set: 6-31G*
  Basis Set:
  @DF-RHF Final Energy:  -173.28032713429104
    Total Energy =                       -173.2803271342911557
  Basis Set: 6-31G*
  Basis Set:
  Basis Set: 6-31G*
  Basis Set:
  @DF-RHF Final Energy:  -173.28032826754887
    Total Energy =                       -173.2803282675489527
  Basis Set: 6-31G*
  Basis Set:
  Charge       = 0
  Multiplicity = 1
  Basis Set: 6-31G*
  Basis Set:

    Orbital Energies (a.u.)
    -----------------------

    Doubly Occupied:

       1A    -15.533849     2A    -11.240839     3A    -11.212693
       4A    -11.198606     5A     -1.177843     6A     -1.027713
       7A     -0.903571     8A     -0.788855     9A     -0.665548
      10A     -0.623732    11A     -0.603466    12A     -0.557966
      13A     -0.530714    14A     -0.491617    15A     -0.470247
      16A     -0.463649    17A     -0.380609

  @DF-RHF Final Energy:  -173.28032854650033

   => Energetics <=

    Nuclear Repulsion Energy =            133.8409861369931662
    One-Electron Energy =                -498.4995918433102133
    Two-Electron Energy =                 191.3782771598166903
    DFT Exchange-Correlation Energy =       0.0000000000000000
    Empirical Dispersion Energy =           0.0000000000000000
    PCM Polarization Energy =               0.0000000000000000
    EFP Energy =                            0.0000000000000000
    Total Energy =                       -173.2803285465003853
    Molecular point group: c1
  Basis Set: 6-31G*
  Basis Set:

  -Total Gradient:
     Atom            X                  Y                   Z
    ------   -----------------  -----------------  -----------------
       1        0.000002388976     0.000012702579     0.000002450383
       2        0.000022329392    -0.000009243416    -0.000018283875
       3        0.003174400817    -0.003623023159    -0.000288794819
       4       -0.000000096663    -0.000004382570    -0.000001140521
       5        0.002558821125    -0.003198564392    -0.002622690494
       6       -0.003095649663     0.003581348064     0.000679967762
       7        0.000009054997     0.000006570149     0.000008212160
       8        0.000001425104    -0.000015454320     0.000005137830
       9       -0.002669195731     0.003263185271     0.002242997913
      10       -0.000012078944    -0.000005458369    -0.000002338594
      11        0.000008455196    -0.000006458743     0.000001972024
      12       -0.000005684616    -0.000001308225    -0.000003017746
      13        0.000005830010     0.000000087129    -0.000004472021

  **** Optimization is complete! (in 6 steps) ****
    Final optimized geometry and variables:
    Molecular point group: c1

    Geometry (in Angstrom), charge = 0, multiplicity = 1:

    H           -1.472468592742    -1.886908080811    -0.426362583358
    N           -0.734522632830    -1.223477114454    -0.562531548253
    C           -0.962993940075    -0.033166501089     0.241428684885
    H           -0.730200444893    -0.991531892612    -1.538078166345
    C            0.179940294399     0.978991417890     0.129277661989
    H           -1.078224367141    -0.329833404628     1.279591511767
    H           -1.892830867760     0.479556537951    -0.017947840545
    C            1.577946047582     0.379939262947     0.259842109319
    H            0.081072715332     1.538560261974    -0.799565502887
    H            0.032490537190     1.719186830582     0.913459066421
    H            1.790159590363    -0.316980227229    -0.540645773425
    H            2.331187795974     1.162091051476     0.241390179364
    H            1.679880722771    -0.160368466426     1.196337032768

  Mulliken Charges: (a.u.)
   Center  Symbol    Alpha    Beta     Spin     Total
       1     H     0.33159  0.33159  0.00000  0.33683
       2     N     3.91965  3.91965  0.00000 -0.83930
       3     C     3.06174  3.06174  0.00000 -0.12349
       4     H     0.33540  0.33540  0.00000  0.32920
       5     C     3.15987  3.15987  0.00000 -0.31973
       6     H     0.42088  0.42088  0.00000  0.15823
       7     H     0.43329  0.43329  0.00000  0.13343
       8     C     3.23107  3.23107  0.00000 -0.46215
       9     H     0.42566  0.42566  0.00000  0.14868
      10     H     0.42222  0.42222  0.00000  0.15556
      11     H     0.41186  0.41186  0.00000  0.17628
      12     H     0.42488  0.42488  0.00000  0.15023
      13     H     0.42189  0.42189  0.00000  0.15622

   Total alpha = 17.00000, Total beta = 17.00000, Total charge =  0.00000
