  ==> Input File <==

--------------------------------------------------------------------------
set {
	reference rhf
	basis cc-pvtz
}

set_num_threads( 4 )
memory 2 gb

molecule MOL {
0 1

H	 -3.162190	 0.493205	 -0.000107
C	 -2.363908	 -0.234727	 0.000005
O	 -1.158738	 0.454634	 -0.000087
H	 -2.464314	 -0.863616	 -0.882153
H	 -2.464327	 -0.863359	 0.882345
C	 -0.028611	 -0.359694	 0.000037
C	 1.212847	 0.509314	 -0.000053
H	 -0.034155	 -1.007047	 -0.877198
H	 -0.034195	 -1.006836	 0.877430
C	 2.476720	 -0.280779	 0.320463
H	 1.303890	 0.981496	 -0.972000
H	 1.076895	 1.305907	 0.723071
H	 2.645184	 -1.068889	 -0.405890
H	 3.347223	 0.363579	 0.313562
H	 2.416800	 -0.742057	 1.300616

	symmetry c1
}
set optking {
	frozen_dihedral = ("
		11 7 6 8
	")
}

ee = optimize('scf')
oeprop('DIPOLE', 'QUADRUPOLE', 'MULLIKEN_CHARGES')
f=open( 'psi4out.xyz', 'w' )
f.write( "15  " )
f.write( str(ee) + "\n" )
f.write( MOL.save_string_xyz() )
f.close()
--------------------------------------------------------------------------

    Molecular point group: c1
  Charge       = 0
  Multiplicity = 1
  Basis Set: CC-PVTZ
  Basis Set:
  @DF-RHF Final Energy:  -232.22753214316995
    Total Energy =                       -232.2275321431698671
    Molecular point group: c1
  Basis Set: CC-PVTZ
  Basis Set:
  Basis Set: CC-PVTZ
  Basis Set:
  @DF-RHF Final Energy:  -232.22762362112687
    Total Energy =                       -232.2276236211267815
  Basis Set: CC-PVTZ
  Basis Set:
  Basis Set: CC-PVTZ
  Basis Set:
  @DF-RHF Final Energy:  -232.22764363310290
    Total Energy =                       -232.2276436331027867
  Basis Set: CC-PVTZ
  Basis Set:
  Charge       = 0
  Multiplicity = 1
  Basis Set: CC-PVTZ
  Basis Set:

    Orbital Energies (a.u.)
    -----------------------

    Doubly Occupied:

       1A    -20.547162     2A    -11.264535     3A    -11.261588
       4A    -11.212895     5A    -11.210575     6A     -1.381291
       7A     -1.058164     8A     -0.955858     9A     -0.877072
      10A     -0.809384    11A     -0.677454    12A     -0.655263
      13A     -0.632368    14A     -0.608140    15A     -0.565319
      16A     -0.541903    17A     -0.502027    18A     -0.489932
      19A     -0.479294    20A     -0.462773    21A     -0.416713

  @DF-RHF Final Energy:  -232.22764395180587

   => Energetics <=

    Nuclear Repulsion Energy =            189.9859141704809531
    One-Electron Energy =                -691.2076965236742581
    Two-Electron Energy =                 268.9941384013873744
    DFT Exchange-Correlation Energy =       0.0000000000000000
    Empirical Dispersion Energy =           0.0000000000000000
    PCM Polarization Energy =               0.0000000000000000
    EFP Energy =                            0.0000000000000000
    Total Energy =                       -232.2276439518059306
    Molecular point group: c1
  Basis Set: CC-PVTZ
  Basis Set:

  -Total Gradient:
     Atom            X                  Y                   Z
    ------   -----------------  -----------------  -----------------
       1        0.000005596511    -0.000001393662     0.000002220392
       2       -0.000044170689    -0.000011112017    -0.000020150223
       3        0.000060463353    -0.000047386973    -0.000016013623
       4       -0.000006457352    -0.000001316180     0.000003712907
       5        0.000008592246     0.000006759505    -0.000001102040
       6        0.001819174215    -0.002595857084     0.001501490053
       7       -0.001967005437     0.002865107812     0.000671181143
       8       -0.001273891724     0.001790224072    -0.001313742073
       9        0.000014406617    -0.000027346080     0.000003177099
      10       -0.000011527156     0.000028852195     0.000017106068
      11        0.001378542590    -0.001963680669    -0.000839248151
      12       -0.000004581098    -0.000021085961    -0.000004812404
      13        0.000004089417    -0.000003569541    -0.000005245019
      14        0.000008252845    -0.000004480632     0.000001137484
      15        0.000008515661    -0.000013714786     0.000000288386

  **** Optimization is complete! (in 4 steps) ****
    Final optimized geometry and variables:
    Molecular point group: c1

    Geometry (in Angstrom), charge = 0, multiplicity = 1:

    H           -3.159969382440     0.483865412381    -0.093728308539
    C           -2.360449315430    -0.242834349412    -0.087772885336
    O           -1.156514155123     0.447383213102    -0.057202031328
    H           -2.444116980707    -0.861496748831    -0.978998316983
    H           -2.476487784757    -0.882461558343     0.784905121283
    C           -0.024499980415    -0.366702779320    -0.039030620516
    C            1.215280552747     0.507448198333    -0.052416729310
    H           -0.033650356878    -1.017155984504    -0.913464618922
    H           -0.034914593674    -1.000165276500     0.847655789047
    C            2.485814047965    -0.286579362143     0.236154728189
    H            1.301649384308     0.978260546909    -1.025533293937
    H            1.090225188598     1.295320859325     0.680784092672
    H            2.623061134914    -1.088028374513    -0.482741784527
    H            3.360192870291     0.350850894744     0.186002727622
    H            2.457612755887    -0.731479246507     1.225047085283

  Mulliken Charges: (a.u.)
   Center  Symbol    Alpha    Beta     Spin     Total
       1     H     0.44690  0.44690  0.00000  0.10619
       2     C     3.03274  3.03274  0.00000 -0.06548
       3     O     4.17194  4.17194  0.00000 -0.34387
       4     H     0.47214  0.47214  0.00000  0.05571
       5     H     0.47266  0.47266  0.00000  0.05468
       6     C     2.95658  2.95658  0.00000  0.08685
       7     C     3.08047  3.08047  0.00000 -0.16095
       8     H     0.47456  0.47456  0.00000  0.05088
       9     H     0.47629  0.47629  0.00000  0.04742
      10     C     3.15564  3.15564  0.00000 -0.31129
      11     H     0.45242  0.45242  0.00000  0.09517
      12     H     0.44944  0.44944  0.00000  0.10111
      13     H     0.45636  0.45636  0.00000  0.08727
      14     H     0.44658  0.44658  0.00000  0.10685
      15     H     0.45528  0.45528  0.00000  0.08945

   Total alpha = 21.00000, Total beta = 21.00000, Total charge =  0.00000
