  ==> Input File <==

--------------------------------------------------------------------------
set {
	reference rhf
	basis 6-31G*
}

set_num_threads( 4 )
memory 2 gb

molecule MOL {
0 1

H	 -3.261111	 -0.295142	 1.469456
C	 -3.306842	 -0.277400	 0.373456
C	 -2.660244	 0.921717	 -0.272021
O	 -3.838538	 -1.161155	 -0.216482
C	 -1.220012	 1.144545	 0.209990
H	 -2.705793	 0.797307	 -1.347733
H	 -3.263782	 1.790044	 -0.010477
C	 -0.252658	 0.041456	 -0.226725
H	 -0.873521	 2.100229	 -0.171974
H	 -1.211708	 1.231594	 1.295398
C	 1.180775	 0.282413	 0.250794
H	 -0.266029	 -0.034465	 -1.312038
H	 -0.597733	 -0.921000	 0.146291
C	 2.148627	 -0.814315	 -0.201312
H	 1.516199	 1.249228	 -0.115937
H	 1.192670	 0.346017	 1.338083
C	 3.580890	 -0.659131	 0.322722
H	 2.166869	 -0.852443	 -1.289387
H	 1.762857	 -1.776509	 0.128956
C	 3.962307	 0.768711	 0.716940
H	 4.266994	 -1.002357	 -0.447606
H	 3.726500	 -1.320532	 1.174349
H	 3.811154	 1.455802	 -0.111508
H	 3.377025	 1.128758	 1.556455
H	 5.008288	 0.822606	 1.003321

	symmetry c1
}
set optking {
	frozen_dihedral = ("
		20 17 14 18
	")
}

ee = optimize('scf')
oeprop('DIPOLE', 'QUADRUPOLE', 'MULLIKEN_CHARGES')
f=open( 'psi4out.xyz', 'w' )
f.write( "25  " )
f.write( str(ee) + "\n" )
f.write( MOL.save_string_xyz() )
f.close()
--------------------------------------------------------------------------

    Molecular point group: c1
  Charge       = 0
  Multiplicity = 1
  Basis Set: 6-31G*
  Basis Set:
  @DF-RHF Final Energy:  -387.11511222696953
    Total Energy =                       -387.1151122269691314
    Molecular point group: c1
  Basis Set: 6-31G*
  Basis Set:
  Basis Set: 6-31G*
  Basis Set:
  @DF-RHF Final Energy:  -387.11561210202609
    Total Energy =                       -387.1156121020256933
  Basis Set: 6-31G*
  Basis Set:
  Basis Set: 6-31G*
  Basis Set:
  @DF-RHF Final Energy:  -387.11629325909649
    Total Energy =                       -387.1162932590968921
  Basis Set: 6-31G*
  Basis Set:
  Basis Set: 6-31G*
  Basis Set:
  @DF-RHF Final Energy:  -387.11630597818129
    Total Energy =                       -387.1163059781817992
  Basis Set: 6-31G*
  Basis Set:
  Basis Set: 6-31G*
  Basis Set:
  @DF-RHF Final Energy:  -387.11640699045233
    Total Energy =                       -387.1164069904523330
  Basis Set: 6-31G*
  Basis Set:
  Basis Set: 6-31G*
  Basis Set:
  @DF-RHF Final Energy:  -387.11644682229502
    Total Energy =                       -387.1164468222948472
  Basis Set: 6-31G*
  Basis Set:
  Basis Set: 6-31G*
  Basis Set:
  @DF-RHF Final Energy:  -387.11645637149462
    Total Energy =                       -387.1164563714945643
  Basis Set: 6-31G*
  Basis Set:
  Charge       = 0
  Multiplicity = 1
  Basis Set: 6-31G*
  Basis Set:

    Orbital Energies (a.u.)
    -----------------------

    Doubly Occupied:

       1A    -20.562047     2A    -11.326205     3A    -11.235391
       4A    -11.234713     5A    -11.224002     6A    -11.220361
       7A    -11.218261     8A    -11.217017     9A    -11.210771
      10A     -1.401991    11A     -1.103614    12A     -1.067593
      13A     -1.012653    14A     -0.942235    15A     -0.878490
      16A     -0.823025    17A     -0.788013    18A     -0.775087
      19A     -0.664474    20A     -0.663272    21A     -0.636044
      22A     -0.623322    23A     -0.602118    24A     -0.590432
      25A     -0.575493    26A     -0.551670    27A     -0.534499
      28A     -0.522796    29A     -0.513841    30A     -0.495590
      31A     -0.490547    32A     -0.481376    33A     -0.461644
      34A     -0.451374    35A     -0.442942    36A     -0.409580

  @DF-RHF Final Energy:  -387.11645597350213

   => Energetics <=

    Nuclear Repulsion Energy =            439.9664160765859720
    One-Electron Energy =               -1396.2607779538257091
    Two-Electron Energy =                 569.1779059037380648
    DFT Exchange-Correlation Energy =       0.0000000000000000
    Empirical Dispersion Energy =           0.0000000000000000
    PCM Polarization Energy =               0.0000000000000000
    EFP Energy =                            0.0000000000000000
    Total Energy =                       -387.1164559735016155
    Molecular point group: c1
  Basis Set: 6-31G*
  Basis Set:

  -Total Gradient:
     Atom            X                  Y                   Z
    ------   -----------------  -----------------  -----------------
       1        0.000002133629    -0.000005094419     0.000001255218
       2       -0.000017632881     0.000009440189     0.000006955573
       3        0.000008996603    -0.000004234523    -0.000003246766
       4        0.000003627656     0.000003031966     0.000001700869
       5       -0.000000544821     0.000000694031     0.000007049751
       6        0.000001387267    -0.000001425624    -0.000004241904
       7        0.000000312268    -0.000003253614    -0.000004302883
       8        0.000016641713     0.000024037157    -0.000028379825
       9       -0.000001017634    -0.000000204872     0.000004420235
      10       -0.000000709238    -0.000003390581     0.000002206670
      11       -0.000028000156    -0.000053342826     0.000060492554
      12       -0.000016364472    -0.000000660707    -0.000011923514
      13        0.000018792468    -0.000000166603    -0.000003840265
      14       -0.001056625687     0.007093761562     0.001343265848
      15        0.000050519087     0.000014234566     0.000008673702
      16       -0.000044248385    -0.000001010773    -0.000014051804
      17        0.002119573822    -0.000563823455    -0.005998245533
      18        0.000329375261    -0.005940519677     0.000417603409
      19        0.000003139310    -0.000005760954     0.000004485049
      20       -0.001403800333    -0.000570259709     0.004201834094
      21        0.000023799885    -0.000016939322     0.000011068490
      22       -0.000010516761     0.000030550173    -0.000001440003
      23       -0.000008568800    -0.000015560557     0.000001146326
      24        0.000008815437     0.000015748609     0.000003582474
      25        0.000000914768    -0.000005850035    -0.000006067763

  **** Optimization is complete! (in 8 steps) ****
    Final optimized geometry and variables:
    Molecular point group: c1

    Geometry (in Angstrom), charge = 0, multiplicity = 1:

    H           -3.259439197144    -0.369625465297     1.330718092710
    C           -3.285604212584    -0.334757528077     0.234390974728
    C           -2.643494324049     0.883069626475    -0.379963537241
    O           -3.800262837081    -1.212938323400    -0.378598363293
    C           -1.213502049578     1.114418009287     0.128087487270
    H           -2.670916123728     0.776789272755    -1.458287796955
    H           -3.261489786144     1.739434816278    -0.113097647065
    C           -0.224828695225     0.034158188086    -0.318096821305
    H           -0.874455920821     2.083164814430    -0.227190155465
    H           -1.222395795039     1.177145376222     1.215007984023
    C            1.199532851011     0.288925998292     0.179220687024
    H           -0.225127963038    -0.020803400373    -1.404756085277
    H           -0.559352426352    -0.940357965316     0.032629987297
    C            2.177993305350    -0.793372979952    -0.279855737562
    H            1.527351023323     1.264357719864    -0.170173352697
    H            1.193918034207     0.338531755072     1.266630817180
    C            3.636839979012    -0.673258853619     0.221028183487
    H            2.170378374049    -0.868986373592    -1.365052563148
    H            1.794391351210    -1.755558181130     0.053793438767
    C            4.122499536947     0.735260454485     0.573109218543
    H            4.299624653122    -1.106290422952    -0.521994711260
    H            3.749351175835    -1.287041268212     1.111450542957
    H            4.055794216105     1.412087196047    -0.274291596982
    H            3.550996775628     1.166261755490     1.387546495402
    H            5.162267275713     0.704664888619     0.883999778650

  Mulliken Charges: (a.u.)
   Center  Symbol    Alpha    Beta     Spin     Total
       1     H     0.43262  0.43262  0.00000  0.13475
       2     C     2.83083  2.83083  0.00000  0.33835
       3     C     3.20816  3.20816  0.00000 -0.41633
       4     O     4.23775  4.23775  0.00000 -0.47549
       5     C     3.16654  3.16654  0.00000 -0.33308
       6     H     0.39968  0.39968  0.00000  0.20063
       7     H     0.40659  0.40659  0.00000  0.18682
       8     C     3.15500  3.15500  0.00000 -0.31000
       9     H     0.41281  0.41281  0.00000  0.17438
      10     H     0.41971  0.41971  0.00000  0.16058
      11     C     3.15489  3.15489  0.00000 -0.30978
      12     H     0.41791  0.41791  0.00000  0.16417
      13     H     0.41835  0.41835  0.00000  0.16331
      14     C     3.15638  3.15638  0.00000 -0.31276
      15     H     0.41998  0.41998  0.00000  0.16004
      16     H     0.42309  0.42309  0.00000  0.15381
      17     C     3.15328  3.15328  0.00000 -0.30656
      18     H     0.42119  0.42119  0.00000  0.15762
      19     H     0.42064  0.42064  0.00000  0.15872
      20     C     3.24261  3.24261  0.00000 -0.48523
      21     H     0.41912  0.41912  0.00000  0.16176
      22     H     0.42191  0.42191  0.00000  0.15618
      23     H     0.42214  0.42214  0.00000  0.15571
      24     H     0.42009  0.42009  0.00000  0.15982
      25     H     0.41871  0.41871  0.00000  0.16258

   Total alpha = 36.00000, Total beta = 36.00000, Total charge =  0.00000
