  ==> Input File <==

--------------------------------------------------------------------------
set {
	reference rhf
	basis 6-31G*
}

set_num_threads( 4 )
memory 2 gb

molecule MOL {
0 1

H	 2.782017	 0.810134	 0.137871
N	 2.332695	 -0.069570	 0.000000
C	 0.936681	 -0.007078	 0.000000
H	 2.721423	 -0.543480	 -0.786814
C	 0.227108	 -0.002120	 -1.198267
C	 0.227108	 -0.002120	 1.198267
H	 0.761569	 -0.014657	 -2.132680
C	 -1.156334	 0.010459	 -1.192360
H	 0.761569	 -0.014657	 2.132680
C	 -1.156334	 0.010459	 1.192360
H	 -1.684791	 0.014915	 -2.129421
C	 -1.862085	 0.017996	 0.000000
H	 -1.684791	 0.014915	 2.129421
H	 -2.936703	 0.028387	 0.000000

	symmetry c1
}
set optking {
	frozen_dihedral = ("
		1 2 3 5
	")
}

ee = optimize('scf')
oeprop('DIPOLE', 'QUADRUPOLE', 'MULLIKEN_CHARGES')
f=open( 'psi4out.xyz', 'w' )
f.write( "14  " )
f.write( str(ee) + "\n" )
f.write( MOL.save_string_xyz() )
f.close()
--------------------------------------------------------------------------

    Molecular point group: c1
  Charge       = 0
  Multiplicity = 1
  Basis Set: 6-31G*
  Basis Set:
  @DF-RHF Final Energy:  -285.72503593777247
    Total Energy =                       -285.7250359377723044
    Molecular point group: c1
  Basis Set: 6-31G*
  Basis Set:
  Basis Set: 6-31G*
  Basis Set:
  @DF-RHF Final Energy:  -285.72653583575561
    Total Energy =                       -285.7265358357556124
  Basis Set: 6-31G*
  Basis Set:
  Basis Set: 6-31G*
  Basis Set:
  @DF-RHF Final Energy:  -285.72673336635734
    Total Energy =                       -285.7267333663572799
  Basis Set: 6-31G*
  Basis Set:
  Basis Set: 6-31G*
  Basis Set:
  @DF-RHF Final Energy:  -285.72675302806334
    Total Energy =                       -285.7267530280633423
  Basis Set: 6-31G*
  Basis Set:
  Charge       = 0
  Multiplicity = 1
  Basis Set: 6-31G*
  Basis Set:

    Orbital Energies (a.u.)
    -----------------------

    Doubly Occupied:

       1A    -15.552731     2A    -11.263533     3A    -11.229732
       4A    -11.228371     5A    -11.223730     6A    -11.221793
       7A    -11.219321     8A     -1.211860     9A     -1.126595
      10A     -1.011080    11A     -0.985359    12A     -0.827543
      13A     -0.807233    14A     -0.701470    15A     -0.668911
      16A     -0.647281    17A     -0.613368    18A     -0.590210
      19A     -0.581553    20A     -0.509580    21A     -0.500294
      22A     -0.488818    23A     -0.426408    24A     -0.331270
      25A     -0.309175

  @DF-RHF Final Energy:  -285.72675487761092

   => Energetics <=

    Nuclear Repulsion Energy =            272.6036729697451619
    One-Electron Energy =                -926.1064146549091447
    Two-Electron Energy =                 367.7759868075532950
    DFT Exchange-Correlation Energy =       0.0000000000000000
    Empirical Dispersion Energy =           0.0000000000000000
    PCM Polarization Energy =               0.0000000000000000
    EFP Energy =                            0.0000000000000000
    Total Energy =                       -285.7267548776106878
    Molecular point group: c1
  Basis Set: 6-31G*
  Basis Set:

  -Total Gradient:
     Atom            X                  Y                   Z
    ------   -----------------  -----------------  -----------------
       1        0.000110370496     0.000591250524    -0.002999706307
       2       -0.000145330445     0.000512704856     0.003822546873
       3       -0.000114441294    -0.003477438901    -0.000563176798
       4        0.000000633866    -0.000001597972    -0.000045305022
       5       -0.000078212109     0.002438263642    -0.000119423067
       6        0.000224422710    -0.000039203871    -0.000086689572
       7        0.000001482691    -0.000005764677     0.000007268224
       8        0.000172100402    -0.000076283701    -0.000074964120
       9        0.000000217312     0.000005686854     0.000020852794
      10       -0.000158693877    -0.000007822372    -0.000123659038
      11       -0.000015657128     0.000015114692     0.000010985067
      12       -0.000011833030     0.000050979693     0.000180828941
      13        0.000020542992    -0.000005897983    -0.000005428919
      14       -0.000005602584     0.000000009215    -0.000024129058

  **** Optimization is complete! (in 5 steps) ****
    Final optimized geometry and variables:
    Molecular point group: c1

    Geometry (in Angstrom), charge = 0, multiplicity = 1:

    H            2.736545128843     0.828160258104     0.211404555753
    N            2.350332268862    -0.080060393990     0.038439766311
    C            0.929660051575    -0.039768371379    -0.003539209525
    H            2.729949978818    -0.401385368718    -0.829929381158
    C            0.220435332436    -0.019354652603    -1.197687467258
    C            0.228720934823    -0.006491214331     1.196250587258
    H            0.752485156995    -0.033073765498    -2.133823613583
    C           -1.165460835117     0.011943705395    -1.191963930380
    H            0.778519062949    -0.036160965596     2.119561454201
    C           -1.153768578917     0.048983557057     1.198749483485
    H           -1.699813291444     0.017116299928    -2.125537118809
    C           -1.859486540212     0.053121971918     0.004908390279
    H           -1.681965255840     0.075579919862     2.135428434241
    H           -2.934135280489     0.085443578282     0.008811756962

  Mulliken Charges: (a.u.)
   Center  Symbol    Alpha    Beta     Spin     Total
       1     H     0.32198  0.32198  0.00000  0.35604
       2     N     3.93854  3.93854  0.00000 -0.87708
       3     C     2.88702  2.88702  0.00000  0.22595
       4     H     0.32574  0.32574  0.00000  0.34851
       5     C     3.11931  3.11931  0.00000 -0.23861
       6     C     3.10714  3.10714  0.00000 -0.21427
       7     H     0.40433  0.40433  0.00000  0.19134
       8     C     3.09573  3.09573  0.00000 -0.19145
       9     H     0.39551  0.39551  0.00000  0.20898
      10     C     3.09621  3.09621  0.00000 -0.19243
      11     H     0.40022  0.40022  0.00000  0.19956
      12     C     3.10722  3.10722  0.00000 -0.21443
      13     H     0.39993  0.39993  0.00000  0.20013
      14     H     0.40112  0.40112  0.00000  0.19776

   Total alpha = 25.00000, Total beta = 25.00000, Total charge = -0.00000
