  ==> Input File <==

--------------------------------------------------------------------------
set {
	reference rhf
	basis 6-31G*
}

set_num_threads( 4 )
memory 2 gb

molecule MOL {
0 1

O	 -0.279543	 0.701986	 -1.866684
C	 -0.775684	 0.932890	 -0.811791
C	 -1.631647	 2.131772	 -0.504618
O	 -0.632575	 0.154573	 0.251549
H	 -1.182779	 2.706436	 0.297395
H	 -1.728927	 2.743899	 -1.388741
H	 -2.609452	 1.806971	 -0.168228
C	 0.160891	 -1.019931	 0.106212
C	 1.589627	 -0.672828	 0.480843
H	 0.089836	 -1.367806	 -0.916050
H	 -0.238459	 -1.792301	 0.749618
C	 2.246377	 0.346236	 -0.452210
H	 2.163194	 -1.597435	 0.473358
H	 1.604769	 -0.303424	 1.502885
C	 3.691736	 0.652107	 -0.061850
H	 2.219579	 -0.032311	 -1.472055
H	 1.666466	 1.263317	 -0.447249
H	 4.134505	 1.377213	 -0.737283
H	 4.305508	 -0.243868	 -0.089969
H	 3.748266	 1.059562	 0.943567

	symmetry c1
}
set optking {
	frozen_dihedral = ("
		2 4 8 10
	")
}

ee = optimize('scf')
oeprop('DIPOLE', 'QUADRUPOLE', 'MULLIKEN_CHARGES')
f=open( 'psi4out.xyz', 'w' )
f.write( "20  " )
f.write( str(ee) + "\n" )
f.write( MOL.save_string_xyz() )
f.close()
--------------------------------------------------------------------------

    Molecular point group: c1
  Charge       = 0
  Multiplicity = 1
  Basis Set: 6-31G*
  Basis Set:
  @DF-RHF Final Energy:  -383.93817712649695
    Total Energy =                       -383.9381771264970666
    Molecular point group: c1
  Basis Set: 6-31G*
  Basis Set:
  Basis Set: 6-31G*
  Basis Set:
  @DF-RHF Final Energy:  -383.94159422679792
    Total Energy =                       -383.9415942267978608
  Basis Set: 6-31G*
  Basis Set:
  Basis Set: 6-31G*
  Basis Set:
  @DF-RHF Final Energy:  -383.94206002188429
    Total Energy =                       -383.9420600218841173
  Basis Set: 6-31G*
  Basis Set:
  Basis Set: 6-31G*
  Basis Set:
  @DF-RHF Final Energy:  -383.94268637943850
    Total Energy =                       -383.9426863794383280
  Basis Set: 6-31G*
  Basis Set:
  Basis Set: 6-31G*
  Basis Set:
  @DF-RHF Final Energy:  -383.94293525124340
    Total Energy =                       -383.9429352512432843
  Basis Set: 6-31G*
  Basis Set:
  Basis Set: 6-31G*
  Basis Set:
  @DF-RHF Final Energy:  -383.94296656368914
    Total Energy =                       -383.9429665636893105
  Basis Set: 6-31G*
  Basis Set:
  Basis Set: 6-31G*
  Basis Set:
  @DF-RHF Final Energy:  -383.94296832776291
    Total Energy =                       -383.9429683277630829
  Basis Set: 6-31G*
  Basis Set:
  Charge       = 0
  Multiplicity = 1
  Basis Set: 6-31G*
  Basis Set:

    Orbital Energies (a.u.)
    -----------------------

    Doubly Occupied:

       1A    -20.600954     2A    -20.543586     3A    -11.375615
       4A    -11.282339     5A    -11.232983     6A    -11.224000
       7A    -11.216069     8A    -11.210128     9A     -1.465749
      10A     -1.362428    11A     -1.081835    12A     -1.028137
      13A     -0.979840    14A     -0.887219    15A     -0.808143
      16A     -0.765047    17A     -0.693736    18A     -0.681568
      19A     -0.661820    20A     -0.628210    21A     -0.600583
      22A     -0.593446    23A     -0.571448    24A     -0.548422
      25A     -0.547023    26A     -0.528278    27A     -0.504254
      28A     -0.496563    29A     -0.472896    30A     -0.467072
      31A     -0.441937    32A     -0.435564

  @DF-RHF Final Energy:  -383.94296842911598

   => Energetics <=

    Nuclear Repulsion Energy =            394.2675244108659740
    One-Electron Energy =               -1304.5472043604668215
    Two-Electron Energy =                 526.3367115204853235
    DFT Exchange-Correlation Energy =       0.0000000000000000
    Empirical Dispersion Energy =           0.0000000000000000
    PCM Polarization Energy =               0.0000000000000000
    EFP Energy =                            0.0000000000000000
    Total Energy =                       -383.9429684291155809
    Molecular point group: c1
  Basis Set: 6-31G*
  Basis Set:

  -Total Gradient:
     Atom            X                  Y                   Z
    ------   -----------------  -----------------  -----------------
       1        0.000004438411    -0.000029548933     0.000040156732
       2        0.001622291349     0.001143735361     0.000437445128
       3        0.000024846609     0.000018461935     0.000024825487
       4       -0.002871739529    -0.002212546183    -0.000560247912
       5       -0.000016550315     0.000022301686     0.000024781865
       6        0.000008309796    -0.000023047182     0.000003710214
       7       -0.000000380461    -0.000001700666    -0.000007213183
       8        0.003042771052     0.002463808229    -0.000650096552
       9        0.000048006819    -0.000029061551     0.000009552396
      10       -0.001835670285    -0.001388982012     0.000671111333
      11       -0.000084965432     0.000060937328     0.000011058543
      12       -0.000020604618    -0.000016079565    -0.000073598424
      13        0.000029091658     0.000015159640    -0.000016315845
      14        0.000016000249    -0.000013856050     0.000019330436
      15       -0.000034181759     0.000004642589     0.000025080741
      16        0.000029683592     0.000002042965     0.000027632672
      17        0.000010677048    -0.000023304469    -0.000008512652
      18       -0.000010130687     0.000005823611     0.000006060853
      19        0.000018280803     0.000000370904     0.000004283536
      20        0.000019825704     0.000000842363     0.000010954632

  **** Optimization is complete! (in 8 steps) ****
    Final optimized geometry and variables:
    Molecular point group: c1

    Geometry (in Angstrom), charge = 0, multiplicity = 1:

    O           -1.012962220963     0.319723219408    -1.568087622680
    C           -1.434809492965     0.530326908543    -0.477201480802
    C           -2.336594252582     1.679431682438    -0.113995819648
    O           -1.180720302704    -0.227376467182     0.581092623270
    H           -1.866006867466     2.286552313514     0.650790851480
    H           -2.534288938512     2.276461575809    -0.991648170922
    H           -3.265752846352     1.299646531865     0.294776867663
    C           -0.316338388585    -1.354896896589     0.450115346874
    C            1.117544538311    -1.040407235141     0.850220985554
    H           -0.391143377333    -1.746908394147    -0.552872433735
    H           -0.727335368121    -2.086567739209     1.132411694123
    C            1.871707864990    -0.072512091447    -0.063677872366
    H            1.648478727832    -1.990517714959     0.880433833703
    H            1.113874620776    -0.657567569249     1.867942718705
    C            3.326214901436     0.108959184731     0.370004302024
    H            1.834366533456    -0.432764191326    -1.086977156880
    H            1.377800417408     0.893797073234    -0.064930317927
    H            3.843427840586     0.805485611324    -0.282097400839
    H            3.866582920871    -0.833264560383     0.341941545657
    H            3.390187942877     0.495326762269     1.383581568333

  Mulliken Charges: (a.u.)
   Center  Symbol    Alpha    Beta     Spin     Total
       1     O     4.28552  4.28552  0.00000 -0.57104
       2     C     2.61624  2.61624  0.00000  0.76752
       3     C     3.28181  3.28181  0.00000 -0.56362
       4     O     4.31055  4.31055  0.00000 -0.62110
       5     H     0.40110  0.40110  0.00000  0.19780
       6     H     0.39723  0.39723  0.00000  0.20553
       7     H     0.40005  0.40005  0.00000  0.19990
       8     C     3.00905  3.00905  0.00000 -0.01810
       9     C     3.16334  3.16334  0.00000 -0.32669
      10     H     0.40050  0.40050  0.00000  0.19901
      11     H     0.41034  0.41034  0.00000  0.17932
      12     C     3.15384  3.15384  0.00000 -0.30768
      13     H     0.42053  0.42053  0.00000  0.15893
      14     H     0.41611  0.41611  0.00000  0.16778
      15     C     3.24113  3.24113  0.00000 -0.48225
      16     H     0.41162  0.41162  0.00000  0.17676
      17     H     0.41980  0.41980  0.00000  0.16040
      18     H     0.41675  0.41675  0.00000  0.16650
      19     H     0.42218  0.42218  0.00000  0.15563
      20     H     0.42230  0.42230  0.00000  0.15539

   Total alpha = 32.00000, Total beta = 32.00000, Total charge = -0.00000
