  ==> Input File <==

--------------------------------------------------------------------------
set {
	reference rhf
	basis 6-31G*
}

set_num_threads( 4 )
memory 2 gb

molecule MOL {
0 1

H	 1.136379	 0.211822	 1.465562
C	 1.135357	 0.094285	 0.374742
C	 0.065331	 0.871482	 -0.349150
O	 1.941633	 -0.601957	 -0.151457
C	 -0.099238	 0.422265	 -1.808123
H	 0.305573	 1.926439	 -0.283857
H	 -0.869535	 0.706589	 0.184701
C	 1.116641	 0.740245	 -2.679300
H	 -0.977397	 0.908464	 -2.220988
H	 -0.302711	 -0.646113	 -1.836543
H	 1.316388	 1.807225	 -2.692739
H	 0.953116	 0.418499	 -3.702558
H	 2.012374	 0.244376	 -2.317131

	symmetry c1
}
set optking {
	frozen_dihedral = ("
		6 3 2 4
	")
}

ee = optimize('scf')
oeprop('DIPOLE', 'QUADRUPOLE', 'MULLIKEN_CHARGES')
f=open( 'psi4out.xyz', 'w' )
f.write( "13  " )
f.write( str(ee) + "\n" )
f.write( MOL.save_string_xyz() )
f.close()
--------------------------------------------------------------------------

    Molecular point group: c1
  Charge       = 0
  Multiplicity = 1
  Basis Set: 6-31G*
  Basis Set:
  @DF-RHF Final Energy:  -230.98338207697614
    Total Energy =                       -230.9833820769761132
    Molecular point group: c1
  Basis Set: 6-31G*
  Basis Set:
  Basis Set: 6-31G*
  Basis Set:
  @DF-RHF Final Energy:  -230.98493545892765
    Total Energy =                       -230.9849354589275094
  Basis Set: 6-31G*
  Basis Set:
  Basis Set: 6-31G*
  Basis Set:
  @DF-RHF Final Energy:  -230.98328081080132
    Total Energy =                       -230.9832808108012330
  Basis Set: 6-31G*
  Basis Set:
  Basis Set: 6-31G*
  Basis Set:
  @DF-RHF Final Energy:  -230.98523551832230
    Total Energy =                       -230.9852355183222130
  Basis Set: 6-31G*
  Basis Set:
  Basis Set: 6-31G*
  Basis Set:
  @DF-RHF Final Energy:  -230.98527597433937
    Total Energy =                       -230.9852759743394301
  Basis Set: 6-31G*
  Basis Set:
  Basis Set: 6-31G*
  Basis Set:
  @DF-RHF Final Energy:  -230.98528093189225
    Total Energy =                       -230.9852809318923050
  Basis Set: 6-31G*
  Basis Set:
  Basis Set: 6-31G*
  Basis Set:
  @DF-RHF Final Energy:  -230.98528393286665
    Total Energy =                       -230.9852839328667073
  Basis Set: 6-31G*
  Basis Set:
  Charge       = 0
  Multiplicity = 1
  Basis Set: 6-31G*
  Basis Set:

    Orbital Energies (a.u.)
    -----------------------

    Doubly Occupied:

       1A    -20.565274     2A    -11.329942     3A    -11.238382
       4A    -11.225671     5A    -11.207572     6A     -1.405525
       7A     -1.076896     8A     -0.972083     9A     -0.848040
      10A     -0.767710    11A     -0.685528    12A     -0.643265
      13A     -0.616431    14A     -0.581567    15A     -0.567300
      16A     -0.520137    17A     -0.495067    18A     -0.483169
      19A     -0.481439    20A     -0.410980

  @DF-RHF Final Energy:  -230.98528419560273

   => Energetics <=

    Nuclear Repulsion Energy =            176.3390215975067008
    One-Electron Energy =                -662.4046535713918047
    Two-Electron Energy =                 255.0803477782823165
    DFT Exchange-Correlation Energy =       0.0000000000000000
    Empirical Dispersion Energy =           0.0000000000000000
    PCM Polarization Energy =               0.0000000000000000
    EFP Energy =                            0.0000000000000000
    Total Energy =                       -230.9852841956027873
    Molecular point group: c1
  Basis Set: 6-31G*
  Basis Set:

  -Total Gradient:
     Atom            X                  Y                   Z
    ------   -----------------  -----------------  -----------------
       1       -0.000006983400     0.000008762619    -0.000000594705
       2       -0.001956401820    -0.002439891869    -0.000042331536
       3       -0.000665126656     0.001115705967     0.001932751744
       4        0.001490009008     0.001637591622    -0.000240704203
       5        0.000000151060    -0.000003791973     0.000015074330
       6        0.001132731604    -0.000301458424    -0.001694368448
       7       -0.000001654599    -0.000002027453    -0.000008161047
       8        0.000024399395    -0.000005088558     0.000021134853
       9       -0.000004650896    -0.000001255522     0.000020086393
      10       -0.000002325932    -0.000015678177    -0.000005909066
      11        0.000002038251    -0.000000674126    -0.000001369962
      12       -0.000009369087     0.000000074672     0.000008705520
      13       -0.000002816930     0.000007731227    -0.000004313873

  **** Optimization is complete! (in 8 steps) ****
    Final optimized geometry and variables:
    Molecular point group: c1

    Geometry (in Angstrom), charge = 0, multiplicity = 1:

    H            0.240995800392    -0.022152517772     2.425992809863
    C            0.258729225411    -0.218818809337     1.347728456952
    C           -0.735290916356     0.582997317344     0.543763965215
    O            1.038109487521    -0.996171436878     0.899458979887
    C           -0.906614908546     0.131294270314    -0.909026415464
    H           -0.401606171856     1.620630658108     0.577829076290
    H           -1.682874543155     0.555758397320     1.077795239781
    C            0.256947921267     0.525101794097    -1.819449008767
    H           -1.823734413255     0.568860670693    -1.293375389853
    H           -1.040994265019    -0.945324608733    -0.933132191955
    H            0.388069140602     1.604144448604    -1.837386667317
    H            0.070460729740     0.201020673949    -2.838484362642
    H            1.183944748360     0.075219292165    -1.488492029546

  Mulliken Charges: (a.u.)
   Center  Symbol    Alpha    Beta     Spin     Total
       1     H     0.42792  0.42792  0.00000  0.14416
       2     C     2.83583  2.83583  0.00000  0.32833
       3     C     3.21306  3.21306  0.00000 -0.42612
       4     O     4.23730  4.23730  0.00000 -0.47460
       5     C     3.15099  3.15099  0.00000 -0.30198
       6     H     0.40543  0.40543  0.00000  0.18913
       7     H     0.40796  0.40796  0.00000  0.18408
       8     C     3.24512  3.24512  0.00000 -0.49024
       9     H     0.41875  0.41875  0.00000  0.16250
      10     H     0.41097  0.41097  0.00000  0.17807
      11     H     0.42582  0.42582  0.00000  0.14836
      12     H     0.41876  0.41876  0.00000  0.16248
      13     H     0.40209  0.40209  0.00000  0.19583

   Total alpha = 20.00000, Total beta = 20.00000, Total charge =  0.00000
