                              Psi4 1.0.54 Driver

  ==> Input File <==

--------------------------------------------------------------------------
set {
	reference rhf
	basis cc-pvtz
}

set_num_threads( 4 )
memory 2 gb

molecule MOL {
0 1

O	 -2.817697	 1.304178	 0.001046
C	 -2.664672	 0.129869	 0.003507
C	 -3.797908	 -0.860100	 -0.001145
O	 -1.481217	 -0.452708	 0.001092
H	 -4.408836	 -0.679689	 -0.875387
H	 -3.443486	 -1.878443	 -0.002770
H	 -4.412123	 -0.683688	 0.871605
C	 -0.332055	 0.384012	 -0.000250
C	 0.892252	 -0.506059	 -0.000295
H	 -0.360822	 1.020205	 -0.874146
H	 -0.359817	 1.021310	 0.872861
C	 2.179280	 0.287216	 -0.206776
H	 0.786054	 -1.250436	 -0.782788
H	 0.935749	 -1.044732	 0.940771
C	 3.428116	 -0.590009	 -0.209990
H	 2.122929	 0.831552	 -1.146191
H	 2.272017	 1.037469	 0.574565
C	 4.714555	 0.202459	 -0.415114
H	 3.337410	 -1.339034	 -0.991521
H	 3.485587	 -1.134347	 0.728349
H	 4.701764	 0.731235	 -1.362256
H	 5.580828	 -0.448746	 -0.412070
H	 4.850918	 0.937738	 0.370776

	symmetry c1
}
set optking {
	frozen_dihedral = ("
		13 9 8 10
	")
}

ee,wfn = optimize('scf', return_wfn=True)
oeprop( wfn, 'DIPOLE', 'QUADRUPOLE', 'MULLIKEN_CHARGES')
f=open( 'psi4out.xyz', 'w' )
f.write( "23  " )
f.write( str(ee) + "\n" )
f.write( MOL.save_string_xyz() )
f.close()
--------------------------------------------------------------------------

    Molecular point group: c1
  Charge       = 0
  Multiplicity = 1
  Basis Set: CC-PVTZ
  Basis Set:
  @DF-RHF Final Energy:  -423.13452814199320
    Total Energy =                       -423.1345281419936555
    Molecular point group: c1
  Basis Set: CC-PVTZ
  Basis Set:
  Basis Set: CC-PVTZ
  Basis Set:
  @DF-RHF Final Energy:  -423.13435246268926
    Total Energy =                       -423.1343524626890940
  Basis Set: CC-PVTZ
  Basis Set:
  Basis Set: CC-PVTZ
  Basis Set:
  @DF-RHF Final Energy:  -423.13448021739600
    Total Energy =                       -423.1344802173961170
  Basis Set: CC-PVTZ
  Basis Set:
  Basis Set: CC-PVTZ
  Basis Set:
  @DF-RHF Final Energy:  -423.13457728208135
    Total Energy =                       -423.1345772820812954
  Basis Set: CC-PVTZ
  Basis Set:
  Basis Set: CC-PVTZ
  Basis Set:
  @DF-RHF Final Energy:  -423.13457901041068
    Total Energy =                       -423.1345790104113576
  Basis Set: CC-PVTZ
  Basis Set:
  Charge       = 0
  Multiplicity = 1
  Basis Set: CC-PVTZ
  Basis Set:

    Orbital Energies (a.u.)
    -----------------------

    Doubly Occupied:

       1A    -20.596269     2A    -20.529720     3A    -11.366577
       4A    -11.279315     5A    -11.230770     6A    -11.222217
       7A    -11.221358     8A    -11.219441     9A    -11.210879
      10A     -1.471464    11A     -1.364313    12A     -1.095236
      13A     -1.043302    14A     -1.004326    15A     -0.931776
      16A     -0.842456    17A     -0.803253    18A     -0.776639
      19A     -0.694332    20A     -0.688455    21A     -0.671481
      22A     -0.648066    23A     -0.606896    24A     -0.589225
      25A     -0.584250    26A     -0.567135    27A     -0.559791
      28A     -0.538906    29A     -0.524066    30A     -0.505813
      31A     -0.491437    32A     -0.478420    33A     -0.471191
      34A     -0.466851    35A     -0.454881    36A     -0.439119

  @DF-RHF Final Energy:  -423.13457939317584

   => Energetics <=

    Nuclear Repulsion Energy =            450.4501208410111985
    One-Electron Energy =               -1468.7901439439085607
    Two-Electron Energy =                 595.2054437097215214
    DFT Exchange-Correlation Energy =       0.0000000000000000
    Empirical Dispersion Energy =           0.0000000000000000
    PCM Polarization Energy =               0.0000000000000000
    EFP Energy =                            0.0000000000000000
    Total Energy =                       -423.1345793931758408
    Molecular point group: c1
  Basis Set: CC-PVTZ
  Basis Set:

  -Total Gradient:
     Atom            X                  Y                   Z
    ------   -----------------  -----------------  -----------------
       1       -0.000001333540    -0.000068229582    -0.000024565298
       2        0.000033695912     0.000053397886     0.000033149985
       3       -0.000014381560    -0.000022067527    -0.000007322429
       4       -0.000065319090    -0.000021004372    -0.000028750631
       5        0.000017822551    -0.000010913786     0.000030164417
       6       -0.000015854666     0.000055155892     0.000000673433
       7        0.000012293369    -0.000010740755    -0.000026641898
       8       -0.001279239828    -0.001755878373    -0.000745716253
       9        0.001177287074     0.001630303174    -0.001158019237
      10        0.000882731713     0.001207717806     0.000856413400
      11        0.000012200026     0.000002127578    -0.000029006348
      12        0.000022119350     0.000002588033    -0.000003074969
      13       -0.000753788845    -0.001059856426     0.001100138244
      14       -0.000007339111     0.000003385035    -0.000011355548
      15       -0.000007099140    -0.000000361225     0.000010615504
      16       -0.000003658759    -0.000011836047     0.000021130589
      17        0.000005341787    -0.000014987298    -0.000017148936
      18        0.000008033860     0.000001892915    -0.000000879464
      19       -0.000003338207     0.000016812791     0.000016137505
      20       -0.000004128659     0.000006146997    -0.000019946940
      21        0.000001174669    -0.000007280719     0.000018782623
      22       -0.000017344799     0.000013859126    -0.000000633102
      23        0.000000125888    -0.000010231126    -0.000014144647

  **** Optimization is complete! (in 6 steps) ****
    Final optimized geometry and variables:
    Molecular point group: c1

    Geometry (in Angstrom), charge = 0, multiplicity = 1:

    O           -2.812117565574     1.311181101827     0.113939295218
    C           -2.661890813070     0.136623297662     0.105762006458
    C           -3.797130662420    -0.851086488305     0.122278537834
    O           -1.479791352278    -0.448417355919     0.080542157563
    H           -4.425958512852    -0.666793650132    -0.738349763469
    H           -3.444935088177    -1.870082116699     0.110186749087
    H           -4.392381330824    -0.676068180765     1.008373866288
    C           -0.330065895489     0.385116399162     0.065354336504
    C            0.895755731201    -0.503865951155     0.052561306330
    H           -0.363410342331     1.029639010478    -0.802625059552
    H           -0.345217383570     1.022349450984     0.939098090395
    C            2.184303044505     0.290894868029    -0.132799779826
    H            0.786869231275    -1.240908841288    -0.736384678512
    H            0.935440282770    -1.059612755474     0.984418134611
    C            3.434862884680    -0.583270652509    -0.108506698500
    H            2.143575332806     0.830890964954    -1.075348140935
    H            2.260907483249     1.045026007422     0.646875438619
    C            4.722497650873     0.210634061600    -0.299949075025
    H            3.358146933220    -1.339068497613    -0.885091027566
    H            3.478781138646    -1.119583079720     0.835151314610
    H            4.723729284124     0.731218443518    -1.251724511683
    H            5.590034352918    -0.438508617909    -0.277386273436
    H            4.844601365495     0.953021196748     0.481640169871

  Mulliken Charges: (a.u.)
   Center  Symbol    Alpha    Beta     Spin     Total
       1     O     4.20223  4.20223  0.00000 -0.40446
       2     C     2.81486  2.81486  0.00000  0.37029
       3     C     3.13999  3.13999  0.00000 -0.27998
       4     O     4.14450  4.14450  0.00000 -0.28900
       5     H     0.44209  0.44209  0.00000  0.11582
       6     H     0.44184  0.44184  0.00000  0.11632
       7     H     0.44211  0.44211  0.00000  0.11578
       8     C     2.97881  2.97881  0.00000  0.04238
       9     C     3.08162  3.08162  0.00000 -0.16324
      10     H     0.45515  0.45515  0.00000  0.08970
      11     H     0.45360  0.45360  0.00000  0.09280
      12     C     3.09739  3.09739  0.00000 -0.19478
      13     H     0.45034  0.45034  0.00000  0.09933
      14     H     0.45149  0.45149  0.00000  0.09701
      15     C     3.08507  3.08507  0.00000 -0.17014
      16     H     0.45260  0.45260  0.00000  0.09481
      17     H     0.45308  0.45308  0.00000  0.09384
      18     C     3.14957  3.14957  0.00000 -0.29913
      19     H     0.45346  0.45346  0.00000  0.09308
      20     H     0.45342  0.45342  0.00000  0.09316
      21     H     0.45454  0.45454  0.00000  0.09091
      22     H     0.44769  0.44769  0.00000  0.10462
      23     H     0.45457  0.45457  0.00000  0.09087

   Total alpha = 36.00000, Total beta = 36.00000, Total charge = -0.00000

*** Psi4 exiting successfully. Buy a developer a beer!
