                              Psi4 1.0.54 Driver

  ==> Input File <==

--------------------------------------------------------------------------
set {
	reference rhf
	basis cc-pvtz
}

set_num_threads( 4 )
memory 2 gb

molecule MOL {
0 1

H	 -3.941973	 0.934228	 -0.390224
C	 -3.240162	 0.342701	 0.161016
C	 -2.105997	 -0.000418	 -0.398703
H	 -3.485368	 0.047206	 1.162193
O	 -1.189946	 -0.765863	 0.237511
H	 -1.846458	 0.297311	 -1.398265
C	 0.026572	 -0.995256	 -0.379403
C	 1.057223	 0.049888	 -0.004615
H	 -0.054361	 -1.010670	 -1.459674
H	 0.397526	 -1.952058	 -0.044198
F	 0.494010	 0.969820	 0.752747
F	 2.057940	 -0.468702	 0.674456
F	 1.558668	 0.647599	 -1.058063

	symmetry c1
}
set optking {
	frozen_dihedral = ("
		11 8 7 9
	")
}

ee,wfn = optimize('scf', return_wfn=True)
oeprop( wfn, 'DIPOLE', 'QUADRUPOLE', 'MULLIKEN_CHARGES')
f=open( 'psi4out.xyz', 'w' )
f.write( "13  " )
f.write( str(ee) + "\n" )
f.write( MOL.save_string_xyz() )
f.close()
--------------------------------------------------------------------------

    Molecular point group: c1
  Charge       = 0
  Multiplicity = 1
  Basis Set: CC-PVTZ
  Basis Set:
  @DF-RHF Final Energy:  -527.73395748265887
    Total Energy =                       -527.7339574826585249
    Molecular point group: c1
  Basis Set: CC-PVTZ
  Basis Set:
  Basis Set: CC-PVTZ
  Basis Set:
  @DF-RHF Final Energy:  -527.73070559701364
    Total Energy =                       -527.7307055970136389
  Basis Set: CC-PVTZ
  Basis Set:
  Basis Set: CC-PVTZ
  Basis Set:
  @DF-RHF Final Energy:  -527.73536978901825
    Total Energy =                       -527.7353697890182502
  Basis Set: CC-PVTZ
  Basis Set:
  Basis Set: CC-PVTZ
  Basis Set:
  @DF-RHF Final Energy:  -527.73547092310207
    Total Energy =                       -527.7354709231024117
  Basis Set: CC-PVTZ
  Basis Set:
  Basis Set: CC-PVTZ
  Basis Set:
  @DF-RHF Final Energy:  -527.73548973043216
    Total Energy =                       -527.7354897304318229
  Basis Set: CC-PVTZ
  Basis Set:
  Basis Set: CC-PVTZ
  Basis Set:
  @DF-RHF Final Energy:  -527.73549357312231
    Total Energy =                       -527.7354935731225396
  Basis Set: CC-PVTZ
  Basis Set:
  Basis Set: CC-PVTZ
  Basis Set:
  @DF-RHF Final Energy:  -527.73549631991352
    Total Energy =                       -527.7354963199138638
  Basis Set: CC-PVTZ
  Basis Set:
  Charge       = 0
  Multiplicity = 1
  Basis Set: CC-PVTZ
  Basis Set:

    Orbital Energies (a.u.)
    -----------------------

    Doubly Occupied:

       1A    -26.340201     2A    -26.339553     3A    -26.338489
       4A    -20.603218     5A    -11.499675     6A    -11.319737
       7A    -11.298431     8A    -11.214623     9A     -1.750587
      10A     -1.646799    11A     -1.644042    12A     -1.444146
      13A     -1.083903    14A     -1.019099    15A     -0.932485
      16A     -0.843623    17A     -0.837889    18A     -0.827878
      19A     -0.796565    20A     -0.730851    21A     -0.723091
      22A     -0.701609    23A     -0.680098    24A     -0.668536
      25A     -0.661841    26A     -0.649738    27A     -0.634355
      28A     -0.587165    29A     -0.565124    30A     -0.528774
      31A     -0.516313    32A     -0.357233

  @DF-RHF Final Energy:  -527.73549715752324

   => Energetics <=

    Nuclear Repulsion Energy =            412.9921123276749881
    One-Electron Energy =               -1549.8838713400873530
    Two-Electron Energy =                 609.1562618548892942
    DFT Exchange-Correlation Energy =       0.0000000000000000
    Empirical Dispersion Energy =           0.0000000000000000
    PCM Polarization Energy =               0.0000000000000000
    EFP Energy =                            0.0000000000000000
    Total Energy =                       -527.7354971575231275
    Molecular point group: c1
  Basis Set: CC-PVTZ
  Basis Set:

  -Total Gradient:
     Atom            X                  Y                   Z
    ------   -----------------  -----------------  -----------------
       1       -0.000014342121    -0.000025486714    -0.000037348351
       2       -0.000000293068     0.000012452381     0.000006712480
       3        0.000087315104     0.000090583006     0.000137597885
       4       -0.000011909156    -0.000010980210     0.000019989075
       5       -0.000126169300    -0.000064963666    -0.000048081783
       6       -0.000009863614    -0.000023507943    -0.000061363952
       7       -0.000344526877     0.000394427854     0.000143606835
       8       -0.000281885415     0.000397106843    -0.000274691104
       9        0.000400525216    -0.000417769262    -0.000058652890
      10       -0.000020347978     0.000003997610    -0.000004480972
      11        0.000178602369    -0.000399584659     0.000263106032
      12        0.000069241122    -0.000036529985     0.000028534526
      13        0.000073653709     0.000080254748    -0.000114927779

  **** Optimization is complete! (in 8 steps) ****
    Final optimized geometry and variables:
    Molecular point group: c1

    Geometry (in Angstrom), charge = 0, multiplicity = 1:

    H           -3.835395663021     1.199467147203    -0.401540605349
    C           -3.234866768037     0.419616233899     0.019813064352
    C           -2.046254795284     0.180260376577    -0.477268099402
    H           -3.624006447003    -0.146187005821     0.843461611394
    O           -1.248113480458    -0.802941303137    -0.003033396610
    H           -1.645648002226     0.746448472682    -1.299409844772
    C            0.014263949096    -0.936265033609    -0.549471450337
    C            1.054299756200     0.016413094022     0.066604403396
    H            0.009936348530    -0.775626685612    -1.619933359080
    H            0.341808439936    -1.944268782836    -0.353896190471
    F            0.527875257777     0.845835783045     0.930341316113
    F            2.003338155172    -0.655843635585     0.685435854380
    F            1.644714539258     0.736930421738    -0.869090342032

  Mulliken Charges: (a.u.)
   Center  Symbol    Alpha    Beta     Spin     Total
       1     H     0.42543  0.42543  0.00000  0.14914
       2     C     3.19574  3.19574  0.00000 -0.39148
       3     C     2.95828  2.95828  0.00000  0.08345
       4     H     0.42494  0.42494  0.00000  0.15012
       5     O     4.13889  4.13889  0.00000 -0.27779
       6     H     0.43451  0.43451  0.00000  0.13097
       7     C     3.03511  3.03511  0.00000 -0.07022
       8     C     2.67211  2.67211  0.00000  0.65577
       9     H     0.45467  0.45467  0.00000  0.09065
      10     H     0.43466  0.43466  0.00000  0.13068
      11     F     4.60215  4.60215  0.00000 -0.20430
      12     F     4.61035  4.61035  0.00000 -0.22069
      13     F     4.61315  4.61315  0.00000 -0.22630

   Total alpha = 32.00000, Total beta = 32.00000, Total charge = -0.00000

*** Psi4 exiting successfully. Buy a developer a beer!
