  ==> Input File <==

--------------------------------------------------------------------------
set {
	reference rhf
	basis 6-31G*
}

set_num_threads( 4 )
memory 2 gb

molecule MOL {
0 1

H	 -2.499100	 -0.730091	 -0.745082
O	 -2.347518	 -0.290803	 0.079804
C	 -1.184022	 0.487508	 -0.006784
C	 0.062599	 -0.378592	 0.031606
H	 -1.176523	 1.099369	 -0.904519
H	 -1.187323	 1.153111	 0.844927
O	 1.171513	 0.459272	 -0.058250
H	 0.050699	 -1.089204	 -0.797170
H	 0.078739	 -0.954914	 0.954740
C	 0.872551	 1.779655	 -0.384368
H	 0.228888	 2.238350	 0.363916
H	 1.805121	 2.325070	 -0.426057
H	 0.379895	 1.847954	 -1.352054

	symmetry c1
}
set optking {
	frozen_dihedral = ("
		10 7 4 8
	")
}

ee = optimize('scf')
oeprop('DIPOLE', 'QUADRUPOLE', 'MULLIKEN_CHARGES')
f=open( 'psi4out.xyz', 'w' )
f.write( "13  " )
f.write( str(ee) + "\n" )
f.write( MOL.save_string_xyz() )
f.close()
--------------------------------------------------------------------------

    Molecular point group: c1
  Charge       = 0
  Multiplicity = 1
  Basis Set: 6-31G*
  Basis Set:
  @DF-RHF Final Energy:  -267.92048071604415
    Total Energy =                       -267.9204807160443238
    Molecular point group: c1
  Basis Set: 6-31G*
  Basis Set:
  Basis Set: 6-31G*
  Basis Set:
  @DF-RHF Final Energy:  -267.92718677251446
    Total Energy =                       -267.9271867725142897
  Basis Set: 6-31G*
  Basis Set:
  Basis Set: 6-31G*
  Basis Set:
  @DF-RHF Final Energy:  -267.93447655284479
    Total Energy =                       -267.9344765528450125
  Basis Set: 6-31G*
  Basis Set:
  Basis Set: 6-31G*
  Basis Set:
  @DF-RHF Final Energy:  -267.93754210124933
    Total Energy =                       -267.9375421012492211
  Basis Set: 6-31G*
  Basis Set:
  @DF-RHF Final Energy:  -267.93874750769828
    Total Energy =                       -267.9387475076982810
  Basis Set: 6-31G*
  Basis Set:
  @DF-RHF Final Energy:  -267.93902094771931
    Total Energy =                       -267.9390209477195413
  Basis Set: 6-31G*
  Basis Set:
  Basis Set: 6-31G*
  Basis Set:
  @DF-RHF Final Energy:  -267.93907519880008
    Total Energy =                       -267.9390751988001398
  Basis Set: 6-31G*
  Basis Set:
  Basis Set: 6-31G*
  Basis Set:
  @DF-RHF Final Energy:  -267.93908130966759
    Total Energy =                       -267.9390813096673583
  Basis Set: 6-31G*
  Basis Set:
  Charge       = 0
  Multiplicity = 1
  Basis Set: 6-31G*
  Basis Set:

    Orbital Energies (a.u.)
    -----------------------

    Doubly Occupied:

       1A    -20.567001     2A    -20.556580     3A    -11.278813
       4A    -11.271776     5A    -11.271484     6A     -1.381645
       7A     -1.369202     8A     -1.013912     9A     -0.940267
      10A     -0.828724    11A     -0.713141    12A     -0.676292
      13A     -0.662971    14A     -0.633101    15A     -0.599013
      16A     -0.566644    17A     -0.543997    18A     -0.514509
      19A     -0.492311    20A     -0.430074    21A     -0.410281

  @DF-RHF Final Energy:  -267.93908171032268

   => Energetics <=

    Nuclear Repulsion Energy =            192.5937034321036663
    One-Electron Energy =                -747.6220915181912687
    Two-Electron Energy =                 287.0893063757649202
    DFT Exchange-Correlation Energy =       0.0000000000000000
    Empirical Dispersion Energy =           0.0000000000000000
    PCM Polarization Energy =               0.0000000000000000
    EFP Energy =                            0.0000000000000000
    Total Energy =                       -267.9390817103226823
    Molecular point group: c1
  Basis Set: 6-31G*
  Basis Set:

  -Total Gradient:
     Atom            X                  Y                   Z
    ------   -----------------  -----------------  -----------------
       1        0.000007894345     0.000010771501     0.000002439133
       2       -0.000002703408     0.000006681062     0.000048669743
       3       -0.000023650636    -0.000014654791    -0.000101890237
       4       -0.002198838818     0.003088416767    -0.000935343590
       5        0.000000924759     0.000012105927     0.000011192404
       6       -0.000002530746    -0.000015248133    -0.000000565754
       7        0.000896596066    -0.001546503503    -0.003703406034
       8        0.001607977804    -0.002207584043     0.001900378507
       9        0.000021797263    -0.000011189965    -0.000000562987
      10       -0.000311395995     0.000670620634     0.002776752883
      11       -0.000001987829     0.000000045554    -0.000003196942
      12       -0.000000238803     0.000004054811     0.000001509304
      13        0.000006155998     0.000002484182     0.000004023571

  **** Optimization is complete! (in 9 steps) ****
    Final optimized geometry and variables:
    Molecular point group: c1

    Geometry (in Angstrom), charge = 0, multiplicity = 1:

    H           -2.130584924716    -1.388110388165    -0.596355571382
    O           -2.051936994664    -0.899045342982     0.211023170974
    C           -1.018675892721     0.041750832315     0.094884628360
    C            0.325832270174    -0.681126654537     0.063525899002
    H           -1.162312186498     0.665570499599    -0.782761287274
    H           -1.091104291984     0.676455960482     0.967140442995
    O            1.484475032034     0.108144835452     0.006193750555
    H            0.340566980824    -1.380429758043    -0.771823365187
    H            0.393781841629    -1.280238392427     0.963765957934
    C            1.401430493496     1.459975226711    -0.325278681060
    H            0.794902235442     2.024400940468     0.376678868563
    H            2.410689727757     1.845936767320    -0.288197502539
    H            1.013071281580     1.617842840424    -1.328967199353

  Mulliken Charges: (a.u.)
   Center  Symbol    Alpha    Beta     Spin     Total
       1     H     0.28041  0.28041  0.00000  0.43919
       2     O     4.36964  4.36964  0.00000 -0.73928
       3     C     3.01885  3.01885  0.00000 -0.03770
       4     C     2.98705  2.98705  0.00000  0.02589
       5     H     0.42576  0.42576  0.00000  0.14848
       6     H     0.40953  0.40953  0.00000  0.18094
       7     O     4.31459  4.31459  0.00000 -0.62918
       8     H     0.43329  0.43329  0.00000  0.13342
       9     H     0.41202  0.41202  0.00000  0.17597
      10     C     3.08234  3.08234  0.00000 -0.16468
      11     H     0.42785  0.42785  0.00000  0.14430
      12     H     0.40875  0.40875  0.00000  0.18251
      13     H     0.42993  0.42993  0.00000  0.14014

   Total alpha = 21.00000, Total beta = 21.00000, Total charge =  0.00000
