                              Psi4 1.0.54 Driver

  ==> Input File <==

--------------------------------------------------------------------------
set {
	reference rhf
	basis cc-pvtz
}

set_num_threads( 4 )
memory 2 gb

molecule MOL {
0 1

H	 -2.227935	 -0.694090	 0.280856
O	 -1.432053	 -0.565244	 -0.200812
C	 -0.727158	 0.534527	 0.310686
C	 0.680222	 0.664433	 -0.252229
H	 -1.306802	 1.408001	 0.044211
H	 -0.690821	 0.490158	 1.397609
C	 1.605391	 -0.489360	 0.123098
H	 0.615089	 0.745647	 -1.332226
H	 1.101414	 1.597893	 0.110950
H	 1.247627	 -1.432485	 -0.275204
H	 2.601435	 -0.332816	 -0.273062
H	 1.691776	 -0.589902	 1.200774

	symmetry c1
}
set optking {
	frozen_dihedral = ("
		1 2 3 4
	")
}

ee,wfn = optimize('scf', return_wfn=True)
oeprop( wfn, 'DIPOLE', 'QUADRUPOLE', 'MULLIKEN_CHARGES')
f=open( 'psi4out.xyz', 'w' )
f.write( "12  " )
f.write( str(ee) + "\n" )
f.write( MOL.save_string_xyz() )
f.close()
--------------------------------------------------------------------------

    Molecular point group: c1
  Charge       = 0
  Multiplicity = 1
  Basis Set: CC-PVTZ
  Basis Set:
  @DF-RHF Final Energy:  -193.18950963082330
    Total Energy =                       -193.1895096308231530
    Molecular point group: c1
  Basis Set: CC-PVTZ
  Basis Set:
  Basis Set: CC-PVTZ
  Basis Set:
  @DF-RHF Final Energy:  -193.00045656356332
    Total Energy =                       -193.0004565635633185
  Basis Set: CC-PVTZ
  Basis Set:
  Basis Set: CC-PVTZ
  Basis Set:
  @DF-RHF Final Energy:  -193.11808323536243
    Total Energy =                       -193.1180832353626329
  Basis Set: CC-PVTZ
  Basis Set:
  Basis Set: CC-PVTZ
  Basis Set:
  @DF-RHF Final Energy:  -193.18495492373884
    Total Energy =                       -193.1849549237388715
  Basis Set: CC-PVTZ
  Basis Set:
  @DF-RHF Final Energy:  -193.01054829599087
    Total Energy =                       -193.0105482959909580
  @DF-RHF Final Energy:  -193.16265050002318
    Total Energy =                       -193.1626505000231191
  @DF-RHF Final Energy:  -193.19065813898391
    Total Energy =                       -193.1906581389838777
  Basis Set: CC-PVTZ
  Basis Set:
  @DF-RHF Final Energy:  -193.19118067950424
    Total Energy =                       -193.1911806795041571
  Basis Set: CC-PVTZ
  Basis Set:
  Basis Set: CC-PVTZ
  Basis Set:
  @DF-RHF Final Energy:  -193.19126225885813
    Total Energy =                       -193.1912622588580177
  Basis Set: CC-PVTZ
  Basis Set:
  Basis Set: CC-PVTZ
  Basis Set:
  @DF-RHF Final Energy:  -193.19126674925678
    Total Energy =                       -193.1912667492568971
  Basis Set: CC-PVTZ
  Basis Set:
  Charge       = 0
  Multiplicity = 1
  Basis Set: CC-PVTZ
  Basis Set:

    Orbital Energies (a.u.)
    -----------------------

    Doubly Occupied:

       1A    -20.546457     2A    -11.266194     3A    -11.213007
       4A    -11.201717     5A     -1.364449     6A     -1.048137
       7A     -0.919521     8A     -0.798654     9A     -0.708768
      10A     -0.643354    11A     -0.587621    12A     -0.583117
      13A     -0.535389    14A     -0.499871    15A     -0.483706
      16A     -0.465507    17A     -0.436433

  @DF-RHF Final Energy:  -193.19126697878508

   => Energetics <=

    Nuclear Repulsion Energy =            133.4137927718288381
    One-Electron Energy =                -526.6063175192175549
    Two-Electron Energy =                 200.0012577686035513
    DFT Exchange-Correlation Energy =       0.0000000000000000
    Empirical Dispersion Energy =           0.0000000000000000
    PCM Polarization Energy =               0.0000000000000000
    EFP Energy =                            0.0000000000000000
    Total Energy =                       -193.1912669787851371
    Molecular point group: c1
  Basis Set: CC-PVTZ
  Basis Set:

  -Total Gradient:
     Atom            X                  Y                   Z
    ------   -----------------  -----------------  -----------------
       1        0.000232530827    -0.000331818890     0.000408435278
       2       -0.000218162266     0.000300192669    -0.000386686640
       3       -0.000149641175     0.000222275687    -0.000301543910
       4        0.000143723335    -0.000198700941     0.000270200808
       5        0.000013787871    -0.000012521540    -0.000000591641
       6       -0.000031056310    -0.000019947560    -0.000028417498
       7        0.000018347135     0.000036381302     0.000023556902
       8        0.000008028139     0.000029842713     0.000012409141
       9        0.000011983543     0.000007856593     0.000009387815
      10       -0.000006991121    -0.000008049047     0.000006337696
      11       -0.000013710624    -0.000016433010    -0.000003729788
      12       -0.000008839358    -0.000009077976    -0.000009358162

  **** Optimization is complete! (in 11 steps) ****
    Final optimized geometry and variables:
    Molecular point group: c1

    Geometry (in Angstrom), charge = 0, multiplicity = 1:

    H           -1.243894568912     1.423070272722     1.305674691058
    O           -1.099978845421     0.770104339703     0.646408650469
    C            0.164114191366     0.942792870982     0.060302762898
    C            0.472236557454    -0.257102351830    -0.814478176204
    H            0.180009005894     1.848188406993    -0.541082522722
    H            0.928541083410     1.043270074267     0.828231958065
    C            0.592127422557    -1.563376421534    -0.037134909290
    H           -0.307938876223    -0.343687533240    -1.563684650650
    H            1.398293077324    -0.056672246939    -1.345555854800
    H           -0.325252979641    -1.784161864980     0.491837363792
    H            0.805482105905    -2.390768132743    -0.704012431978
    H            1.394944535800    -1.510898020361     0.691613523889

  Mulliken Charges: (a.u.)
   Center  Symbol    Alpha    Beta     Spin     Total
       1     H     0.39502  0.39502  0.00000  0.20996
       2     O     4.19985  4.19985  0.00000 -0.39969
       3     C     2.96967  2.96967  0.00000  0.06066
       4     C     3.08297  3.08297  0.00000 -0.16595
       5     H     0.46609  0.46609  0.00000  0.06783
       6     H     0.47464  0.47464  0.00000  0.05072
       7     C     3.14891  3.14891  0.00000 -0.29782
       8     H     0.45223  0.45223  0.00000  0.09555
       9     H     0.45533  0.45533  0.00000  0.08933
      10     H     0.44506  0.44506  0.00000  0.10988
      11     H     0.45075  0.45075  0.00000  0.09850
      12     H     0.45948  0.45948  0.00000  0.08105

   Total alpha = 17.00000, Total beta = 17.00000, Total charge =  0.00000

*** Psi4 exiting successfully. Buy a developer a beer!
