  ==> Input File <==

--------------------------------------------------------------------------
set {
	reference rhf
	basis 6-31G*
}

set_num_threads( 4 )
memory 2 gb

molecule MOL {
0 1

H	 0.092279	 4.200725	 0.385041
O	 -0.134704	 3.793075	 -0.438784
C	 -0.146663	 2.398767	 -0.287949
C	 1.263305	 1.841079	 -0.206455
H	 -0.711193	 2.094944	 0.589180
H	 -0.645463	 1.993144	 -1.156925
O	 1.171513	 0.459272	 -0.058250
H	 1.792691	 2.283222	 0.639855
H	 1.812990	 2.104383	 -1.108176
C	 2.397842	 -0.198080	 -0.002151
H	 2.508049	 -0.905315	 -0.822092
H	 3.173794	 0.550865	 -0.078850
H	 2.517602	 -0.735921	 0.936026

	symmetry c1
}
set optking {
	frozen_dihedral = ("
		4 7 10 13
	")
}

ee = optimize('scf')
oeprop('DIPOLE', 'QUADRUPOLE', 'MULLIKEN_CHARGES')
f=open( 'psi4out.xyz', 'w' )
f.write( "13  " )
f.write( str(ee) + "\n" )
f.write( MOL.save_string_xyz() )
f.close()
--------------------------------------------------------------------------

    Molecular point group: c1
  Charge       = 0
  Multiplicity = 1
  Basis Set: 6-31G*
  Basis Set:
  @DF-RHF Final Energy:  -267.94553969395110
    Total Energy =                       -267.9455396939514458
    Molecular point group: c1
  Basis Set: 6-31G*
  Basis Set:
  Basis Set: 6-31G*
  Basis Set:
  @DF-RHF Final Energy:  -267.94643435799196
    Total Energy =                       -267.9464343579918477
  Basis Set: 6-31G*
  Basis Set:
  Basis Set: 6-31G*
  Basis Set:
  @DF-RHF Final Energy:  -267.94674909529579
    Total Energy =                       -267.9467490952959565
  Basis Set: 6-31G*
  Basis Set:
  Charge       = 0
  Multiplicity = 1
  Basis Set: 6-31G*
  Basis Set:

    Orbital Energies (a.u.)
    -----------------------

    Doubly Occupied:

       1A    -20.559748     2A    -20.558385     3A    -11.271291
       4A    -11.269778     5A    -11.268320     6A     -1.383982
       7A     -1.364197     8A     -1.018200     9A     -0.913614
      10A     -0.841416    11A     -0.708534    12A     -0.671037
      13A     -0.657944    14A     -0.636097    15A     -0.596320
      16A     -0.568678    17A     -0.548685    18A     -0.489312
      19A     -0.481382    20A     -0.437743    21A     -0.416148

  @DF-RHF Final Energy:  -267.94675163383079

   => Energetics <=

    Nuclear Repulsion Energy =            189.8975447678612625
    One-Electron Energy =                -742.3669687431804505
    Two-Electron Energy =                 284.5226723414882599
    DFT Exchange-Correlation Energy =       0.0000000000000000
    Empirical Dispersion Energy =           0.0000000000000000
    PCM Polarization Energy =               0.0000000000000000
    EFP Energy =                            0.0000000000000000
    Total Energy =                       -267.9467516338308997
    Molecular point group: c1
  Basis Set: 6-31G*
  Basis Set:

  -Total Gradient:
     Atom            X                  Y                   Z
    ------   -----------------  -----------------  -----------------
       1       -0.000000111178     0.000012824937    -0.000000489996
       2       -0.000000933517     0.000026277933     0.000004519271
       3       -0.000008788971    -0.000023041332    -0.000005117304
       4        0.000023370272    -0.000007417814    -0.000069852187
       5       -0.000002810705    -0.000004559961    -0.000005640656
       6       -0.000000682702    -0.000005867573     0.000006895045
       7        0.000111972473    -0.000131709970     0.000177187330
       8       -0.000004622893    -0.000024284842    -0.000006124014
       9       -0.000002529411    -0.000024013600     0.000008627307
      10       -0.000006890716     0.000247106307    -0.000083209008
      11       -0.000015135636    -0.000028190943     0.000010000672
      12        0.000050776446     0.000007441570     0.000004556133
      13       -0.000143613462    -0.000044564716    -0.000041352593

  **** Optimization is complete! (in 4 steps) ****
    Final optimized geometry and variables:
    Molecular point group: c1

    Geometry (in Angstrom), charge = 0, multiplicity = 1:

    H           -0.859550859450     2.511338838535     0.580265687761
    O           -1.075025291208     2.101239064483    -0.245409053522
    C           -1.063751823286     0.706326614396    -0.097021330826
    C            0.355197559174     0.172451814105    -0.014358256650
    H           -1.624037176661     0.391684866885     0.778896860594
    H           -1.554378497714     0.293218915656    -0.967097474503
    O            0.280329973441    -1.211932845890     0.130780958583
    H            0.873625649257     0.623232578093     0.833427048128
    H            0.898932939593     0.447499940079    -0.915306050391
    C            1.498752155423    -1.896264189638     0.186985239710
    H            1.547635555115    -2.617757848201    -0.621062423598
    H            2.345850780872    -1.223259050057     0.098995931137
    H            1.575562080071    -2.424864637715     1.130887922448

  Mulliken Charges: (a.u.)
   Center  Symbol    Alpha    Beta     Spin     Total
       1     H     0.28131  0.28131  0.00000  0.43737
       2     O     4.37097  4.37097  0.00000 -0.74195
       3     C     3.00495  3.00495  0.00000 -0.00990
       4     C     2.99624  2.99624  0.00000  0.00752
       5     H     0.42233  0.42233  0.00000  0.15534
       6     H     0.40851  0.40851  0.00000  0.18297
       7     O     4.31252  4.31252  0.00000 -0.62504
       8     H     0.43746  0.43746  0.00000  0.12507
       9     H     0.42310  0.42310  0.00000  0.15381
      10     C     3.07664  3.07664  0.00000 -0.15327
      11     H     0.41844  0.41844  0.00000  0.16311
      12     H     0.42782  0.42782  0.00000  0.14436
      13     H     0.41970  0.41970  0.00000  0.16059

   Total alpha = 21.00000, Total beta = 21.00000, Total charge = -0.00000
