  ==> Input File <==

--------------------------------------------------------------------------
set {
	reference rhf
	basis 6-31G*
}

set_num_threads( 4 )
memory 2 gb

molecule MOL {
0 1

H	 0.345616	 3.556480	 -1.863302
O	 -0.109224	 2.955899	 -1.290492
C	 0.789139	 1.987049	 -0.811493
C	 0.031547	 1.023609	 0.088541
H	 1.587933	 2.457514	 -0.240986
H	 1.253112	 1.454737	 -1.638823
C	 -1.134819	 0.293262	 -0.585751
H	 -0.347220	 1.586029	 0.937367
H	 0.742513	 0.299042	 0.481924
C	 -1.917817	 -0.639439	 0.339494
H	 -0.758119	 -0.268455	 -1.433105
H	 -1.813832	 1.041889	 -0.986690
H	 -2.777680	 -1.057197	 -0.174994
H	 -1.310268	 -1.471279	 0.680599
H	 -2.283753	 -0.111424	 1.216626

	symmetry c1
}
set optking {
	frozen_dihedral = ("
		8 4 7 11
	")
}

ee = optimize('scf')
oeprop('DIPOLE', 'QUADRUPOLE', 'MULLIKEN_CHARGES')
f=open( 'psi4out.xyz', 'w' )
f.write( "15  " )
f.write( str(ee) + "\n" )
f.write( MOL.save_string_xyz() )
f.close()
--------------------------------------------------------------------------

    Molecular point group: c1
  Charge       = 0
  Multiplicity = 1
  Basis Set: 6-31G*
  Basis Set:
  @DF-RHF Final Energy:  -232.14471214232412
    Total Energy =                       -232.1447121423241811
    Molecular point group: c1
  Basis Set: 6-31G*
  Basis Set:
  Basis Set: 6-31G*
  Basis Set:
  @DF-RHF Final Energy:  -232.14519907214324
    Total Energy =                       -232.1451990721431002
  Basis Set: 6-31G*
  Basis Set:
  Basis Set: 6-31G*
  Basis Set:
  @DF-RHF Final Energy:  -232.14524918765395
    Total Energy =                       -232.1452491876538033
  Basis Set: 6-31G*
  Basis Set:
  Basis Set: 6-31G*
  Basis Set:
  @DF-RHF Final Energy:  -232.14525159658334
    Total Energy =                       -232.1452515965834777
  Basis Set: 6-31G*
  Basis Set:
  Charge       = 0
  Multiplicity = 1
  Basis Set: 6-31G*
  Basis Set:

    Orbital Energies (a.u.)
    -----------------------

    Doubly Occupied:

       1A    -20.553197     2A    -11.268168     3A    -11.212128
       4A    -11.208582     5A    -11.204665     6A     -1.359915
       7A     -1.064548     8A     -0.973512     9A     -0.856043
      10A     -0.786308    11A     -0.705154    12A     -0.637879
      13A     -0.610144    14A     -0.591137    15A     -0.545786
      16A     -0.528151    17A     -0.512737    18A     -0.475054
      19A     -0.464893    20A     -0.457008    21A     -0.430116

  @DF-RHF Final Energy:  -232.14525254591769

   => Energetics <=

    Nuclear Repulsion Energy =            188.6724921260266683
    One-Electron Energy =                -688.7452373820819957
    Two-Electron Energy =                 267.9274927101374715
    DFT Exchange-Correlation Energy =       0.0000000000000000
    Empirical Dispersion Energy =           0.0000000000000000
    PCM Polarization Energy =               0.0000000000000000
    EFP Energy =                            0.0000000000000000
    Total Energy =                       -232.1452525459178560
    Molecular point group: c1
  Basis Set: 6-31G*
  Basis Set:

  -Total Gradient:
     Atom            X                  Y                   Z
    ------   -----------------  -----------------  -----------------
       1       -0.000003191933     0.000001224155     0.000001585233
       2       -0.000004839657     0.000014035840     0.000038922588
       3        0.000037812171    -0.000001563037    -0.000075837918
       4        0.000025603726     0.000011753930    -0.000006603955
       5       -0.000026970700     0.000009300394    -0.000020046606
       6        0.000056294809    -0.000005030583     0.000004696267
       7        0.000001608745    -0.000001341584     0.000045117679
       8       -0.000024113662    -0.000027605683    -0.000003571712
       9       -0.000019886972     0.000003071752    -0.000004341754
      10       -0.000026744054    -0.000061433152    -0.000028485893
      11       -0.000004898095     0.000014756871     0.000043437047
      12       -0.000009527083     0.000040330451    -0.000007935520
      13        0.000015090676    -0.000012516882     0.000025312207
      14       -0.000004664335    -0.000006206241    -0.000001795418
      15       -0.000011573636     0.000021223763    -0.000010452245

  **** Optimization is complete! (in 5 steps) ****
    Final optimized geometry and variables:
    Molecular point group: c1

    Geometry (in Angstrom), charge = 0, multiplicity = 1:

    H            0.824009150376     2.393231236569    -1.360267090593
    O            0.369522507864     1.814425838688    -0.765096154820
    C            1.235955788553     0.789860668536    -0.347151914380
    C            0.469547747365    -0.154761967403     0.562939003874
    H            2.085931040895     1.207503091120     0.189458343287
    H            1.625817932591     0.244512844052    -1.205845251917
    C           -0.686887824155    -0.873440662560    -0.133771536647
    H            0.092290371812     0.415445643089     1.407952609991
    H            1.170103145058    -0.886010363979     0.962278560043
    C           -1.444852125206    -1.813459738746     0.802969379189
    H           -0.299009026193    -1.441034396073    -0.977714167304
    H           -1.368085155116    -0.136012761736    -0.543575320174
    H           -2.256969631259    -2.313602096112     0.284389141835
    H           -0.790068258692    -2.580189179784     1.208468739260
    H           -1.873485971526    -1.269647436654     1.640121655765

  Mulliken Charges: (a.u.)
   Center  Symbol    Alpha    Beta     Spin     Total
       1     H     0.28055  0.28055  0.00000  0.43890
       2     O     4.36966  4.36966  0.00000 -0.73931
       3     C     2.99750  2.99750  0.00000  0.00500
       4     C     3.15869  3.15869  0.00000 -0.31738
       5     H     0.42921  0.42921  0.00000  0.14157
       6     H     0.43262  0.43262  0.00000  0.13475
       7     C     3.15380  3.15380  0.00000 -0.30760
       8     H     0.41536  0.41536  0.00000  0.16928
       9     H     0.42445  0.42445  0.00000  0.15110
      10     C     3.23991  3.23991  0.00000 -0.47983
      11     H     0.42668  0.42668  0.00000  0.14663
      12     H     0.40698  0.40698  0.00000  0.18605
      13     H     0.41949  0.41949  0.00000  0.16103
      14     H     0.42398  0.42398  0.00000  0.15203
      15     H     0.42111  0.42111  0.00000  0.15778

   Total alpha = 21.00000, Total beta = 21.00000, Total charge = -0.00000
