  ==> Input File <==

--------------------------------------------------------------------------
set {
	reference rhf
	basis 6-31G*
}

set_num_threads( 4 )
memory 2 gb

molecule MOL {
0 1

H	 1.064089	 0.069849	 -1.843055
C	 0.605803	 -0.484033	 -1.049282
C	 0.601806	 -1.867295	 -1.042359
C	 0.000000	 0.183220	 0.000000
H	 1.066948	 -2.404452	 -1.848008
C	 0.000000	 -2.555744	 0.000000
N	 0.000000	 1.642018	 0.000000
C	 -0.605803	 -0.484034	 1.049282
H	 0.000000	 -3.630640	 0.000000
C	 -0.601806	 -1.867295	 1.042359
O	 1.057097	 2.196749	 0.000000
O	 -1.057097	 2.196749	 0.000000
H	 -1.064089	 0.069849	 1.843055
H	 -1.066948	 -2.404452	 1.848008

	symmetry c1
}
set optking {
	frozen_dihedral = ("
		2 4 7 11
	")
}

ee = optimize('scf')
oeprop('DIPOLE', 'QUADRUPOLE', 'MULLIKEN_CHARGES')
f=open( 'psi4out.xyz', 'w' )
f.write( "14  " )
f.write( str(ee) + "\n" )
f.write( MOL.save_string_xyz() )
f.close()
--------------------------------------------------------------------------

    Molecular point group: c1
  Charge       = 0
  Multiplicity = 1
  Basis Set: 6-31G*
  Basis Set:
  @DF-RHF Final Energy:  -434.16613392615773
    Total Energy =                       -434.1661339261579542
    Molecular point group: c1
  Basis Set: 6-31G*
  Basis Set:
  Basis Set: 6-31G*
  Basis Set:
  @DF-RHF Final Energy:  -434.16083967293088
    Total Energy =                       -434.1608396729313881
  Basis Set: 6-31G*
  Basis Set:
  Basis Set: 6-31G*
  Basis Set:
  @DF-RHF Final Energy:  -434.16656105207443
    Total Energy =                       -434.1665610520748260
  Basis Set: 6-31G*
  Basis Set:
  Basis Set: 6-31G*
  Basis Set:
  @DF-RHF Final Energy:  -434.16675596478700
    Total Energy =                       -434.1667559647870576
  Basis Set: 6-31G*
  Basis Set:
  Basis Set: 6-31G*
  Basis Set:
  @DF-RHF Final Energy:  -434.16675885354630
    Total Energy =                       -434.1667588535466393
  Basis Set: 6-31G*
  Basis Set:
  Charge       = 0
  Multiplicity = 1
  Basis Set: 6-31G*
  Basis Set:

    Orbital Energies (a.u.)
    -----------------------

    Doubly Occupied:

       1A    -20.605490     2A    -20.605429     3A    -15.855441
       4A    -11.307717     5A    -11.271537     6A    -11.271141
       7A    -11.264441     8A    -11.262945     9A    -11.262437
      10A     -1.636882    11A     -1.420788    12A     -1.203039
      13A     -1.095158    14A     -1.054092    15A     -0.957560
      16A     -0.870554    17A     -0.826727    18A     -0.781349
      19A     -0.733594    20A     -0.730171    21A     -0.714438
      22A     -0.649282    23A     -0.648979    24A     -0.624178
      25A     -0.558111    26A     -0.544505    27A     -0.531812
      28A     -0.493119    29A     -0.485013    30A     -0.451335
      31A     -0.369379    32A     -0.366545

  @DF-RHF Final Energy:  -434.16675944587132

   => Energetics <=

    Nuclear Repulsion Energy =            416.6188738790265234
    One-Electron Energy =               -1416.6648940128552567
    Two-Electron Energy =                 565.8792606879574123
    DFT Exchange-Correlation Energy =       0.0000000000000000
    Empirical Dispersion Energy =           0.0000000000000000
    PCM Polarization Energy =               0.0000000000000000
    EFP Energy =                            0.0000000000000000
    Total Energy =                       -434.1667594458713211
    Molecular point group: c1
  Basis Set: 6-31G*
  Basis Set:

  -Total Gradient:
     Atom            X                  Y                   Z
    ------   -----------------  -----------------  -----------------
       1        0.000005575193     0.000012951876    -0.000011476382
       2       -0.004989229823    -0.000197422694    -0.002654808565
       3       -0.000037315980     0.000034867169    -0.000025414275
       4        0.007185421880     0.000271302373     0.006351083259
       5        0.000004649494    -0.000001202944     0.000006736363
       6       -0.000010555623    -0.000002004544     0.000033847811
       7       -0.002498305304    -0.000261349240    -0.010280644425
       8        0.000087054226     0.000039508281    -0.000031126593
       9       -0.000000822723    -0.000002379937    -0.000004415154
      10        0.000056307532    -0.000022305378    -0.000009892165
      11        0.000217935496     0.000116012969     0.006607524595
      12       -0.000010824411    -0.000005084313     0.000005077725
      13       -0.000005646207     0.000010149229     0.000017900243
      14       -0.000004243751     0.000006957144    -0.000004392434

  **** Optimization is complete! (in 6 steps) ****
    Final optimized geometry and variables:
    Molecular point group: c1

    Geometry (in Angstrom), charge = 0, multiplicity = 1:

    H            1.095321309764     0.072971299654    -1.832047953576
    C            0.622984333882    -0.480387563561    -1.042826021866
    C            0.598289847647    -1.864721799146    -1.045175793955
    C            0.033187656609     0.182033045449     0.013322132056
    H            1.047706152355    -2.403349379794    -1.858757820535
    C           -0.003118704022    -2.550689324243    -0.001486005540
    N           -0.002917907871     1.640153750868    -0.011708322200
    C           -0.606037107593    -0.474944564765     1.044291312829
    H           -0.012644001727    -3.625372715473    -0.004045647705
    C           -0.599539390526    -1.859055601004     1.042002200777
    O            1.043721268982     2.211396816091    -0.053797861384
    O           -1.073641401925     2.161150967143     0.058041451431
    H           -1.089228005298     0.081993178985     1.823970131572
    H           -1.070694293018    -2.394079421552     1.845621697507

  Mulliken Charges: (a.u.)
   Center  Symbol    Alpha    Beta     Spin     Total
       1     H     0.37404  0.37404  0.00000  0.25192
       2     C     3.08749  3.08749  0.00000 -0.17498
       3     C     3.10477  3.10477  0.00000 -0.20954
       4     C     2.90207  2.90207  0.00000  0.19585
       5     H     0.38852  0.38852  0.00000  0.22295
       6     C     3.09118  3.09118  0.00000 -0.18237
       7     N     3.25757  3.25757  0.00000  0.48485
       8     C     3.08616  3.08616  0.00000 -0.17232
       9     H     0.38979  0.38979  0.00000  0.22041
      10     C     3.10540  3.10540  0.00000 -0.21080
      11     O     4.22464  4.22464  0.00000 -0.44927
      12     O     4.22605  4.22605  0.00000 -0.45210
      13     H     0.37383  0.37383  0.00000  0.25234
      14     H     0.38847  0.38847  0.00000  0.22305

   Total alpha = 32.00000, Total beta = 32.00000, Total charge =  0.00000
