  ==> Input File <==

--------------------------------------------------------------------------
set {
	reference rhf
	basis 6-31G*
}

set_num_threads( 1 )
memory 2 gb

molecule MOL {
0 1

O	 -2.439739	 -0.935931	 -0.423848
C	 -1.921153	 0.064240	 -0.045697
C	 -2.624470	 1.379923	 0.150949
O	 -0.632575	 0.154573	 0.251549
H	 -2.168117	 2.136577	 -0.476876
H	 -3.669540	 1.273223	 -0.098610
H	 -2.519365	 1.700893	 1.180846
C	 0.160891	 -1.019931	 0.106212
C	 1.589627	 -0.672828	 0.480843
H	 0.089836	 -1.367806	 -0.916050
H	 -0.238459	 -1.792301	 0.749618
C	 2.642636	 -1.315070	 -0.424197
H	 1.745548	 -0.995326	 1.508275
H	 1.702311	 0.408132	 0.471615
C	 4.069360	 -0.966341	 -0.002480
H	 2.515522	 -2.395702	 -0.410972
H	 2.478020	 -0.996684	 -1.448352
H	 4.796709	 -1.432393	 -0.659589
H	 4.274514	 -1.303262	 1.009782
H	 4.235933	 0.106681	 -0.033394

	symmetry c1
}
set optking {
	frozen_dihedral = ("
		16 12 9 8,
		2 4 8 10,
		1 2 4 8
	")
}

ee = energy('scf')
oeprop('DIPOLE', 'QUADRUPOLE', 'MULLIKEN_CHARGES')
f=open( 'psi4out.xyz', 'w' )
f.write( "20  " )
f.write( str(ee) + "\n" )
f.write( MOL.save_string_xyz() )
f.close()
--------------------------------------------------------------------------

    Molecular point group: c1

    Geometry (in Angstrom), charge = 0, multiplicity = 1:

       Center              X                  Y                   Z               Mass
    ------------   -----------------  -----------------  -----------------  -----------------
           O         -2.536288534831    -0.526293444415    -0.435174326532    15.994914619560
           C         -2.017702534831     0.473877555585    -0.057023326532    12.000000000000
           C         -2.721019534831     1.789560555585     0.139622673468    12.000000000000
           O         -0.729124534831     0.564210555585     0.240222673468    15.994914619560
           H         -2.264666534831     2.546214555585    -0.488202326532     1.007825032070
           H         -3.766089534831     1.682860555585    -0.109936326532     1.007825032070
           H         -2.615914534831     2.110530555585     1.169519673468     1.007825032070
           C          0.064341465169    -0.610293444415     0.094885673468    12.000000000000
           C          1.493077465169    -0.263190444415     0.469516673468    12.000000000000
           H         -0.006713534831    -0.958168444415    -0.927376326532     1.007825032070
           H         -0.335008534831    -1.382663444415     0.738291673468     1.007825032070
           C          2.546086465169    -0.905432444415    -0.435523326532    12.000000000000
           H          1.648998465169    -0.585688444415     1.496948673468     1.007825032070
           H          1.605761465169     0.817769555585     0.460288673468     1.007825032070
           C          3.972810465169    -0.556703444415    -0.013806326532    12.000000000000
           H          2.418972465169    -1.986064444415    -0.422298326532     1.007825032070
           H          2.381470465169    -0.587046444415    -1.459678326532     1.007825032070
           H          4.700159465169    -1.022755444415    -0.670915326532     1.007825032070
           H          4.177964465169    -0.893624444415     0.998455673468     1.007825032070
           H          4.139383465169     0.516318555585    -0.044720326532     1.007825032070

  Charge       = 0
  Multiplicity = 1
  Basis Set: 6-31G*
  Basis Set:

    Orbital Energies (a.u.)
    -----------------------

    Doubly Occupied:

       1A    -20.601156     2A    -20.543462     3A    -11.373651
       4A    -11.280918     5A    -11.232915     6A    -11.225716
       7A    -11.222795     8A    -11.215511     9A     -1.467236
      10A     -1.361527    11A     -1.087242    12A     -1.029459
      13A     -0.980923    14A     -0.881088    15A     -0.807726
      16A     -0.778644    17A     -0.689992    18A     -0.683970
      19A     -0.667800    20A     -0.635977    21A     -0.598254
      22A     -0.593511    23A     -0.570227    24A     -0.557216
      25A     -0.544663    26A     -0.520649    27A     -0.510399
      28A     -0.482445    29A     -0.481169    30A     -0.475989
      31A     -0.448756    32A     -0.436618

  @DF-RHF Final Energy:  -383.94078392533368

   => Energetics <=

    Nuclear Repulsion Energy =            379.3832463689357155
    One-Electron Energy =               -1274.6725835242998528
    Two-Electron Energy =                 511.3485532300293812
    DFT Exchange-Correlation Energy =       0.0000000000000000
    Empirical Dispersion Energy =           0.0000000000000000
    PCM Polarization Energy =               0.0000000000000000
    EFP Energy =                            0.0000000000000000
    Total Energy =                       -383.9407839253347561

  Mulliken Charges: (a.u.)
   Center  Symbol    Alpha    Beta     Spin     Total
       1     O     4.28344  4.28344  0.00000 -0.56688
       2     C     2.61995  2.61995  0.00000  0.76009
       3     C     3.28157  3.28157  0.00000 -0.56313
       4     O     4.31038  4.31038  0.00000 -0.62077
       5     H     0.40070  0.40070  0.00000  0.19861
       6     H     0.39701  0.39701  0.00000  0.20598
       7     H     0.40063  0.40063  0.00000  0.19873
       8     C     2.99855  2.99855  0.00000  0.00290
       9     C     3.16891  3.16891  0.00000 -0.33783
      10     H     0.40924  0.40924  0.00000  0.18153
      11     H     0.40950  0.40950  0.00000  0.18099
      12     C     3.15945  3.15945  0.00000 -0.31890
      13     H     0.41727  0.41727  0.00000  0.16546
      14     H     0.40697  0.40697  0.00000  0.18605
      15     C     3.24040  3.24040  0.00000 -0.48080
      16     H     0.42052  0.42052  0.00000  0.15896
      17     H     0.41853  0.41853  0.00000  0.16294
      18     H     0.41702  0.41702  0.00000  0.16597
      19     H     0.42009  0.42009  0.00000  0.15983
      20     H     0.41986  0.41986  0.00000  0.16027

   Total alpha = 32.00000, Total beta = 32.00000, Total charge =  0.00000
