                              Psi4 1.0.54 Driver

  ==> Input File <==

--------------------------------------------------------------------------
set {
	reference rhf
	basis cc-pvtz
}

set_num_threads( 4 )
memory 2 gb

molecule MOL {
0 1

H	 -3.436473	 1.252944	 -1.023892
O	 -3.458596	 0.315260	 -0.960865
C	 -3.176635	 -0.080824	 0.355601
C	 -1.763371	 0.265266	 0.799691
H	 -3.321825	 -1.153438	 0.379502
H	 -3.895468	 0.357385	 1.043382
C	 -0.673390	 -0.426948	 -0.013392
H	 -1.631049	 1.344913	 0.747560
H	 -1.664587	 -0.001624	 1.849167
C	 0.737842	 -0.043159	 0.423759
H	 -0.806103	 -0.190518	 -1.063345
H	 -0.797221	 -1.503753	 0.074146
C	 1.824000	 -0.743224	 -0.390623
H	 0.850588	 1.033777	 0.343840
H	 0.868587	 -0.286314	 1.476203
C	 3.255957	 -0.453067	 0.062319
H	 1.718250	 -0.470599	 -1.438164
H	 1.658105	 -1.815850	 -0.339904
C	 3.626635	 -1.039964	 1.422206
H	 3.392040	 0.623418	 0.100237
H	 3.950719	 -0.819021	 -0.689216
H	 2.944689	 -0.695952	 2.193362
H	 4.627720	 -0.739925	 1.710386
H	 3.601053	 -2.122983	 1.417551

	symmetry c1
}
set optking {
	frozen_dihedral = ("
		20 16 13 17
	")
}

ee,wfn = optimize('scf', return_wfn=True)
oeprop( wfn, 'DIPOLE', 'QUADRUPOLE', 'MULLIKEN_CHARGES')
f=open( 'psi4out.xyz', 'w' )
f.write( "24  " )
f.write( str(ee) + "\n" )
f.write( MOL.save_string_xyz() )
f.close()
--------------------------------------------------------------------------

    Molecular point group: c1
  Charge       = 0
  Multiplicity = 1
  Basis Set: CC-PVTZ
  Basis Set:
  @DF-RHF Final Energy:  -349.37988602511018
    Total Energy =                       -349.3798860251101814
    Molecular point group: c1
  Basis Set: CC-PVTZ
  Basis Set:
  Basis Set: CC-PVTZ
  Basis Set:
  @DF-RHF Final Energy:  -349.38022315763465
    Total Energy =                       -349.3802231576348731
  Basis Set: CC-PVTZ
  Basis Set:
  Basis Set: CC-PVTZ
  Basis Set:
  @DF-RHF Final Energy:  -349.38035151301892
    Total Energy =                       -349.3803515130190362
  Basis Set: CC-PVTZ
  Basis Set:
  Basis Set: CC-PVTZ
  Basis Set:
  @DF-RHF Final Energy:  -349.38035542290271
    Total Energy =                       -349.3803554229030510
  Basis Set: CC-PVTZ
  Basis Set:
  Charge       = 0
  Multiplicity = 1
  Basis Set: CC-PVTZ
  Basis Set:

    Orbital Energies (a.u.)
    -----------------------

    Doubly Occupied:

       1A    -20.546296     2A    -11.265537     3A    -11.215208
       4A    -11.212049     5A    -11.210304     6A    -11.209386
       7A    -11.208987     8A    -11.205228     9A     -1.364140
      10A     -1.089837    11A     -1.049443    12A     -0.986903
      13A     -0.915825    14A     -0.850579    15A     -0.801276
      16A     -0.777844    17A     -0.681733    18A     -0.655470
      19A     -0.625342    20A     -0.619959    21A     -0.599862
      22A     -0.585956    23A     -0.558593    24A     -0.540261
      25A     -0.517970    26A     -0.511509    27A     -0.496813
      28A     -0.471624    29A     -0.468697    30A     -0.460632
      31A     -0.458635    32A     -0.451227    33A     -0.421016

  @DF-RHF Final Energy:  -349.38035579229330

   => Energetics <=

    Nuclear Repulsion Energy =            384.4397044887571724
    One-Electron Energy =               -1235.5718316899458387
    Two-Electron Energy =                 501.7517714088958201
    DFT Exchange-Correlation Energy =       0.0000000000000000
    Empirical Dispersion Energy =           0.0000000000000000
    PCM Polarization Energy =               0.0000000000000000
    EFP Energy =                            0.0000000000000000
    Total Energy =                       -349.3803557922929031
    Molecular point group: c1
  Basis Set: CC-PVTZ
  Basis Set:

  -Total Gradient:
     Atom            X                  Y                   Z
    ------   -----------------  -----------------  -----------------
       1       -0.000001007899     0.000002915062    -0.000002430758
       2       -0.000001722535     0.000007728422    -0.000006265654
       3       -0.000004425048    -0.000013577537     0.000022099407
       4       -0.000003672639    -0.000004798351     0.000004269103
       5       -0.000001640858     0.000000338120     0.000000718894
       6       -0.000000689697    -0.000003734531    -0.000005446541
       7        0.000009346304     0.000018697946    -0.000014765672
       8        0.000002371031    -0.000006834866    -0.000004982316
       9       -0.000001197033     0.000005070002    -0.000000367349
      10        0.000008228039     0.000014682826    -0.000028175808
      11        0.000000806002     0.000004763359     0.000011314747
      12        0.000007189156     0.000005365914     0.000000202091
      13       -0.000326093051     0.000941567661     0.000421651129
      14       -0.000022050619     0.000008457371    -0.000002592174
      15        0.000011579057    -0.000002829159    -0.000009247410
      16        0.000344013978    -0.000238363080    -0.001025523408
      17        0.000224276194    -0.000779185892    -0.000156042900
      18       -0.000008416574    -0.000021904878    -0.000014138125
      19        0.000015885327     0.000001771684    -0.000003740162
      20       -0.000227904599     0.000068583889     0.000807485294
      21       -0.000023259903     0.000003237683     0.000033742385
      22        0.000020003375    -0.000009965564    -0.000037148322
      23       -0.000019416751    -0.000000321027     0.000002168135
      24       -0.000002201262    -0.000001665054     0.000007215412

  **** Optimization is complete! (in 5 steps) ****
    Final optimized geometry and variables:
    Molecular point group: c1

    Geometry (in Angstrom), charge = 0, multiplicity = 1:

    H           -3.328381956485     1.607641724677    -1.344059746633
    O           -3.397168405780     0.674157242325    -1.257116167821
    C           -3.171816084939     0.301952441764     0.077041083672
    C           -1.756577460643     0.593036805858     0.553252533109
    H           -3.369000441758    -0.761541219576     0.124617595797
    H           -3.887991213404     0.792395939828     0.731521159579
    C           -0.678493171867    -0.171032372183    -0.209811451003
    H           -1.571329701250     1.663471633785     0.477480243513
    H           -1.700152371106     0.350127918149     1.611627236004
    C            0.736613970984     0.156609549433     0.259274088115
    H           -0.770279523338     0.042865841277    -1.268832834295
    H           -0.855988273958    -1.238132548270    -0.098170298031
    C            1.811082568268    -0.617311681528    -0.501595806194
    H            0.915589689865     1.223078353965     0.140523566399
    H            0.814786414361    -0.048402681334     1.322838913995
    C            3.248990336194    -0.282471585977    -0.099559580380
    H            1.693322768575    -0.426172542887    -1.564548631430
    H            1.645102384784    -1.684483077068    -0.371233688700
    C            3.651331438891    -0.783628745386     1.285776141857
    H            3.392577182015     0.793979888169    -0.144133655483
    H            3.923767198844    -0.711674609967    -0.833385617406
    H            3.057669982102    -0.328618078027     2.069585933285
    H            4.690921809351    -0.555154313595     1.491496861935
    H            3.529218039830    -1.859402012689     1.360615503288

  Mulliken Charges: (a.u.)
   Center  Symbol    Alpha    Beta     Spin     Total
       1     H     0.39531  0.39531  0.00000  0.20938
       2     O     4.20369  4.20369  0.00000 -0.40738
       3     C     2.97782  2.97782  0.00000  0.04436
       4     C     3.10184  3.10184  0.00000 -0.20368
       5     H     0.45882  0.45882  0.00000  0.08237
       6     H     0.46027  0.46027  0.00000  0.07946
       7     C     3.08715  3.08715  0.00000 -0.17429
       8     H     0.45911  0.45911  0.00000  0.08177
       9     H     0.45345  0.45345  0.00000  0.09310
      10     C     3.09097  3.09097  0.00000 -0.18195
      11     H     0.44598  0.44598  0.00000  0.10803
      12     H     0.45524  0.45524  0.00000  0.08953
      13     C     3.09428  3.09428  0.00000 -0.18856
      14     H     0.45561  0.45561  0.00000  0.08878
      15     H     0.45450  0.45450  0.00000  0.09101
      16     C     3.09028  3.09028  0.00000 -0.18056
      17     H     0.44894  0.44894  0.00000  0.10212
      18     H     0.45474  0.45474  0.00000  0.09052
      19     C     3.15120  3.15120  0.00000 -0.30241
      20     H     0.45577  0.45577  0.00000  0.08847
      21     H     0.44824  0.44824  0.00000  0.10352
      22     H     0.45462  0.45462  0.00000  0.09076
      23     H     0.44703  0.44703  0.00000  0.10594
      24     H     0.45514  0.45514  0.00000  0.08971

   Total alpha = 33.00000, Total beta = 33.00000, Total charge = -0.00000

*** Psi4 exiting successfully. Buy a developer a beer!
