  ==> Input File <==

--------------------------------------------------------------------------
set {
	reference rhf
	basis cc-pvtz
}

set_num_threads( 4 )
memory 2 gb

molecule MOL {
0 1

H	 -2.825106	 -0.008222	 -0.803321
O	 -2.313989	 -0.142475	 -0.025864
C	 -0.943808	 -0.065018	 -0.330000
H	 -0.812293	 -0.225641	 -1.398673
C	 -0.231030	 -1.182113	 0.407592
C	 -0.353797	 1.300461	 0.050970
H	 -0.312800	 -0.992012	 1.473041
H	 -0.738841	 -2.119564	 0.220514
C	 1.246176	 -1.268044	 -0.015480
H	 -0.539537	 2.008579	 -0.751815
H	 -0.889989	 1.662858	 0.920677
C	 1.153605	 1.231851	 0.356834
H	 1.823096	 -1.684665	 0.802361
H	 1.352335	 -1.958223	 -0.845114
C	 1.826409	 0.100723	 -0.416008
H	 1.622968	 2.181508	 0.128734
H	 1.301983	 1.066493	 1.419367
H	 2.897299	 0.112407	 -0.249665
H	 1.683458	 0.265621	 -1.480024

	symmetry c1
}
set optking {
	frozen_dihedral = ("
		1 2 3 4
	")
}

ee = optimize('scf')
oeprop('DIPOLE', 'QUADRUPOLE', 'MULLIKEN_CHARGES')
f=open( 'psi4out.xyz', 'w' )
f.write( "19  " )
f.write( str(ee) + "\n" )
f.write( MOL.save_string_xyz() )
f.close()
--------------------------------------------------------------------------

    Molecular point group: c1
  Charge       = 0
  Multiplicity = 1
  Basis Set: CC-PVTZ
  Basis Set:
  @DF-RHF Final Energy:  -309.16197626049160
    Total Energy =                       -309.1619762604914285
    Molecular point group: c1
  Basis Set: CC-PVTZ
  Basis Set:
  Basis Set: CC-PVTZ
  Basis Set:
  @DF-RHF Final Energy:  -309.16214322438543
    Total Energy =                       -309.1621432243855452
  Basis Set: CC-PVTZ
  Basis Set:
  Basis Set: CC-PVTZ
  Basis Set:
  @DF-RHF Final Energy:  -309.16220189153540
    Total Energy =                       -309.1622018915358012
  Basis Set: CC-PVTZ
  Basis Set:
  Charge       = 0
  Multiplicity = 1
  Basis Set: CC-PVTZ
  Basis Set:

    Orbital Energies (a.u.)
    -----------------------

    Doubly Occupied:

       1A    -20.542451     2A    -11.268275     3A    -11.213292
       4A    -11.212699     5A    -11.211998     6A    -11.207064
       7A    -11.206431     8A     -1.361984     9A     -1.108897
      10A     -1.001011    11A     -0.989314    12A     -0.842060
      13A     -0.834149    14A     -0.731356    15A     -0.712735
      16A     -0.657051    17A     -0.627080    18A     -0.591811
      19A     -0.566411    20A     -0.545826    21A     -0.538946
      22A     -0.517036    23A     -0.497535    24A     -0.488769
      25A     -0.462578    26A     -0.449914    27A     -0.430455
      28A     -0.408680

  @DF-RHF Final Energy:  -309.16220274904890

   => Energetics <=

    Nuclear Repulsion Energy =            331.6403501556774245
    One-Electron Energy =               -1077.1534862022713241
    Two-Electron Energy =                 436.3509332975449411
    DFT Exchange-Correlation Energy =       0.0000000000000000
    Empirical Dispersion Energy =           0.0000000000000000
    PCM Polarization Energy =               0.0000000000000000
    EFP Energy =                            0.0000000000000000
    Total Energy =                       -309.1622027490489586
    Molecular point group: c1
  Basis Set: CC-PVTZ
  Basis Set:

  -Total Gradient:
     Atom            X                  Y                   Z
    ------   -----------------  -----------------  -----------------
       1       -0.000003680385    -0.001112881735    -0.000194944067
       2        0.000067462575     0.001610195532     0.000158590891
       3       -0.000012641379    -0.001407552478     0.000186391681
       4       -0.000095170110     0.000970667022    -0.000141036119
       5        0.000043031851     0.000012389755     0.000031858549
       6       -0.000049568508     0.000003909543    -0.000027911143
       7       -0.000012789294    -0.000002098325     0.000008702254
       8       -0.000011704406     0.000004308106    -0.000002636047
       9       -0.000006222724     0.000024245425    -0.000008816401
      10       -0.000029390075    -0.000007049098    -0.000008996617
      11       -0.000008453565    -0.000015798609    -0.000019238224
      12        0.000018246181    -0.000055797285     0.000035753186
      13        0.000014997070     0.000011091903    -0.000012743328
      14        0.000020890606     0.000022538543    -0.000012336399
      15        0.000032748165     0.000003203462     0.000008128864
      16        0.000011547553    -0.000018987102    -0.000009873702
      17        0.000012114942     0.000000044810     0.000011632143
      18        0.000007308560    -0.000013448092     0.000001284069
      19        0.000001272939    -0.000028981375    -0.000003809592

  **** Optimization is complete! (in 4 steps) ****
    Final optimized geometry and variables:
    Molecular point group: c1

    Geometry (in Angstrom), charge = 0, multiplicity = 1:

    H           -2.837928021044     0.037509167557    -0.780714751687
    O           -2.319151239529    -0.112813260659    -0.013883631896
    C           -0.945738542340    -0.068807653661    -0.328349320583
    H           -0.823936568979    -0.226728251237    -1.397237106971
    C           -0.225161209132    -1.185251295086     0.406373491448
    C           -0.355200340549     1.298101302079     0.045917033384
    H           -0.311750279996    -0.998923118765     1.472254880586
    H           -0.727147013504    -2.125451211065     0.216312970344
    C            1.254720940854    -1.263995997678    -0.010343053387
    H           -0.540545604268     2.000361060713    -0.761087745773
    H           -0.900703781764     1.663432291798     0.907336539539
    C            1.150041537918     1.233538206466     0.360640059428
    H            1.830789975580    -1.676020531839     0.810456743706
    H            1.367668034783    -1.955822240447    -0.838003778819
    C            1.829906844121     0.106401366224    -0.411187291662
    H            1.617726637072     2.185209914626     0.137069242638
    H            1.294566834305     1.066272065962     1.423615933861
    H            2.900803318333     0.121691059842    -0.244806815141
    H            1.686599797469     0.270246212836    -1.475589285451

  Mulliken Charges: (a.u.)
   Center  Symbol    Alpha    Beta     Spin     Total
       1     H     0.39322  0.39322  0.00000  0.21355
       2     O     4.20457  4.20457  0.00000 -0.40914
       3     C     2.92608  2.92608  0.00000  0.14783
       4     H     0.46727  0.46727  0.00000  0.06546
       5     C     3.09582  3.09582  0.00000 -0.19165
       6     C     3.11164  3.11164  0.00000 -0.22329
       7     H     0.45300  0.45300  0.00000  0.09399
       8     H     0.44351  0.44351  0.00000  0.11299
       9     C     3.11344  3.11344  0.00000 -0.22688
      10     H     0.45383  0.45383  0.00000  0.09234
      11     H     0.44472  0.44472  0.00000  0.11056
      12     C     3.10082  3.10082  0.00000 -0.20163
      13     H     0.44730  0.44730  0.00000  0.10540
      14     H     0.44804  0.44804  0.00000  0.10392
      15     C     3.10286  3.10286  0.00000 -0.20573
      16     H     0.44272  0.44272  0.00000  0.11455
      17     H     0.45303  0.45303  0.00000  0.09393
      18     H     0.44305  0.44305  0.00000  0.11391
      19     H     0.45507  0.45507  0.00000  0.08987

   Total alpha = 28.00000, Total beta = 28.00000, Total charge = -0.00000
