  ==> Input File <==

--------------------------------------------------------------------------
set {
	reference rhf
	basis cc-pvtz
}

set_num_threads( 4 )
memory 2 gb

molecule MOL {
0 1

H	 -3.034039	 -0.667848	 0.004703
O	 -2.240597	 -1.171748	 0.000934
C	 -1.159675	 -0.364500	 0.000370
C	 -0.215868	 -0.390551	 1.006831
C	 -1.022837	 0.512346	 -1.064745
H	 -0.321014	 -1.068092	 1.834443
C	 0.865246	 0.471110	 0.936411
H	 -1.775264	 0.509022	 -1.829453
C	 0.057099	 1.369226	 -1.134569
H	 1.600054	 0.455876	 1.719097
C	 1.006960	 1.344410	 -0.118137
C	 0.218409	 2.306196	 -2.304915
H	 1.850069	 2.007880	 -0.156035
H	 0.526627	 3.290613	 -1.975145
H	 -0.705277	 2.408511	 -2.858162
H	 0.976427	 1.937565	 -2.987677

	symmetry c1
}
set optking {
	frozen_dihedral = ("
		5 3 2 1
	")
}

ee = optimize('scf')
oeprop('DIPOLE', 'QUADRUPOLE', 'MULLIKEN_CHARGES')
f=open( 'psi4out.xyz', 'w' )
f.write( "16  " )
f.write( str(ee) + "\n" )
f.write( MOL.save_string_xyz() )
f.close()
--------------------------------------------------------------------------

    Molecular point group: c1
  Charge       = 0
  Multiplicity = 1
  Basis Set: CC-PVTZ
  Basis Set:
  @DF-RHF Final Energy:  -344.71589781970511
    Total Energy =                       -344.7158978197048782
    Molecular point group: c1
  Basis Set: CC-PVTZ
  Basis Set:
  Basis Set: CC-PVTZ
  Basis Set:
  @DF-RHF Final Energy:  -344.71719209848072
    Total Energy =                       -344.7171920984808366
  Basis Set: CC-PVTZ
  Basis Set:
  Basis Set: CC-PVTZ
  Basis Set:
  @DF-RHF Final Energy:  -344.71727415646467
    Total Energy =                       -344.7172741564644411
  Basis Set: CC-PVTZ
  Basis Set:
  Basis Set: CC-PVTZ
  Basis Set:
  @DF-RHF Final Energy:  -344.71728285837509
    Total Energy =                       -344.7172828583751425
  Basis Set: CC-PVTZ
  Basis Set:
  Basis Set: CC-PVTZ
  Basis Set:
  @DF-RHF Final Energy:  -344.71728468617812
    Total Energy =                       -344.7172846861783455
  Basis Set: CC-PVTZ
  Basis Set:
  Charge       = 0
  Multiplicity = 1
  Basis Set: CC-PVTZ
  Basis Set:

    Orbital Energies (a.u.)
    -----------------------

    Doubly Occupied:

       1A    -20.572551     2A    -11.288590     3A    -11.241265
       4A    -11.230764     5A    -11.221538     6A    -11.219749
       7A    -11.217418     8A    -11.217087     9A     -1.400182
      10A     -1.154930    11A     -1.047257    12A     -1.007031
      13A     -0.940036    14A     -0.836956    15A     -0.805336
      16A     -0.726537    17A     -0.681057    18A     -0.655596
      19A     -0.619021    20A     -0.594722    21A     -0.579061
      22A     -0.570145    23A     -0.555178    24A     -0.522473
      25A     -0.505219    26A     -0.485082    27A     -0.469022
      28A     -0.334076    29A     -0.318975

  @DF-RHF Final Energy:  -344.71728503329945

   => Energetics <=

    Nuclear Repulsion Energy =            345.9723023965769357
    One-Electron Energy =               -1153.3454609181239903
    Two-Electron Energy =                 462.6558734882474937
    DFT Exchange-Correlation Energy =       0.0000000000000000
    Empirical Dispersion Energy =           0.0000000000000000
    PCM Polarization Energy =               0.0000000000000000
    EFP Energy =                            0.0000000000000000
    Total Energy =                       -344.7172850332996177
    Molecular point group: c1
  Basis Set: CC-PVTZ
  Basis Set:

  -Total Gradient:
     Atom            X                  Y                   Z
    ------   -----------------  -----------------  -----------------
       1        0.000040773521     0.000092627138     0.002253312533
       2        0.000360197976    -0.000748229906    -0.003224841015
       3       -0.001279689833     0.001782019216     0.001829935525
       4       -0.000005772600    -0.000004235756    -0.000008269126
       5        0.000867385399    -0.001118449482    -0.000839482930
       6       -0.000011613624    -0.000005907315    -0.000005828516
       7        0.000005155443     0.000023270847    -0.000016978511
       8        0.000017729008    -0.000000678477     0.000012732047
       9       -0.000001335927    -0.000017121563    -0.000032086504
      10       -0.000002654639     0.000000887579    -0.000000455132
      11        0.000011053977    -0.000019931399     0.000030929546
      12        0.000007950812     0.000004803275     0.000010572902
      13       -0.000004948634     0.000004057350    -0.000011921213
      14       -0.000006101054     0.000005861339     0.000002781676
      15       -0.000002149512    -0.000000743974    -0.000009555069
      16        0.000004019683     0.000001771128     0.000009153789

  **** Optimization is complete! (in 6 steps) ****
    Final optimized geometry and variables:
    Molecular point group: c1

    Geometry (in Angstrom), charge = 0, multiplicity = 1:

    H           -2.673670145673    -1.238300355044     0.394479175067
    O           -1.855796798331    -1.702880237885     0.402470804761
    C           -0.807648234746    -0.832448238461     0.353277111411
    C            0.137642661435    -0.874006936431     1.355072849773
    C           -0.658964123039     0.034351266572    -0.716066539605
    H            0.012275362815    -1.558992308825     2.170105059004
    C            1.228997509003    -0.027829685835     1.282016219684
    H           -1.397281743878     0.028729053299    -1.496460691679
    C            0.426671480918     0.889105465031    -0.787298212883
    H            1.968722122074    -0.051685287454     2.059722000388
    C            1.372899222651     0.850039621079     0.227991549076
    C            0.599269192153     1.821825550298    -1.959909711676
    H            2.223471988592     1.504524597956     0.190023717493
    H            0.915178446683     2.804550300895    -1.632250456465
    H           -0.322545107056     1.932210713414    -2.515246946098
    H            1.354467014415     1.445859174623    -2.641693999003

  Mulliken Charges: (a.u.)
   Center  Symbol    Alpha    Beta     Spin     Total
       1     H     0.38661  0.38661  0.00000  0.22678
       2     O     4.18854  4.18854  0.00000 -0.37707
       3     C     2.85503  2.85503  0.00000  0.28995
       4     C     3.12247  3.12247  0.00000 -0.24493
       5     C     3.15065  3.15065  0.00000 -0.30131
       6     H     0.41689  0.41689  0.00000  0.16622
       7     C     3.05622  3.05622  0.00000 -0.11244
       8     H     0.42482  0.42482  0.00000  0.15037
       9     C     2.94570  2.94570  0.00000  0.10861
      10     H     0.42250  0.42250  0.00000  0.15501
      11     C     3.11095  3.11095  0.00000 -0.22190
      12     C     3.14661  3.14661  0.00000 -0.29321
      13     H     0.42721  0.42721  0.00000  0.14557
      14     H     0.44788  0.44788  0.00000  0.10424
      15     H     0.45169  0.45169  0.00000  0.09662
      16     H     0.44625  0.44625  0.00000  0.10750

   Total alpha = 29.00000, Total beta = 29.00000, Total charge = -0.00000
