                              Psi4 1.0.54 Driver

  ==> Input File <==

--------------------------------------------------------------------------
set {
	reference rhf
	basis cc-pvtz
}

set_num_threads( 4 )
memory 2 gb

molecule MOL {
0 1

O	 -1.923417	 -2.226229	 0.334330
C	 -0.864094	 -1.721240	 0.177267
C	 0.453119	 -2.454815	 0.151227
O	 -0.695554	 -0.422406	 0.000602
C	 0.313455	 -3.955480	 0.349900
H	 1.082143	 -2.012114	 0.915619
H	 0.930137	 -2.224432	 -0.794983
H	 -0.147738	 -4.181056	 1.302073
H	 1.288427	 -4.426633	 0.321737
H	 -0.301138	 -4.395324	 -0.424077
C	 -1.852370	 0.402254	 0.000718
C	 -3.063338	 -0.501097	 -0.000437
H	 -1.831732	 1.039442	 -0.872158
H	 -1.832493	 1.038301	 0.874430
H	 -3.071944	 -1.133732	 -0.879113
H	 -3.966302	 0.097976	 -0.000483
H	 -3.072764	 -1.134834	 0.877435

	symmetry c1
}
set optking {
	frozen_dihedral = ("
		2 4 11 13
	")
}

ee,wfn = optimize('scf', return_wfn=True)
oeprop( wfn, 'DIPOLE', 'QUADRUPOLE', 'MULLIKEN_CHARGES')
f=open( 'psi4out.xyz', 'w' )
f.write( "17  " )
f.write( str(ee) + "\n" )
f.write( MOL.save_string_xyz() )
f.close()
--------------------------------------------------------------------------

    Molecular point group: c1
  Charge       = 0
  Multiplicity = 1
  Basis Set: CC-PVTZ
  Basis Set:
  @DF-RHF Final Energy:  -344.96605312241024
    Total Energy =                       -344.9660531224101874
    Molecular point group: c1
  Basis Set: CC-PVTZ
  Basis Set:
  Basis Set: CC-PVTZ
  Basis Set:
  @DF-RHF Final Energy:  -344.80042263804722
    Total Energy =                       -344.8004226380472801
  Basis Set: CC-PVTZ
  Basis Set:
  Basis Set: CC-PVTZ
  Basis Set:
  @DF-RHF Final Energy:  -344.93928370451437
    Total Energy =                       -344.9392837045144233
  Basis Set: CC-PVTZ
  Basis Set:
  Basis Set: CC-PVTZ
  Basis Set:
  @DF-RHF Final Energy:  -344.79981143390108
    Total Energy =                       -344.7998114339008566
  Basis Set: CC-PVTZ
  Basis Set:
  @DF-RHF Final Energy:  -344.53598738005149
    Total Energy =                       -344.5359873800521200
  @DF-RHF Final Energy:  -344.03238995598383
    Total Energy =                       -344.0323899559838310
  @DF-RHF Final Energy:  -344.39689692203899
    Total Energy =                       -344.3968969220388772
  @DF-RHF Final Energy:  -343.79537247852886
    Total Energy =                       -343.7953724785287477
  @DF-RHF Final Energy:  -344.15956620199370
    Total Energy =                       -344.1595662019938118
  @DF-RHF Final Energy:  -344.39044284292390
    Total Energy =                       -344.3904428429237896
  @DF-RHF Final Energy:  -344.59512397155822
    Total Energy =                       -344.5951239715583938
  @DF-RHF Final Energy:  -344.81923720216844
    Total Energy =                       -344.8192372021685514
  @DF-RHF Final Energy:  -344.93155725020165
    Total Energy =                       -344.9315572502017631
  @DF-RHF Final Energy:  -344.99229150121084
    Total Energy =                       -344.9922915012110138
  @DF-RHF Final Energy:  -345.01641671401347
    Total Energy =                       -345.0164167140134737
  @DF-RHF Final Energy:  -344.99398112335291
    Total Energy =                       -344.9939811233531373
  @DF-RHF Final Energy:  -345.02314886673554
    Total Energy =                       -345.0231488667354824
  @DF-RHF Final Energy:  -345.02606384701829
    Total Energy =                       -345.0260638470186905
  @DF-RHF Final Energy:  -345.02737697830747
    Total Energy =                       -345.0273769783075295
  @DF-RHF Final Energy:  -345.02692895084328
    Total Energy =                       -345.0269289508432848
  @DF-RHF Final Energy:  -345.02655313431171
    Total Energy =                       -345.0265531343119392
  @DF-RHF Final Energy:  -345.02814431886179
    Total Energy =                       -345.0281443188616777
  @DF-RHF Final Energy:  -345.02818583703510
    Total Energy =                       -345.0281858370354371
  Basis Set: CC-PVTZ
  Basis Set:
  @DF-RHF Final Energy:  -345.02820190020202
    Total Energy =                       -345.0282019002021343
  Basis Set: CC-PVTZ
  Basis Set:
  Basis Set: CC-PVTZ
  Basis Set:
  @DF-RHF Final Energy:  -345.02820851085426
    Total Energy =                       -345.0282085108540286
  Basis Set: CC-PVTZ
  Basis Set:
  Basis Set: CC-PVTZ
  Basis Set:
  @DF-RHF Final Energy:  -345.02821011084643
    Total Energy =                       -345.0282101108464303
  Basis Set: CC-PVTZ
  Basis Set:
  Charge       = 0
  Multiplicity = 1
  Basis Set: CC-PVTZ
  Basis Set:

    Orbital Energies (a.u.)
    -----------------------

    Doubly Occupied:

       1A    -20.589625     2A    -20.528302     3A    -11.364889
       4A    -11.289465     5A    -11.232797     6A    -11.213445
       7A    -11.211582     8A     -1.462243     9A     -1.364210
      10A     -1.068184    11A     -1.028511    12A     -0.920076
      13A     -0.858907    14A     -0.742165    15A     -0.691205
      16A     -0.685558    17A     -0.673156    18A     -0.629053
      19A     -0.602102    20A     -0.569148    21A     -0.545913
      22A     -0.529842    23A     -0.523446    24A     -0.517479
      25A     -0.494601    26A     -0.491094    27A     -0.444487
      28A     -0.430560

  @DF-RHF Final Energy:  -345.02821065113295

   => Energetics <=

    Nuclear Repulsion Energy =            318.7963065262497935
    One-Electron Energy =               -1102.2449425156662528
    Two-Electron Energy =                 438.4204253382835077
    DFT Exchange-Correlation Energy =       0.0000000000000000
    Empirical Dispersion Energy =           0.0000000000000000
    PCM Polarization Energy =               0.0000000000000000
    EFP Energy =                            0.0000000000000000
    Total Energy =                       -345.0282106511330085
    Molecular point group: c1
  Basis Set: CC-PVTZ
  Basis Set:

  -Total Gradient:
     Atom            X                  Y                   Z
    ------   -----------------  -----------------  -----------------
       1        0.000038116869     0.000036510248    -0.000021378472
       2       -0.000654862920     0.000732244786     0.001731834763
       3        0.000016245510     0.000010590986     0.000039113195
       4        0.000740543755    -0.001360236368    -0.002405041703
       5       -0.000012320039    -0.000006544485    -0.000015203182
       6       -0.000005540783    -0.000009899203     0.000007643680
       7        0.000008866266    -0.000011765196    -0.000019851126
       8       -0.000003099608     0.000011567204     0.000006535766
       9        0.000004620530    -0.000012007420     0.000006263164
      10        0.000007505241     0.000008915386    -0.000011484424
      11        0.000887562029     0.001388639520    -0.000851546490
      12       -0.000011506394    -0.000001582234     0.000023722607
      13       -0.001030082125    -0.000770617615     0.001501262589
      14       -0.000003855500    -0.000003234740     0.000018800402
      15        0.000009193697    -0.000001952263    -0.000020039222
      16        0.000018875063    -0.000005870956     0.000010030190
      17       -0.000010261593    -0.000004757651    -0.000000661733

  **** Optimization is complete! (in 27 steps) ****
    Final optimized geometry and variables:
    Molecular point group: c1

    Geometry (in Angstrom), charge = 0, multiplicity = 1:

    O           -0.535538294640    -1.053657691219     0.168727529819
    C           -0.324914567982     0.057137952486    -0.178858655899
    C           -1.363167093005     0.970159090466    -0.788864469579
    O            0.837003117405     0.679283730197    -0.106370106856
    C           -2.725869089525     0.315766096502    -0.948348762980
    H           -0.973973122307     1.309141279153    -1.742221818551
    H           -1.421301815521     1.853224861849    -0.162127548018
    H           -2.667821250178    -0.555040577275    -1.587624673394
    H           -3.425488416170     1.016436472967    -1.387926429495
    H           -3.118565995862    -0.005211818189     0.007079954660
    C            2.041657515297     0.197276283740     0.491284130540
    C            2.006129074026    -1.086317613824     1.301016947892
    H            2.359958442706     1.005305852083     1.134852861613
    H            2.755642111527     0.107456137540    -0.315837173718
    H            1.295587037314    -1.034355463673     2.112979141242
    H            2.998484925294    -1.210562192556     1.723442501911
    H            1.772866515680    -1.950768016832     0.701443460684

  Mulliken Charges: (a.u.)
   Center  Symbol    Alpha    Beta     Spin     Total
       1     O     4.19791  4.19791  0.00000 -0.39582
       2     C     2.80658  2.80658  0.00000  0.38683
       3     C     3.08977  3.08977  0.00000 -0.17954
       4     O     4.15549  4.15549  0.00000 -0.31099
       5     C     3.14034  3.14034  0.00000 -0.28069
       6     H     0.44188  0.44188  0.00000  0.11624
       7     H     0.44325  0.44325  0.00000  0.11349
       8     H     0.44894  0.44894  0.00000  0.10212
       9     H     0.45097  0.45097  0.00000  0.09806
      10     H     0.44874  0.44874  0.00000  0.10253
      11     C     2.98339  2.98339  0.00000  0.03323
      12     C     3.14899  3.14899  0.00000 -0.29798
      13     H     0.45250  0.45250  0.00000  0.09500
      14     H     0.45377  0.45377  0.00000  0.09247
      15     H     0.44562  0.44562  0.00000  0.10876
      16     H     0.45263  0.45263  0.00000  0.09474
      17     H     0.43923  0.43923  0.00000  0.12155

   Total alpha = 28.00000, Total beta = 28.00000, Total charge = -0.00000

*** Psi4 exiting successfully. Buy a developer a beer!
