  ==> Input File <==

--------------------------------------------------------------------------
set {
	reference rhf
	basis cc-pvtz
}

set_num_threads( 4 )
memory 2 gb

molecule MOL {
0 1

H	 -2.362939	 -1.309000	 -0.383250
C	 -1.359344	 -1.272457	 0.020748
C	 -0.684082	 0.000127	 -0.464918
H	 -0.825835	 -2.151141	 -0.318537
H	 -1.416276	 -1.292399	 1.099455
C	 -1.359089	 1.272668	 0.021259
N	 0.742439	 -0.000109	 0.007333
H	 -0.596914	 0.000345	 -1.538146
H	 -2.362696	 1.309620	 -0.382686
H	 -0.825392	 2.151374	 -0.317674
H	 -1.415983	 1.292181	 1.099973
O	 1.545613	 0.526125	 -0.686665
O	 0.974943	 -0.526372	 1.044289

	symmetry c1
}
set optking {
	frozen_dihedral = ("
		12 7 3 8
	")
}

ee = optimize('scf')
oeprop('DIPOLE', 'QUADRUPOLE', 'MULLIKEN_CHARGES')
f=open( 'psi4out.xyz', 'w' )
f.write( "13  " )
f.write( str(ee) + "\n" )
f.write( MOL.save_string_xyz() )
f.close()
--------------------------------------------------------------------------

    Molecular point group: c1
  Charge       = 0
  Multiplicity = 1
  Basis Set: CC-PVTZ
  Basis Set:
  @DF-RHF Final Energy:  -321.86370059855534
    Total Energy =                       -321.8637005985555675
    Molecular point group: c1
  Basis Set: CC-PVTZ
  Basis Set:
  Basis Set: CC-PVTZ
  Basis Set:
  @DF-RHF Final Energy:  -321.85909214027544
    Total Energy =                       -321.8590921402758340
  Basis Set: CC-PVTZ
  Basis Set:
  Basis Set: CC-PVTZ
  Basis Set:
  @DF-RHF Final Energy:  -321.86370839971062
    Total Energy =                       -321.8637083997105037
  Basis Set: CC-PVTZ
  Basis Set:
  Basis Set: CC-PVTZ
  Basis Set:
  @DF-RHF Final Energy:  -321.86422256949021
    Total Energy =                       -321.8642225694906074
  Basis Set: CC-PVTZ
  Basis Set:
  Basis Set: CC-PVTZ
  Basis Set:
  @DF-RHF Final Energy:  -321.86422854049175
    Total Energy =                       -321.8642285404915242
  Basis Set: CC-PVTZ
  Basis Set:
  Charge       = 0
  Multiplicity = 1
  Basis Set: CC-PVTZ
  Basis Set:

    Orbital Energies (a.u.)
    -----------------------

    Doubly Occupied:

       1A    -20.589618     2A    -20.588015     3A    -15.832826
       4A    -11.304713     5A    -11.245372     6A    -11.239366
       7A     -1.633982     8A     -1.418233     9A     -1.142291
      10A     -0.973136    11A     -0.957320    12A     -0.816229
      13A     -0.755012    14A     -0.731807    15A     -0.726223
      16A     -0.648517    17A     -0.594416    18A     -0.587623
      19A     -0.571351    20A     -0.529588    21A     -0.522057
      22A     -0.485114    23A     -0.470644    24A     -0.451897

  @DF-RHF Final Energy:  -321.86423033244557

   => Energetics <=

    Nuclear Repulsion Energy =            257.3983101442128145
    One-Electron Energy =                -948.8943859294132608
    Two-Electron Energy =                 369.6318454527549306
    DFT Exchange-Correlation Energy =       0.0000000000000000
    Empirical Dispersion Energy =           0.0000000000000000
    PCM Polarization Energy =               0.0000000000000000
    EFP Energy =                            0.0000000000000000
    Total Energy =                       -321.8642303324455156
    Molecular point group: c1
  Basis Set: CC-PVTZ
  Basis Set:

  -Total Gradient:
     Atom            X                  Y                   Z
    ------   -----------------  -----------------  -----------------
       1       -0.000014998848    -0.000009663540    -0.000001590558
       2       -0.000006780303    -0.000034653598    -0.000013310622
       3       -0.000117279779     0.001143557036     0.000168328235
       4       -0.000006747788     0.000003325172     0.000007959071
       5        0.000013358232     0.000012651604    -0.000021831941
       6        0.000056057388    -0.000028263191    -0.000006128892
       7        0.000282745876    -0.000918592535    -0.000500682513
       8        0.000034358541    -0.000784454951    -0.000004603472
       9        0.000003573361    -0.000003909267    -0.000002113038
      10       -0.000004172784     0.000015755845     0.000002695846
      11       -0.000001874308     0.000003721663     0.000006909550
      12       -0.000187202402     0.000639558152     0.000333724045
      13       -0.000051037180    -0.000039032390     0.000030644287

  **** Optimization is complete! (in 6 steps) ****
    Final optimized geometry and variables:
    Molecular point group: c1

    Geometry (in Angstrom), charge = 0, multiplicity = 1:

    H           -2.369000799552    -1.321057064323    -0.426222596751
    C           -1.378677138078    -1.293362342378     0.011372416847
    C           -0.683440144991    -0.031605657002    -0.462005045785
    H           -0.843305293681    -2.179013493366    -0.303567318353
    H           -1.471691180605    -1.312697687184     1.086792371265
    C           -1.345128589629     1.251525011094     0.024195036895
    N            0.745127146352    -0.000237019074     0.007914232544
    H           -0.594692088804    -0.021760966809    -1.536051542460
    H           -2.359108712955     1.287958784617    -0.351839565432
    H           -0.814059070794     2.121834653678    -0.335260404211
    H           -1.378818858927     1.278282239111     1.105679448336
    O            1.522435261683     0.554105049529    -0.695078938589
    O            1.000896823504    -0.489569888354     1.055996640526

  Mulliken Charges: (a.u.)
   Center  Symbol    Alpha    Beta     Spin     Total
       1     H     0.45011  0.45011  0.00000  0.09978
       2     C     3.14404  3.14404  0.00000 -0.28809
       3     C     3.00776  3.00776  0.00000 -0.01552
       4     H     0.44080  0.44080  0.00000  0.11841
       5     H     0.43893  0.43893  0.00000  0.12214
       6     C     3.14288  3.14288  0.00000 -0.28576
       7     N     3.27410  3.27410  0.00000  0.45179
       8     H     0.42595  0.42595  0.00000  0.14810
       9     H     0.44845  0.44845  0.00000  0.10310
      10     H     0.43631  0.43631  0.00000  0.12738
      11     H     0.44270  0.44270  0.00000  0.11460
      12     O     4.17366  4.17366  0.00000 -0.34731
      13     O     4.17431  4.17431  0.00000 -0.34863

   Total alpha = 24.00000, Total beta = 24.00000, Total charge = -0.00000
