  ==> Input File <==

--------------------------------------------------------------------------
set {
	reference rhf
	basis 6-31G*
}

set_num_threads( 1 )
memory 2 gb

molecule MOL {
0 1

H	 2.160404	 -0.367654	 0.693081
O	 1.586534	 -0.678666	 -0.000226
C	 0.489431	 0.077273	 0.000046
C	 -0.764129	 -0.759190	 0.000191
O	 0.537743	 1.263962	 0.000257
C	 -2.038368	 0.075731	 -0.000248
H	 -0.717284	 -1.412404	 -0.866059
H	 -0.717458	 -1.411724	 0.866967
H	 -2.086483	 0.712501	 -0.875098
H	 -2.908485	 -0.571682	 -0.000042
H	 -2.086576	 0.713280	 0.874068

	symmetry c1
}
set optking {
	frozen_dihedral = ("
		2 3 4 7
	")
}

ee = energy('scf')
oeprop('DIPOLE', 'QUADRUPOLE', 'MULLIKEN_CHARGES')
f=open( 'psi4out.xyz', 'w' )
f.write( "11  " )
f.write( str(ee) + "\n" )
f.write( MOL.save_string_xyz() )
f.close()
--------------------------------------------------------------------------

    Molecular point group: c1

    Geometry (in Angstrom), charge = 0, multiplicity = 1:

       Center              X                  Y                   Z               Mass
    ------------   -----------------  -----------------  -----------------  -----------------
           H          2.162899783023    -0.364028127841     0.683643758868     1.007825032070
           O          1.589029783023    -0.675040127841    -0.009663241132    15.994914619560
           C          0.491926783023     0.080898872159    -0.009391241132    12.000000000000
           C         -0.761633216977    -0.755564127841    -0.009246241132    12.000000000000
           O          0.540238783023     1.267587872159    -0.009180241132    15.994914619560
           C         -2.035872216977     0.079356872159    -0.009685241132    12.000000000000
           H         -0.714788216977    -1.408778127841    -0.875496241132     1.007825032070
           H         -0.714962216977    -1.408098127841     0.857529758868     1.007825032070
           H         -2.083987216977     0.716126872159    -0.884535241132     1.007825032070
           H         -2.905989216977    -0.568056127841    -0.009479241132     1.007825032070
           H         -2.084080216977     0.716905872159     0.864630758868     1.007825032070

  Charge       = 0
  Multiplicity = 1
  Basis Set: 6-31G*
  Basis Set:

    Orbital Energies (a.u.)
    -----------------------

    Doubly Occupied:

       1A    -20.605152     2A    -20.556822     3A    -11.381299
       4A    -11.243665     5A    -11.219899     6A     -1.472710
       7A     -1.367868     8A     -1.064177     9A     -0.913642
      10A     -0.803957    11A     -0.707085    12A     -0.686100
      13A     -0.661668    14A     -0.611583    15A     -0.572643
      16A     -0.527405    17A     -0.524621    18A     -0.503009
      19A     -0.483184    20A     -0.445905

  @DF-RHF Final Energy:  -266.83336267707364

   => Energetics <=

    Nuclear Repulsion Energy =            179.7689369931603380
    One-Electron Energy =                -720.4998165361536167
    Two-Electron Energy =                 273.8975168659196697
    DFT Exchange-Correlation Energy =       0.0000000000000000
    Empirical Dispersion Energy =           0.0000000000000000
    PCM Polarization Energy =               0.0000000000000000
    EFP Energy =                            0.0000000000000000
    Total Energy =                       -266.8333626770736373

  Mulliken Charges: (a.u.)
   Center  Symbol    Alpha    Beta     Spin     Total
       1     H     0.26536  0.26536  0.00000  0.46928
       2     O     4.35415  4.35415  0.00000 -0.70829
       3     C     2.63312  2.63312  0.00000  0.73377
       4     C     3.20691  3.20691  0.00000 -0.41383
       5     O     4.26443  4.26443  0.00000 -0.52886
       6     C     3.24001  3.24001  0.00000 -0.48001
       7     H     0.39755  0.39755  0.00000  0.20490
       8     H     0.40251  0.40251  0.00000  0.19498
       9     H     0.40839  0.40839  0.00000  0.18322
      10     H     0.41713  0.41713  0.00000  0.16573
      11     H     0.41045  0.41045  0.00000  0.17911

   Total alpha = 20.00000, Total beta = 20.00000, Total charge =  0.00000
