                              Psi4 1.0.54 Driver

  ==> Input File <==

--------------------------------------------------------------------------
set {
	reference rhf
	basis cc-pvtz
}

set_num_threads( 4 )
memory 2 gb

molecule MOL {
0 1

H	 -3.436473	 1.252944	 -1.023892
O	 -3.458596	 0.315260	 -0.960865
C	 -3.176635	 -0.080824	 0.355601
C	 -1.763371	 0.265266	 0.799691
H	 -3.321825	 -1.153438	 0.379502
H	 -3.895468	 0.357385	 1.043382
C	 -0.673390	 -0.426948	 -0.013392
H	 -1.631049	 1.344913	 0.747560
H	 -1.664587	 -0.001624	 1.849167
C	 0.737842	 -0.043159	 0.423759
H	 -0.806103	 -0.190518	 -1.063345
H	 -0.797221	 -1.503753	 0.074146
C	 1.824000	 -0.743224	 -0.390623
H	 0.850588	 1.033777	 0.343840
H	 0.868587	 -0.286314	 1.476203
C	 3.255957	 -0.453067	 0.062319
H	 1.718250	 -0.470599	 -1.438164
H	 1.658105	 -1.815850	 -0.339904
C	 3.593087	 1.029433	 0.202602
H	 3.939115	 -0.897924	 -0.654739
H	 3.441504	 -0.955545	 1.008104
H	 3.411442	 1.559385	 -0.727039
H	 4.637820	 1.163452	 0.459142
H	 3.004882	 1.508070	 0.976248

	symmetry c1
}
set optking {
	frozen_dihedral = ("
		20 16 13 17
	")
}

ee,wfn = optimize('scf', return_wfn=True)
oeprop( wfn, 'DIPOLE', 'QUADRUPOLE', 'MULLIKEN_CHARGES')
f=open( 'psi4out.xyz', 'w' )
f.write( "24  " )
f.write( str(ee) + "\n" )
f.write( MOL.save_string_xyz() )
f.close()
--------------------------------------------------------------------------

    Molecular point group: c1
  Charge       = 0
  Multiplicity = 1
  Basis Set: CC-PVTZ
  Basis Set:
  @DF-RHF Final Energy:  -349.37951842708799
    Total Energy =                       -349.3795184270882146
    Molecular point group: c1
  Basis Set: CC-PVTZ
  Basis Set:
  Basis Set: CC-PVTZ
  Basis Set:
  @DF-RHF Final Energy:  -349.37954581849880
    Total Energy =                       -349.3795458184980589
  Basis Set: CC-PVTZ
  Basis Set:
  Basis Set: CC-PVTZ
  Basis Set:
  @DF-RHF Final Energy:  -349.37971182014115
    Total Energy =                       -349.3797118201414946
  Basis Set: CC-PVTZ
  Basis Set:
  Basis Set: CC-PVTZ
  Basis Set:
  @DF-RHF Final Energy:  -349.37972366870463
    Total Energy =                       -349.3797236687046848
  Basis Set: CC-PVTZ
  Basis Set:
  Basis Set: CC-PVTZ
  Basis Set:
  @DF-RHF Final Energy:  -349.37972751075995
    Total Energy =                       -349.3797275107600058
  Basis Set: CC-PVTZ
  Basis Set:
  Charge       = 0
  Multiplicity = 1
  Basis Set: CC-PVTZ
  Basis Set:

    Orbital Energies (a.u.)
    -----------------------

    Doubly Occupied:

       1A    -20.546272     2A    -11.265519     3A    -11.215171
       4A    -11.212219     5A    -11.210307     6A    -11.209414
       7A    -11.208995     8A    -11.205028     9A     -1.364133
      10A     -1.089837    11A     -1.049201    12A     -0.986379
      13A     -0.916172    14A     -0.852759    15A     -0.802076
      16A     -0.773761    17A     -0.681940    18A     -0.654970
      19A     -0.628329    20A     -0.620490    21A     -0.596488
      22A     -0.586800    23A     -0.557385    24A     -0.543710
      25A     -0.515578    26A     -0.507174    27A     -0.502910
      28A     -0.472912    29A     -0.468078    30A     -0.460629
      31A     -0.454846    32A     -0.451534    33A     -0.421503

  @DF-RHF Final Energy:  -349.37972774140621

   => Energetics <=

    Nuclear Repulsion Energy =            385.3283488177153231
    One-Electron Energy =               -1237.3511274829140802
    Two-Electron Energy =                 502.6430509237923729
    DFT Exchange-Correlation Energy =       0.0000000000000000
    Empirical Dispersion Energy =           0.0000000000000000
    PCM Polarization Energy =               0.0000000000000000
    EFP Energy =                            0.0000000000000000
    Total Energy =                       -349.3797277414063842
    Molecular point group: c1
  Basis Set: CC-PVTZ
  Basis Set:

  -Total Gradient:
     Atom            X                  Y                   Z
    ------   -----------------  -----------------  -----------------
       1        0.000000593781    -0.000005121300     0.000001987116
       2       -0.000001357052     0.000003896921    -0.000003372815
       3        0.000002529584     0.000003293252     0.000005426690
       4       -0.000001999475     0.000011481504    -0.000011082871
       5        0.000004256250     0.000006151935    -0.000000473268
       6        0.000000773685     0.000000809376    -0.000002797200
       7        0.000001349556    -0.000005958572     0.000002643468
       8       -0.000002339640     0.000000231929     0.000006026306
       9        0.000000510664    -0.000003877667    -0.000010757522
      10        0.000008872203    -0.000006007523     0.000006685023
      11        0.000000172362    -0.000009571964     0.000008263554
      12        0.000005833995     0.000006919023     0.000003021820
      13       -0.000904959219     0.003843753963     0.000683141744
      14       -0.000003423918    -0.000005694926     0.000006706868
      15        0.000000266522    -0.000003115858    -0.000006215076
      16        0.000131842760    -0.003623363310     0.001599103680
      17        0.000758276577    -0.002670995192    -0.000824037257
      18        0.000003509776     0.000002194451     0.000017424441
      19       -0.000018705559     0.000002253553     0.000010085812
      20        0.000026251636     0.002466311282    -0.001481669891
      21       -0.000011179543     0.000002337246    -0.000011714117
      22       -0.000002817430    -0.000009544663     0.000012782808
      23       -0.000008046382    -0.000003618282    -0.000004823112
      24        0.000009788867    -0.000002765176    -0.000006356205

  **** Optimization is complete! (in 6 steps) ****
    Final optimized geometry and variables:
    Molecular point group: c1

    Geometry (in Angstrom), charge = 0, multiplicity = 1:

    H           -3.463852884013     1.187608038072    -1.045363630247
    O           -3.465285006569     0.249628412901    -0.983196152241
    C           -3.166566699112    -0.141262777449     0.331033027899
    C           -1.758247335367     0.234819586620     0.766400267121
    H           -3.288488296053    -1.216773729778     0.354506732701
    H           -3.890372311801     0.280628152329     1.023788250215
    C           -0.658859421710    -0.431077340653    -0.055916506256
    H           -1.650139256748     1.317242403486     0.716371039741
    H           -1.646421220541    -0.032560725255     1.814448916767
    C            0.746623190648    -0.020217338689     0.375228674820
    H           -0.802069074639    -0.192315731165    -1.104013673369
    H           -0.760178244375    -1.510516248300     0.026943395761
    C            1.839542209288    -0.684954739442    -0.457308100370
    H            0.833913722038     1.059635154629     0.307649132380
    H            0.891131319713    -0.272823122297     1.423926200012
    C            3.274814876987    -0.423235372414     0.006702007266
    H            1.741107324031    -0.392916018355    -1.500190205951
    H            1.676294564179    -1.759836725182    -0.445484195473
    C            3.646028849750     1.052264617257     0.147196208649
    H            3.949472472758    -0.867288455200    -0.718693261357
    H            3.449746479744    -0.928634307908     0.952074689326
    H            3.451666495158     1.593509507787    -0.773595760336
    H            4.700206637374     1.160574264992     0.375670611423
    H            3.090084325708     1.538102295566     0.939702174191

  Mulliken Charges: (a.u.)
   Center  Symbol    Alpha    Beta     Spin     Total
       1     H     0.39530  0.39530  0.00000  0.20939
       2     O     4.20373  4.20373  0.00000 -0.40746
       3     C     2.97776  2.97776  0.00000  0.04447
       4     C     3.10178  3.10178  0.00000 -0.20355
       5     H     0.45891  0.45891  0.00000  0.08217
       6     H     0.46033  0.46033  0.00000  0.07935
       7     C     3.08733  3.08733  0.00000 -0.17465
       8     H     0.45923  0.45923  0.00000  0.08155
       9     H     0.45347  0.45347  0.00000  0.09306
      10     C     3.09216  3.09216  0.00000 -0.18432
      11     H     0.44652  0.44652  0.00000  0.10697
      12     H     0.45479  0.45479  0.00000  0.09041
      13     C     3.09571  3.09571  0.00000 -0.19143
      14     H     0.45227  0.45227  0.00000  0.09546
      15     H     0.45559  0.45559  0.00000  0.08883
      16     C     3.08967  3.08967  0.00000 -0.17935
      17     H     0.45233  0.45233  0.00000  0.09535
      18     H     0.45081  0.45081  0.00000  0.09839
      19     C     3.15573  3.15573  0.00000 -0.31147
      20     H     0.44949  0.44949  0.00000  0.10102
      21     H     0.45361  0.45361  0.00000  0.09277
      22     H     0.45436  0.45436  0.00000  0.09129
      23     H     0.44597  0.44597  0.00000  0.10806
      24     H     0.45316  0.45316  0.00000  0.09369

   Total alpha = 33.00000, Total beta = 33.00000, Total charge =  0.00000

*** Psi4 exiting successfully. Buy a developer a beer!
