                              Psi4 1.0.54 Driver

  ==> Input File <==

--------------------------------------------------------------------------
set {
	reference rhf
	basis cc-pvtz
}

set_num_threads( 4 )
memory 2 gb

molecule MOL {
0 1

H	 -2.266619	 1.169943	 0.000098
O	 -1.438073	 1.611259	 0.000041
C	 -0.408657	 0.734701	 0.000005
C	 0.340411	 0.651023	 1.159015
C	 -0.105585	 -0.051861	 -1.105246
H	 0.074697	 1.274596	 1.989968
C	 1.405202	 -0.222043	 1.229334
C	 0.969549	 -0.920105	 -1.006419
C	 -0.924004	 0.040622	 -2.369303
H	 1.982215	 -0.281591	 2.132379
C	 1.726499	 -1.014436	 0.144295
H	 1.216689	 -1.534853	 -1.851981
H	 -0.895646	 1.039473	 -2.795697
H	 -0.546314	 -0.639523	 -3.119098
H	 -1.965113	 -0.216455	 -2.195150
H	 2.553406	 -1.695862	 0.191754

	symmetry c1
}
set optking {
	frozen_dihedral = ("
		4 3 2 1
	")
}

ee,wfn = optimize('scf', return_wfn=True)
oeprop( wfn, 'DIPOLE', 'QUADRUPOLE', 'MULLIKEN_CHARGES')
f=open( 'psi4out.xyz', 'w' )
f.write( "16  " )
f.write( str(ee) + "\n" )
f.write( MOL.save_string_xyz() )
f.close()
--------------------------------------------------------------------------

    Molecular point group: c1
  Charge       = 0
  Multiplicity = 1
  Basis Set: CC-PVTZ
  Basis Set:
  @DF-RHF Final Energy:  -344.71574937388795
    Total Energy =                       -344.7157493738881158
    Molecular point group: c1
  Basis Set: CC-PVTZ
  Basis Set:
  Basis Set: CC-PVTZ
  Basis Set:
  @DF-RHF Final Energy:  -344.71640379015855
    Total Energy =                       -344.7164037901583242
  Basis Set: CC-PVTZ
  Basis Set:
  Basis Set: CC-PVTZ
  Basis Set:
  @DF-RHF Final Energy:  -344.71647019125089
    Total Energy =                       -344.7164701912508917
  Basis Set: CC-PVTZ
  Basis Set:
  Basis Set: CC-PVTZ
  Basis Set:
  @DF-RHF Final Energy:  -344.71648325054042
    Total Energy =                       -344.7164832505407048
  Basis Set: CC-PVTZ
  Basis Set:
  Basis Set: CC-PVTZ
  Basis Set:
  @DF-RHF Final Energy:  -344.71648664044977
    Total Energy =                       -344.7164866404497161
  Basis Set: CC-PVTZ
  Basis Set:
  Charge       = 0
  Multiplicity = 1
  Basis Set: CC-PVTZ
  Basis Set:

    Orbital Energies (a.u.)
    -----------------------

    Doubly Occupied:

       1A    -20.571022     2A    -11.283311     3A    -11.234068
       4A    -11.226959     5A    -11.226681     6A    -11.222473
       7A    -11.221843     8A    -11.221820     9A     -1.397608
      10A     -1.153690    11A     -1.049079    12A     -1.007292
      13A     -0.937492    14A     -0.830421    15A     -0.812956
      16A     -0.730452    17A     -0.673217    18A     -0.656272
      19A     -0.625426    20A     -0.595096    21A     -0.574065
      22A     -0.570495    23A     -0.548702    24A     -0.524464
      25A     -0.503336    26A     -0.488125    27A     -0.467843
      28A     -0.333455    29A     -0.321418

  @DF-RHF Final Energy:  -344.71648718530167

   => Energetics <=

    Nuclear Repulsion Energy =            350.5391009841718528
    One-Electron Energy =               -1162.4930186062586017
    Two-Electron Energy =                 467.2374304367851323
    DFT Exchange-Correlation Energy =       0.0000000000000000
    Empirical Dispersion Energy =           0.0000000000000000
    PCM Polarization Energy =               0.0000000000000000
    EFP Energy =                            0.0000000000000000
    Total Energy =                       -344.7164871853015597
    Molecular point group: c1
  Basis Set: CC-PVTZ
  Basis Set:

  -Total Gradient:
     Atom            X                  Y                   Z
    ------   -----------------  -----------------  -----------------
       1       -0.000007113451     0.000059999415     0.001265038171
       2       -0.000306346179    -0.000336703552    -0.001414809520
       3        0.000913859091     0.000891045482    -0.000148280951
       4       -0.000646311361    -0.000565517783     0.000341613537
       5        0.000038583032    -0.000030210883    -0.000040936051
       6        0.000004553854    -0.000010759424    -0.000012231842
       7        0.000045562032    -0.000057674865    -0.000034919253
       8       -0.000078528036     0.000061434453    -0.000043729798
       9       -0.000004614510    -0.000021617718     0.000031086472
      10        0.000005527872    -0.000001374685     0.000007849833
      11        0.000025534698     0.000014185095     0.000073066489
      12        0.000002588021    -0.000007804676    -0.000006663510
      13        0.000010257852    -0.000001876285    -0.000002460274
      14       -0.000003344953     0.000002215055    -0.000009965227
      15        0.000009273720     0.000004040925    -0.000001055826
      16       -0.000009481683     0.000000619446    -0.000003602250

  **** Optimization is complete! (in 6 steps) ****
    Final optimized geometry and variables:
    Molecular point group: c1

    Geometry (in Angstrom), charge = 0, multiplicity = 1:

    H           -2.385063323455     1.052854016465     0.226100277235
    O           -1.551873224408     1.490579802778     0.221617234704
    C           -0.527369948197     0.585266317433     0.276759755661
    C            0.221497095731     0.507167724215     1.431749635161
    C           -0.230959912083    -0.204112820731    -0.827941084852
    H           -0.037558288482     1.140027821101     2.258051829961
    C            1.290027496706    -0.366618848130     1.506059963301
    C            0.839268133992    -1.076901966697    -0.729183971341
    C           -1.052012794439    -0.100461820026    -2.086973139388
    H            1.872986082392    -0.422315486147     2.405323209039
    C            1.598494405059    -1.163700370143     0.423594583524
    H            1.086624646148    -1.695643065829    -1.571540719183
    H           -1.106269493326     0.924171263794    -2.432150953594
    H           -0.624025623866    -0.705820428164    -2.874130347679
    H           -2.070692199245    -0.441029896191    -1.928468094401
    H            2.425306989012    -1.845998305536     0.470246652785

  Mulliken Charges: (a.u.)
   Center  Symbol    Alpha    Beta     Spin     Total
       1     H     0.38834  0.38834  0.00000  0.22332
       2     O     4.18841  4.18841  0.00000 -0.37682
       3     C     2.88433  2.88433  0.00000  0.23133
       4     C     3.10689  3.10689  0.00000 -0.21379
       5     C     2.99742  2.99742  0.00000  0.00516
       6     H     0.41756  0.41756  0.00000  0.16488
       7     C     3.07562  3.07562  0.00000 -0.15124
       8     C     3.09296  3.09296  0.00000 -0.18591
       9     C     3.15101  3.15101  0.00000 -0.30203
      10     H     0.42209  0.42209  0.00000  0.15581
      11     C     3.08015  3.08015  0.00000 -0.16030
      12     H     0.42470  0.42470  0.00000  0.15059
      13     H     0.43987  0.43987  0.00000  0.12026
      14     H     0.45051  0.45051  0.00000  0.09897
      15     H     0.45605  0.45605  0.00000  0.08791
      16     H     0.42408  0.42408  0.00000  0.15184

   Total alpha = 29.00000, Total beta = 29.00000, Total charge = -0.00000

*** Psi4 exiting successfully. Buy a developer a beer!
