  ==> Input File <==

--------------------------------------------------------------------------
set {
	reference rhf
	basis cc-pvtz
}

set_num_threads( 4 )
memory 2 gb

molecule MOL {
0 1

H	 2.407785	 1.184805	 0.474298
O	 1.498301	 1.265591	 0.693294
C	 0.700177	 0.619554	 -0.266242
C	 -0.713111	 0.588314	 0.266177
H	 1.047530	 -0.395613	 -0.432696
H	 0.721791	 1.153784	 -1.212555
O	 -1.421673	 -0.521378	 -0.196983
H	 -1.244794	 1.469161	 -0.069059
H	 -0.685100	 0.604721	 1.352683
H	 -0.933408	 -1.297830	 0.014544

	symmetry c1
}
set optking {
	frozen_dihedral = ("
		5 3 4 7
	")
}

ee = optimize('scf')
oeprop('DIPOLE', 'QUADRUPOLE', 'MULLIKEN_CHARGES')
f=open( 'psi4out.xyz', 'w' )
f.write( "10  " )
f.write( str(ee) + "\n" )
f.write( MOL.save_string_xyz() )
f.close()
--------------------------------------------------------------------------

    Molecular point group: c1
  Charge       = 0
  Multiplicity = 1
  Basis Set: CC-PVTZ
  Basis Set:
  @DF-RHF Final Energy:  -229.02127281938138
    Total Energy =                       -229.0212728193812382
    Molecular point group: c1
  Basis Set: CC-PVTZ
  Basis Set:
  Basis Set: CC-PVTZ
  Basis Set:
  @DF-RHF Final Energy:  -229.02240801885125
    Total Energy =                       -229.0224080188510811
  Basis Set: CC-PVTZ
  Basis Set:
  Basis Set: CC-PVTZ
  Basis Set:
  @DF-RHF Final Energy:  -229.02279391414604
    Total Energy =                       -229.0227939141458933
  Basis Set: CC-PVTZ
  Basis Set:
  Basis Set: CC-PVTZ
  Basis Set:
  @DF-RHF Final Energy:  -229.02284943975778
    Total Energy =                       -229.0228494397577492
  Basis Set: CC-PVTZ
  Basis Set:
  Basis Set: CC-PVTZ
  Basis Set:
  @DF-RHF Final Energy:  -229.02285125666941
    Total Energy =                       -229.0228512566694405
  Basis Set: CC-PVTZ
  Basis Set:
  Charge       = 0
  Multiplicity = 1
  Basis Set: CC-PVTZ
  Basis Set:

    Orbital Energies (a.u.)
    -----------------------

    Doubly Occupied:

       1A    -20.556763     2A    -20.551254     3A    -11.271944
       4A    -11.267487     5A     -1.379521     6A     -1.365468
       7A     -0.998136     8A     -0.848858     9A     -0.729561
      10A     -0.676535    11A     -0.653884    12A     -0.614877
      13A     -0.576418    14A     -0.529364    15A     -0.497235
      16A     -0.446892    17A     -0.439668

  @DF-RHF Final Energy:  -229.02285140731064

   => Energetics <=

    Nuclear Repulsion Energy =            131.4083650065896052
    One-Electron Energy =                -574.0547007152015340
    Two-Electron Energy =                 213.6234843013013460
    DFT Exchange-Correlation Energy =       0.0000000000000000
    Empirical Dispersion Energy =           0.0000000000000000
    PCM Polarization Energy =               0.0000000000000000
    EFP Energy =                            0.0000000000000000
    Total Energy =                       -229.0228514073105544
    Molecular point group: c1
  Basis Set: CC-PVTZ
  Basis Set:

  -Total Gradient:
     Atom            X                  Y                   Z
    ------   -----------------  -----------------  -----------------
       1       -0.000031981604    -0.000005873397     0.000008023988
       2        0.000023349075     0.000007906948    -0.000012783023
       3        0.002153535760    -0.001153273357     0.006087246924
       4       -0.001621430664     0.002746374707    -0.004617326674
       5       -0.001443579852     0.000385020435    -0.004169579525
       6       -0.000008162260    -0.000011903932    -0.000002432433
       7        0.000949844098    -0.001990349935     0.002699073618
       8       -0.000011941704    -0.000000008097     0.000000993504
       9       -0.000012012009     0.000015537453     0.000005739594
      10        0.000002379155     0.000006569178     0.000001044026

  **** Optimization is complete! (in 6 steps) ****
    Final optimized geometry and variables:
    Molecular point group: c1

    Geometry (in Angstrom), charge = 0, multiplicity = 1:

    H            2.332909308336     0.939810277305     0.272560547381
    O            1.475463976973     0.762269677510     0.611805037630
    C            0.686476745128     0.140917280251    -0.362363647911
    C           -0.754913481974     0.113662501745     0.131889621591
    H            1.010811704634    -0.876938830588    -0.567158609070
    H            0.744592520329     0.676515351365    -1.306102987316
    O           -1.480592329872    -0.957162986256    -0.403235205794
    H           -1.274960899534     1.016932390503    -0.151954354018
    H           -0.737563877760     0.070540397419     1.216173577663
    H           -1.179533572637    -1.764999196175    -0.029458013840

  Mulliken Charges: (a.u.)
   Center  Symbol    Alpha    Beta     Spin     Total
       1     H     0.39219  0.39219  0.00000  0.21562
       2     O     4.19880  4.19880  0.00000 -0.39761
       3     C     2.96184  2.96184  0.00000  0.07632
       4     C     2.97250  2.97250  0.00000  0.05501
       5     H     0.48134  0.48134  0.00000  0.03732
       6     H     0.47383  0.47383  0.00000  0.05234
       7     O     4.20419  4.20419  0.00000 -0.40838
       8     H     0.45613  0.45613  0.00000  0.08775
       9     H     0.46638  0.46638  0.00000  0.06725
      10     H     0.39281  0.39281  0.00000  0.21439

   Total alpha = 17.00000, Total beta = 17.00000, Total charge =  0.00000
