  ==> Input File <==

--------------------------------------------------------------------------
set {
	reference rhf
	basis 6-31G*
}

set_num_threads( 1 )
memory 2 gb

molecule MOL {
0 1

O	 3.225979	 0.970355	 -0.599647
C	 2.701189	 0.057885	 -0.047330
C	 1.245376	 -0.013843	 0.345420
O	 3.347903	 -1.046386	 0.304773
C	 0.455112	 1.231400	 -0.050772
H	 0.838542	 -0.913825	 -0.103701
H	 1.208210	 -0.175333	 1.419774
C	 -0.998893	 1.219485	 0.433193
H	 0.482531	 1.345121	 -1.130325
H	 0.957290	 2.103070	 0.354729
C	 -1.883438	 0.145884	 -0.207175
H	 -1.431207	 2.195402	 0.224832
H	 -1.019646	 1.105716	 1.516076
C	 -3.347647	 0.245583	 0.225435
H	 -1.822183	 0.231698	 -1.291012
H	 -1.510341	 -0.844814	 0.042401
C	 -3.732916	 1.631577	 0.745742
H	 -3.545694	 -0.495253	 0.998205
H	 -3.989863	 -0.012979	 -0.615044
C	 -5.195674	 1.721636	 1.179250
H	 -3.091459	 1.891952	 1.585017
H	 -3.539750	 2.372910	 -0.026846
H	 -5.438139	 2.715416	 1.542870
H	 -5.412507	 1.015927	 1.976214
H	 -5.864143	 1.499974	 0.352032
C	 4.728119	 -1.109107	 -0.004993
H	 4.882018	 -1.033965	 -1.071845
H	 5.068212	 -2.067527	 0.355250
H	 5.265056	 -0.311663	 0.488280

	symmetry c1
}
set optking {
	frozen_dihedral = ("
		21 17 14 11,
		15 11 8 5,
		6 3 5 9,
		11 8 5 9,
		2 4 26 27,
		1 2 4 26,
		6 3 2 1
	")
}

ee = energy('scf')
oeprop('DIPOLE', 'QUADRUPOLE', 'MULLIKEN_CHARGES')
f=open( 'psi4out.xyz', 'w' )
f.write( "29  " )
f.write( str(ee) + "\n" )
f.write( MOL.save_string_xyz() )
f.close()
--------------------------------------------------------------------------

    Molecular point group: c1

    Geometry (in Angstrom), charge = 0, multiplicity = 1:

       Center              X                  Y                   Z               Mass
    ------------   -----------------  -----------------  -----------------  -----------------
           O          3.133019286529     0.521012507664    -0.810722043089    15.994914619560
           C          2.608229286529    -0.391457492336    -0.258405043089    12.000000000000
           C          1.152416286529    -0.463185492336     0.134344956911    12.000000000000
           O          3.254943286529    -1.495728492336     0.093697956911    15.994914619560
           C          0.362152286529     0.782057507664    -0.261847043089    12.000000000000
           H          0.745582286529    -1.363167492336    -0.314776043089     1.007825032070
           H          1.115250286529    -0.624675492336     1.208698956911     1.007825032070
           C         -1.091852713471     0.770142507664     0.222117956911    12.000000000000
           H          0.389571286529     0.895778507664    -1.341400043089     1.007825032070
           H          0.864330286529     1.653727507664     0.143653956911     1.007825032070
           C         -1.976397713471    -0.303458492336    -0.418250043089    12.000000000000
           H         -1.524166713471     1.746059507664     0.013756956911     1.007825032070
           H         -1.112605713471     0.656373507664     1.305000956911     1.007825032070
           C         -3.440606713471    -0.203759492336     0.014359956911    12.000000000000
           H         -1.915142713471    -0.217644492336    -1.502087043089     1.007825032070
           H         -1.603300713471    -1.294156492336    -0.168674043089     1.007825032070
           C         -3.825875713471     1.182234507664     0.534666956911    12.000000000000
           H         -3.638653713471    -0.944595492336     0.787129956911     1.007825032070
           H         -4.082822713471    -0.462321492336    -0.826119043089     1.007825032070
           C         -5.288633713471     1.272293507664     0.968174956911    12.000000000000
           H         -3.184418713471     1.442609507664     1.373941956911     1.007825032070
           H         -3.632709713471     1.923567507664    -0.237921043089     1.007825032070
           H         -5.531098713471     2.266073507664     1.331794956911     1.007825032070
           H         -5.505466713471     0.566584507664     1.765138956911     1.007825032070
           H         -5.957102713471     1.050631507664     0.140956956911     1.007825032070
           C          4.635159286529    -1.558449492336    -0.216068043089    12.000000000000
           H          4.789058286529    -1.483307492336    -1.282920043089     1.007825032070
           H          4.975252286529    -2.516869492336     0.144174956911     1.007825032070
           H          5.172096286529    -0.761005492336     0.277204956911     1.007825032070

  Charge       = 0
  Multiplicity = 1
  Basis Set: 6-31G*
  Basis Set:

    Orbital Energies (a.u.)
    -----------------------

    Doubly Occupied:

       1A    -20.603047     2A    -20.544809     3A    -11.371568
       4A    -11.280440     5A    -11.234136     6A    -11.217972
       7A    -11.215839     8A    -11.214944     9A    -11.214327
      10A    -11.213469    11A    -11.207861    12A     -1.468731
      13A     -1.362157    14A     -1.100573    15A     -1.065880
      16A     -1.015275    17A     -0.976778    18A     -0.928604
      19A     -0.861660    20A     -0.824778    21A     -0.771578
      22A     -0.755036    23A     -0.700567    24A     -0.681751
      25A     -0.671928    26A     -0.647714    27A     -0.627686
      28A     -0.610316    29A     -0.591205    30A     -0.582103
      31A     -0.567845    32A     -0.553591    33A     -0.546854
      34A     -0.523957    35A     -0.521301    36A     -0.498053
      37A     -0.491488    38A     -0.484794    39A     -0.479640
      40A     -0.456695    41A     -0.452106    42A     -0.445295
      43A     -0.439726    44A     -0.436660

  @DF-RHF Final Energy:  -501.03256069127974

   => Energetics <=

    Nuclear Repulsion Energy =            618.1219604557272760
    One-Electron Energy =               -1907.3875704730999132
    Two-Electron Energy =                 788.2330493260951698
    DFT Exchange-Correlation Energy =       0.0000000000000000
    Empirical Dispersion Energy =           0.0000000000000000
    PCM Polarization Energy =               0.0000000000000000
    EFP Energy =                            0.0000000000000000
    Total Energy =                       -501.0325606912774674

  Mulliken Charges: (a.u.)
   Center  Symbol    Alpha    Beta     Spin     Total
       1     O     4.28613  4.28613  0.00000 -0.57225
       2     C     2.60470  2.60470  0.00000  0.79060
       3     C     3.21000  3.21000  0.00000 -0.42001
       4     O     4.30755  4.30755  0.00000 -0.61509
       5     C     3.15104  3.15104  0.00000 -0.30208
       6     H     0.39897  0.39897  0.00000  0.20206
       7     H     0.40152  0.40152  0.00000  0.19697
       8     C     3.16555  3.16555  0.00000 -0.33110
       9     H     0.41356  0.41356  0.00000  0.17288
      10     H     0.40930  0.40930  0.00000  0.18140
      11     C     3.15698  3.15698  0.00000 -0.31395
      12     H     0.41276  0.41276  0.00000  0.17448
      13     H     0.42341  0.42341  0.00000  0.15318
      14     C     3.15169  3.15169  0.00000 -0.30338
      15     H     0.42132  0.42132  0.00000  0.15735
      16     H     0.42079  0.42079  0.00000  0.15842
      17     C     3.16090  3.16090  0.00000 -0.32181
      18     H     0.42265  0.42265  0.00000  0.15469
      19     H     0.42063  0.42063  0.00000  0.15874
      20     C     3.23708  3.23708  0.00000 -0.47416
      21     H     0.41830  0.41830  0.00000  0.16340
      22     H     0.42171  0.42171  0.00000  0.15659
      23     H     0.41966  0.41966  0.00000  0.16068
      24     H     0.42232  0.42232  0.00000  0.15535
      25     H     0.42224  0.42224  0.00000  0.15553
      26     C     3.09238  3.09238  0.00000 -0.18476
      27     H     0.40912  0.40912  0.00000  0.18177
      28     H     0.40858  0.40858  0.00000  0.18284
      29     H     0.40918  0.40918  0.00000  0.18165

   Total alpha = 44.00000, Total beta = 44.00000, Total charge =  0.00000
