                              Psi4 1.0.54 Driver

  ==> Input File <==

--------------------------------------------------------------------------
set {
	reference rhf
	basis cc-pvtz
}

set_num_threads( 4 )
memory 2 gb

molecule MOL {
0 1

H	 -1.752232	 -2.214755	 -0.011938
C	 -1.343852	 -1.221619	 -0.018179
N	 -0.058800	 -1.097635	 -0.261688
C	 -2.148159	 -0.124236	 0.219734
C	 0.449026	 0.119242	 -0.273393
H	 -3.196988	 -0.237571	 0.417076
N	 -1.655094	 1.094230	 0.209506
C	 -0.370318	 1.215445	 -0.035100
C	 1.924033	 0.265863	 -0.538106
H	 0.033214	 2.210441	 -0.046812
C	 2.731743	 0.499092	 0.739650
H	 2.271535	 -0.638323	 -1.023342
H	 2.085415	 1.084287	 -1.229735
H	 3.789195	 0.565257	 0.513038
H	 2.583488	 -0.314278	 1.437810
H	 2.434174	 1.420950	 1.226658

	symmetry c1
}
set optking {
	frozen_dihedral = ("
		12 9 5 3
	")
}

ee,wfn = optimize('scf', return_wfn=True)
oeprop( wfn, 'DIPOLE', 'QUADRUPOLE', 'MULLIKEN_CHARGES')
f=open( 'psi4out.xyz', 'w' )
f.write( "16  " )
f.write( str(ee) + "\n" )
f.write( MOL.save_string_xyz() )
f.close()
--------------------------------------------------------------------------

    Molecular point group: c1
  Charge       = 0
  Multiplicity = 1
  Basis Set: CC-PVTZ
  Basis Set:
  @DF-RHF Final Energy:  -340.87159520109475
    Total Energy =                       -340.8715952010948058
    Molecular point group: c1
  Basis Set: CC-PVTZ
  Basis Set:
  Basis Set: CC-PVTZ
  Basis Set:
  @DF-RHF Final Energy:  -340.87165029140056
    Total Energy =                       -340.8716502914005559
  Basis Set: CC-PVTZ
  Basis Set:
  Basis Set: CC-PVTZ
  Basis Set:
  @DF-RHF Final Energy:  -340.87167412920661
    Total Energy =                       -340.8716741292066104
  Basis Set: CC-PVTZ
  Basis Set:
  Basis Set: CC-PVTZ
  Basis Set:
  @DF-RHF Final Energy:  -340.87168742179767
    Total Energy =                       -340.8716874217979012
  Basis Set: CC-PVTZ
  Basis Set:
  Basis Set: CC-PVTZ
  Basis Set:
  @DF-RHF Final Energy:  -340.87169012746347
    Total Energy =                       -340.8716901274632392
  Basis Set: CC-PVTZ
  Basis Set:
  Charge       = 0
  Multiplicity = 1
  Basis Set: CC-PVTZ
  Basis Set:

    Orbital Energies (a.u.)
    -----------------------

    Doubly Occupied:

       1A    -15.580600     2A    -15.575914     3A    -11.278759
       4A    -11.271198     5A    -11.269285     6A    -11.267042
       7A    -11.231410     8A    -11.220478     9A     -1.315819
      10A     -1.223868    11A     -1.086775    12A     -1.016176
      13A     -0.905275    14A     -0.897079    15A     -0.831000
      16A     -0.718057    17A     -0.713724    18A     -0.658916
      19A     -0.612162    20A     -0.607110    21A     -0.585954
      22A     -0.564338    23A     -0.524060    24A     -0.509889
      25A     -0.504848    26A     -0.485791    27A     -0.433839
      28A     -0.397786    29A     -0.346450

  @DF-RHF Final Energy:  -340.87169046694731

   => Energetics <=

    Nuclear Repulsion Energy =            350.4311539275622067
    One-Electron Energy =               -1155.3384850960374024
    Two-Electron Energy =                 464.0356407015278819
    DFT Exchange-Correlation Energy =       0.0000000000000000
    Empirical Dispersion Energy =           0.0000000000000000
    PCM Polarization Energy =               0.0000000000000000
    EFP Energy =                            0.0000000000000000
    Total Energy =                       -340.8716904669472569
    Molecular point group: c1
  Basis Set: CC-PVTZ
  Basis Set:

  -Total Gradient:
     Atom            X                  Y                   Z
    ------   -----------------  -----------------  -----------------
       1       -0.000005842416    -0.000000068867     0.000000289029
       2       -0.000022384186    -0.000016486073     0.000024689488
       3       -0.000171671471     0.000082184777    -0.000964300966
       4        0.000001008904    -0.000013262175     0.000013078208
       5        0.000301254863    -0.000204179199     0.001475224902
       6       -0.000000527639    -0.000000292416    -0.000000548321
       7        0.000006608096    -0.000000860995    -0.000022785061
       8        0.000003631240     0.000020950930     0.000028189539
       9       -0.000374019114     0.000633276540    -0.001599188842
      10        0.000006956309    -0.000007966760     0.000022817501
      11        0.000032590229    -0.000024688591     0.000031201860
      12        0.000226681548    -0.000468898794     0.001010505608
      13        0.000001593670    -0.000019975057    -0.000003523646
      14        0.000018246131     0.000001912398    -0.000005725323
      15       -0.000002435992    -0.000004896086    -0.000012270408
      16       -0.000021690169     0.000023250365     0.000002346432

  **** Optimization is complete! (in 6 steps) ****
    Final optimized geometry and variables:
    Molecular point group: c1

    Geometry (in Angstrom), charge = 0, multiplicity = 1:

    H           -1.751045781657    -2.312931175665    -0.018877145642
    C           -1.342097155341    -1.320381375468    -0.028126625500
    N           -0.052570689588    -1.200516182447    -0.276583500172
    C           -2.140723211428    -0.224119409784     0.206255667782
    C            0.456753427720     0.011184447905    -0.290077155856
    H           -3.189408823279    -0.332305628322     0.405773093013
    N           -1.643971127595     0.997671485046     0.188242387492
    C           -0.363525168651     1.113650745672    -0.057221193195
    C            1.931740366681     0.167034089716    -0.553307394179
    H            0.043268408642     2.107781393303    -0.078190016515
    C            2.739745390702     0.398367168446     0.726580210106
    H            2.276645238337    -0.736240833459    -1.036664251925
    H            2.092406625111     0.992453548425    -1.238069243912
    H            3.794642952438     0.490161044873     0.497176238377
    H            2.614555548038    -0.429913083448     1.413491677514
    H            2.427994007687     1.304140396086     1.233942231212

  Mulliken Charges: (a.u.)
   Center  Symbol    Alpha    Beta     Spin     Total
       1     H     0.41363  0.41363  0.00000  0.17275
       2     C     3.04251  3.04251  0.00000 -0.08501
       3     N     3.59517  3.59517  0.00000 -0.19034
       4     C     3.04818  3.04818  0.00000 -0.09636
       5     C     2.93874  2.93874  0.00000  0.12252
       6     H     0.41348  0.41348  0.00000  0.17304
       7     N     3.58698  3.58698  0.00000 -0.17397
       8     C     3.07886  3.07886  0.00000 -0.15771
       9     C     3.08638  3.08638  0.00000 -0.17276
      10     H     0.41468  0.41468  0.00000  0.17064
      11     C     3.14430  3.14430  0.00000 -0.28859
      12     H     0.44110  0.44110  0.00000  0.11779
      13     H     0.44637  0.44637  0.00000  0.10727
      14     H     0.44796  0.44796  0.00000  0.10407
      15     H     0.44810  0.44810  0.00000  0.10380
      16     H     0.45356  0.45356  0.00000  0.09289

   Total alpha = 29.00000, Total beta = 29.00000, Total charge = -0.00000

*** Psi4 exiting successfully. Buy a developer a beer!
