                              Psi4 1.0.54 Driver

  ==> Input File <==

--------------------------------------------------------------------------
set {
	reference rhf
	basis cc-pvtz
}

set_num_threads( 4 )
memory 2 gb

molecule MOL {
0 1

H	 -0.037669	 3.462549	 -0.791004
C	 0.391532	 3.086160	 0.147614
C	 -0.548919	 2.269596	 0.991810
O	 1.510487	 3.341487	 0.430553
C	 -1.216901	 1.136108	 0.207794
H	 -0.005094	 1.895173	 1.849362
H	 -1.314003	 2.953064	 1.353504
C	 -0.247837	 0.040196	 -0.230469
H	 -1.994714	 0.702836	 0.827167
H	 -1.719876	 1.548845	 -0.663330
C	 1.181757	 0.280428	 0.247371
H	 -0.259600	 -0.030819	 -1.314870
H	 -0.591284	 -0.923375	 0.136958
C	 2.151032	 -0.811012	 -0.202643
H	 1.515939	 1.247397	 -0.115449
H	 1.191514	 0.341223	 1.333422
C	 3.580021	 -0.656538	 0.320835
H	 2.170545	 -0.847575	 -1.289412
H	 1.766632	 -1.772905	 0.124928
C	 4.327657	 0.562694	 -0.213579
H	 4.138806	 -1.549270	 0.057813
H	 3.561991	 -0.620783	 1.406976
H	 4.355973	 0.557257	 -1.298551
H	 3.867136	 1.491650	 0.100501
H	 5.351524	 0.571613	 0.142204

	symmetry c1
}
set optking {
	frozen_dihedral = ("
		3 5 8 12
	")
}

ee,wfn = optimize('scf', return_wfn=True)
oeprop( wfn, 'DIPOLE', 'QUADRUPOLE', 'MULLIKEN_CHARGES')
f=open( 'psi4out.xyz', 'w' )
f.write( "25  " )
f.write( str(ee) + "\n" )
f.write( MOL.save_string_xyz() )
f.close()
--------------------------------------------------------------------------

    Molecular point group: c1
  Charge       = 0
  Multiplicity = 1
  Basis Set: CC-PVTZ
  Basis Set:
  @DF-RHF Final Energy:  -387.23893590995260
    Total Energy =                       -387.2389359099523745
    Molecular point group: c1
  Basis Set: CC-PVTZ
  Basis Set:
  Basis Set: CC-PVTZ
  Basis Set:
  @DF-RHF Final Energy:  -387.24578717864557
    Total Energy =                       -387.2457871786451733
  Basis Set: CC-PVTZ
  Basis Set:
  Basis Set: CC-PVTZ
  Basis Set:
  @DF-RHF Final Energy:  -387.24841672908610
    Total Energy =                       -387.2484167290868982
  Basis Set: CC-PVTZ
  Basis Set:
  Basis Set: CC-PVTZ
  Basis Set:
  @DF-RHF Final Energy:  -387.24878123605720
    Total Energy =                       -387.2487812360566295
  Basis Set: CC-PVTZ
  Basis Set:
  @DF-RHF Final Energy:  -387.24939155367224
    Total Energy =                       -387.2493915536722398
  @DF-RHF Final Energy:  -387.24958952383190
    Total Energy =                       -387.2495895238319008
  @DF-RHF Final Energy:  -387.24980696469044
    Total Energy =                       -387.2498069646898102
  @DF-RHF Final Energy:  -387.24980867361268
    Total Energy =                       -387.2498086736118239
  @DF-RHF Final Energy:  -387.24982648612240
    Total Energy =                       -387.2498264861229700
  Basis Set: CC-PVTZ
  Basis Set:
  @DF-RHF Final Energy:  -387.24982841625871
    Total Energy =                       -387.2498284162586515
  Basis Set: CC-PVTZ
  Basis Set:
  Basis Set: CC-PVTZ
  Basis Set:
  @DF-RHF Final Energy:  -387.24983117732319
    Total Energy =                       -387.2498311773229034
  Basis Set: CC-PVTZ
  Basis Set:
  Basis Set: CC-PVTZ
  Basis Set:
  @DF-RHF Final Energy:  -387.24983241223811
    Total Energy =                       -387.2498324122379927
  Basis Set: CC-PVTZ
  Basis Set:
  Charge       = 0
  Multiplicity = 1
  Basis Set: CC-PVTZ
  Basis Set:

    Orbital Energies (a.u.)
    -----------------------

    Doubly Occupied:

       1A    -20.551466     2A    -11.321681     3A    -11.234360
       4A    -11.233376     5A    -11.221513     6A    -11.213743
       7A    -11.212507     8A    -11.211791     9A    -11.202184
      10A     -1.406842    11A     -1.100474    12A     -1.066340
      13A     -1.009357    14A     -0.943533    15A     -0.880530
      16A     -0.816517    17A     -0.787813    18A     -0.773244
      19A     -0.666949    20A     -0.660744    21A     -0.632643
      22A     -0.625006    23A     -0.604801    24A     -0.596780
      25A     -0.565294    26A     -0.548562    27A     -0.540169
      28A     -0.528407    29A     -0.510415    30A     -0.500468
      31A     -0.476561    32A     -0.471773    33A     -0.459476
      34A     -0.453367    35A     -0.442814    36A     -0.410966

  @DF-RHF Final Energy:  -387.24983305131980

   => Energetics <=

    Nuclear Repulsion Energy =            456.0338896976946899
    One-Electron Energy =               -1428.8025089882698921
    Two-Electron Energy =                 585.5187862392555189
    DFT Exchange-Correlation Energy =       0.0000000000000000
    Empirical Dispersion Energy =           0.0000000000000000
    PCM Polarization Energy =               0.0000000000000000
    EFP Energy =                            0.0000000000000000
    Total Energy =                       -387.2498330513196834
    Molecular point group: c1
  Basis Set: CC-PVTZ
  Basis Set:

  -Total Gradient:
     Atom            X                  Y                   Z
    ------   -----------------  -----------------  -----------------
       1       -0.000014238166    -0.000001442759    -0.000004590119
       2        0.000031858889     0.000031163479     0.000015853499
       3       -0.000383194185    -0.000958437930     0.001731997761
       4       -0.000022717567    -0.000030957583    -0.000006056423
       5        0.000143208179     0.000999756738    -0.002512996246
       6        0.000003465334    -0.000003082421     0.000001708361
       7       -0.000014850087    -0.000002877738    -0.000007364523
       8        0.002152730265     0.001797848801     0.000688608621
       9       -0.000006464789     0.000004205577     0.000004174670
      10        0.000004215443     0.000001908403    -0.000000881267
      11        0.000024592264     0.000014351983     0.000002079265
      12       -0.001910421852    -0.001848044916     0.000090548300
      13       -0.000003853461     0.000004163147     0.000000212041
      14        0.000002928851     0.000000056806    -0.000003945978
      15       -0.000001583760    -0.000009864367     0.000000780898
      16        0.000001367100     0.000000748328    -0.000003580029
      17       -0.000006069670     0.000004080421     0.000003163890
      18       -0.000001842821    -0.000000954851    -0.000000415978
      19        0.000000226695     0.000001288224     0.000000844291
      20        0.000000473996    -0.000002623656    -0.000005038102
      21        0.000000389249    -0.000000017353    -0.000000823556
      22        0.000002109585    -0.000000276984     0.000003493677
      23       -0.000000073416     0.000001830210     0.000000048756
      24       -0.000002094157    -0.000001360890     0.000001444910
      25       -0.000000161925    -0.000001460671     0.000000733280

  **** Optimization is complete! (in 13 steps) ****
    Final optimized geometry and variables:
    Molecular point group: c1

    Geometry (in Angstrom), charge = 0, multiplicity = 1:

    H           -1.566286915302     2.545231653480    -1.068636377102
    C           -1.117947538703     2.298060561040    -0.096497322119
    C           -1.897364317246     1.305619590821     0.724089687565
    O           -0.112857473425     2.821232225780     0.240918736581
    C           -2.389377593752     0.087374156278    -0.069393402964
    H           -1.316513547191     1.036509621199     1.593975437592
    H           -2.773669003483     1.847994413026     1.074486007479
    C           -1.353379584378    -1.005853708542    -0.448872511104
    H           -3.172694891985    -0.372839226162     0.519844822791
    H           -2.879504880024     0.444340691539    -0.969542705476
    C            0.070910735753    -0.859346400799     0.086674094380
    H           -1.317563864540    -1.095140100902    -1.529866273954
    H           -1.739582801629    -1.960101379817    -0.105799549107
    C            0.969017272928    -2.009997329114    -0.365460157207
    H            0.498058198390     0.081926408662    -0.234084191471
    H            0.055444922794    -0.834493496671     1.172641285978
    C            2.387961947299    -1.972892045234     0.204904669959
    H            1.021187374920    -2.019350230346    -1.451863310500
    H            0.505464039916    -2.949545776772    -0.076783046761
    C            3.235570382457    -0.795029706612    -0.269869687642
    H            2.890032000962    -2.896175838923    -0.067750305870
    H            2.337255225594    -1.965918818530     1.290561778535
    H            3.299269567077    -0.773646890569    -1.353252614098
    H            2.831357488316     0.155191132223     0.056501639596
    H            4.245366619094    -0.869254087293     0.117266120730

  Mulliken Charges: (a.u.)
   Center  Symbol    Alpha    Beta     Spin     Total
       1     H     0.46366  0.46366  0.00000  0.07268
       2     C     2.90481  2.90481  0.00000  0.19037
       3     C     3.09245  3.09245  0.00000 -0.18491
       4     O     4.16837  4.16837  0.00000 -0.33675
       5     C     3.12123  3.12123  0.00000 -0.24245
       6     H     0.44061  0.44061  0.00000  0.11877
       7     H     0.43515  0.43515  0.00000  0.12970
       8     C     3.09656  3.09656  0.00000 -0.19312
       9     H     0.44073  0.44073  0.00000  0.11854
      10     H     0.44614  0.44614  0.00000  0.10772
      11     C     3.10292  3.10292  0.00000 -0.20584
      12     H     0.44823  0.44823  0.00000  0.10353
      13     H     0.44865  0.44865  0.00000  0.10270
      14     C     3.09523  3.09523  0.00000 -0.19045
      15     H     0.43972  0.43972  0.00000  0.12056
      16     H     0.45258  0.45258  0.00000  0.09483
      17     C     3.08930  3.08930  0.00000 -0.17859
      18     H     0.45427  0.45427  0.00000  0.09146
      19     H     0.44976  0.44976  0.00000  0.10048
      20     C     3.15588  3.15588  0.00000 -0.31177
      21     H     0.44906  0.44906  0.00000  0.10188
      22     H     0.45511  0.45511  0.00000  0.08978
      23     H     0.45580  0.45580  0.00000  0.08839
      24     H     0.44736  0.44736  0.00000  0.10528
      25     H     0.44641  0.44641  0.00000  0.10718

   Total alpha = 36.00000, Total beta = 36.00000, Total charge =  0.00000

*** Psi4 exiting successfully. Buy a developer a beer!
