  ==> Input File <==

--------------------------------------------------------------------------
set {
	reference rhf
	basis 6-31G*
}

set_num_threads( 1 )
memory 2 gb

molecule MOL {
0 1

O	 3.225979	 0.970355	 -0.599647
C	 2.701189	 0.057885	 -0.047330
C	 1.245376	 -0.013843	 0.345420
O	 3.347903	 -1.046386	 0.304773
C	 0.729133	 1.278823	 0.973608
H	 0.688291	 -0.283918	 -0.545596
H	 1.136162	 -0.851857	 1.029161
C	 -0.716740	 1.187678	 1.473247
H	 0.819672	 2.087856	 0.255007
H	 1.375807	 1.542135	 1.803610
C	 -1.768525	 1.003924	 0.375480
H	 -0.941960	 2.099868	 2.020887
H	 -0.800883	 0.375226	 2.193560
C	 -3.200643	 1.029146	 0.913439
H	 -1.650108	 1.790192	 -0.368549
H	 -1.605807	 0.063212	 -0.145630
C	 -4.260006	 0.841203	 -0.174016
H	 -3.376054	 1.973816	 1.425362
H	 -3.316665	 0.250051	 1.665270
C	 -5.687518	 0.871470	 0.370955
H	 -4.144862	 1.618325	 -0.926655
H	 -4.088950	 -0.104567	 -0.683957
H	 -6.415155	 0.735662	 -0.423217
H	 -5.901563	 1.819179	 0.856987
H	 -5.844929	 0.083376	 1.101984
C	 4.728119	 -1.109107	 -0.004993
H	 4.882018	 -1.033965	 -1.071845
H	 5.068212	 -2.067527	 0.355250
H	 5.265056	 -0.311663	 0.488280

	symmetry c1
}
set optking {
	frozen_dihedral = ("
		21 17 14 11,
		17 14 11 15,
		15 11 8 5,
		6 3 5 9,
		11 8 5 9,
		2 4 26 27,
		1 2 4 26
	")
}

ee = energy('scf')
oeprop('DIPOLE', 'QUADRUPOLE', 'MULLIKEN_CHARGES')
f=open( 'psi4out.xyz', 'w' )
f.write( "29  " )
f.write( str(ee) + "\n" )
f.write( MOL.save_string_xyz() )
f.close()
--------------------------------------------------------------------------

    Molecular point group: c1

    Geometry (in Angstrom), charge = 0, multiplicity = 1:

       Center              X                  Y                   Z               Mass
    ------------   -----------------  -----------------  -----------------  -----------------
           O          3.153924241086     0.525077645821    -0.948053798339    15.994914619560
           C          2.629134241086    -0.387392354179    -0.395736798339    12.000000000000
           C          1.173321241086    -0.459120354179    -0.002986798339    12.000000000000
           O          3.275848241086    -1.491663354179    -0.043633798339    15.994914619560
           C          0.657078241086     0.833545645821     0.625201201661    12.000000000000
           H          0.616236241086    -0.729195354179    -0.894002798339     1.007825032070
           H          1.064107241086    -1.297134354179     0.680754201661     1.007825032070
           C         -0.788794758914     0.742400645821     1.124840201661    12.000000000000
           H          0.747617241086     1.642578645821    -0.093399798339     1.007825032070
           H          1.303752241086     1.096857645821     1.455203201661     1.007825032070
           C         -1.840579758914     0.558646645821     0.027073201661    12.000000000000
           H         -1.014014758914     1.654590645821     1.672480201661     1.007825032070
           H         -0.872937758914    -0.070051354179     1.845153201661     1.007825032070
           C         -3.272697758914     0.583868645821     0.565032201661    12.000000000000
           H         -1.722162758914     1.344914645821    -0.716955798339     1.007825032070
           H         -1.677861758914    -0.382065354179    -0.494036798339     1.007825032070
           C         -4.332060758914     0.395925645821    -0.522422798339    12.000000000000
           H         -3.448108758914     1.528538645821     1.076955201661     1.007825032070
           H         -3.388719758914    -0.195226354179     1.316863201661     1.007825032070
           C         -5.759572758914     0.426192645821     0.022548201661    12.000000000000
           H         -4.216916758914     1.173047645821    -1.275061798339     1.007825032070
           H         -4.161004758914    -0.549844354179    -1.032363798339     1.007825032070
           H         -6.487209758914     0.290384645821    -0.771623798339     1.007825032070
           H         -5.973617758914     1.373901645821     0.508580201661     1.007825032070
           H         -5.916983758914    -0.361901354179     0.753577201661     1.007825032070
           C          4.656064241086    -1.554384354179    -0.353399798339    12.000000000000
           H          4.809963241086    -1.479242354179    -1.420251798339     1.007825032070
           H          4.996157241086    -2.512804354179     0.006843201661     1.007825032070
           H          5.193001241086    -0.756940354179     0.139873201661     1.007825032070

  Charge       = 0
  Multiplicity = 1
  Basis Set: 6-31G*
  Basis Set:

    Orbital Energies (a.u.)
    -----------------------

    Doubly Occupied:

       1A    -20.604605     2A    -20.543423     3A    -11.371501
       4A    -11.280243     5A    -11.233258     6A    -11.223822
       7A    -11.219567     8A    -11.216739     9A    -11.216118
      10A    -11.215007    11A    -11.209230    12A     -1.468952
      13A     -1.361741    14A     -1.099384    15A     -1.067533
      16A     -1.019703    17A     -0.977166    18A     -0.929179
      19A     -0.862914    20A     -0.799786    21A     -0.790975
      22A     -0.766878    23A     -0.699057    24A     -0.680869
      25A     -0.671934    26A     -0.651744    27A     -0.627825
      28A     -0.604330    29A     -0.593557    30A     -0.580220
      31A     -0.572232    32A     -0.543407    33A     -0.539698
      34A     -0.531068    35A     -0.518118    36A     -0.511310
      37A     -0.496026    38A     -0.478318    39A     -0.470571
      40A     -0.462723    41A     -0.460920    42A     -0.454365
      43A     -0.445347    44A     -0.430587

  @DF-RHF Final Energy:  -501.04254351739178

   => Energetics <=

    Nuclear Repulsion Energy =            609.9313711162176332
    One-Electron Energy =               -1890.9439172175436852
    Two-Electron Energy =                 779.9700025839326827
    DFT Exchange-Correlation Energy =       0.0000000000000000
    Empirical Dispersion Energy =           0.0000000000000000
    PCM Polarization Energy =               0.0000000000000000
    EFP Energy =                            0.0000000000000000
    Total Energy =                       -501.0425435173933693

  Mulliken Charges: (a.u.)
   Center  Symbol    Alpha    Beta     Spin     Total
       1     O     4.28630  4.28630  0.00000 -0.57261
       2     C     2.60537  2.60537  0.00000  0.78927
       3     C     3.21021  3.21021  0.00000 -0.42041
       4     O     4.30509  4.30509  0.00000 -0.61018
       5     C     3.15903  3.15903  0.00000 -0.31807
       6     H     0.39868  0.39868  0.00000  0.20263
       7     H     0.40093  0.40093  0.00000  0.19815
       8     C     3.15570  3.15570  0.00000 -0.31141
       9     H     0.40633  0.40633  0.00000  0.18734
      10     H     0.41487  0.41487  0.00000  0.17027
      11     C     3.15513  3.15513  0.00000 -0.31026
      12     H     0.41819  0.41819  0.00000  0.16362
      13     H     0.42285  0.42285  0.00000  0.15431
      14     C     3.15048  3.15048  0.00000 -0.30097
      15     H     0.42137  0.42137  0.00000  0.15726
      16     H     0.42339  0.42339  0.00000  0.15322
      17     C     3.15155  3.15155  0.00000 -0.30311
      18     H     0.42334  0.42334  0.00000  0.15331
      19     H     0.42392  0.42392  0.00000  0.15215
      20     C     3.23940  3.23940  0.00000 -0.47880
      21     H     0.42244  0.42244  0.00000  0.15512
      22     H     0.42330  0.42330  0.00000  0.15339
      23     H     0.41907  0.41907  0.00000  0.16186
      24     H     0.42155  0.42155  0.00000  0.15690
      25     H     0.42185  0.42185  0.00000  0.15630
      26     C     3.09327  3.09327  0.00000 -0.18655
      27     H     0.40897  0.40897  0.00000  0.18207
      28     H     0.40855  0.40855  0.00000  0.18290
      29     H     0.40885  0.40885  0.00000  0.18230

   Total alpha = 44.00000, Total beta = 44.00000, Total charge =  0.00000
