  ==> Input File <==

--------------------------------------------------------------------------
set {
	reference rhf
	basis 6-31G*
}

set_num_threads( 4 )
memory 2 gb

molecule MOL {
0 1

H	 -2.646374	 -0.642757	 1.268656
C	 -2.083525	 -0.384536	 0.393091
O	 -0.807605	 -0.127164	 0.768327
F	 -2.118945	 -1.383102	 -0.486752
F	 -2.621877	 0.670592	 -0.209486
C	 0.084052	 0.273579	 -0.209957
C	 1.397891	 -0.446890	 0.063743
Cl	 0.315642	 2.029185	 -0.172129
H	 -0.247066	 0.009245	 -1.199028
F	 2.296964	 -0.122633	 -0.841058
F	 1.192561	 -1.746778	 -0.010885
F	 1.875909	 -0.169647	 1.252275

	symmetry c1
}
set optking {
	frozen_dihedral = ("
		9 6 3 2
	")
}

ee = optimize('scf')
oeprop('DIPOLE', 'QUADRUPOLE', 'MULLIKEN_CHARGES')
f=open( 'psi4out.xyz', 'w' )
f.write( "12  " )
f.write( str(ee) + "\n" )
f.write( MOL.save_string_xyz() )
f.close()
--------------------------------------------------------------------------

    Molecular point group: c1
  Charge       = 0
  Multiplicity = 1
  Basis Set: 6-31G*
  Basis Set:
  @DF-RHF Final Energy: -1146.31430672690385
    Total Energy =                      -1146.3143067269036237
    Molecular point group: c1
  Basis Set: 6-31G*
  Basis Set:
  Basis Set: 6-31G*
  Basis Set:
  @DF-RHF Final Energy: -1146.31432882965964
    Total Energy =                      -1146.3143288296598712
  Basis Set: 6-31G*
  Basis Set:
  Basis Set: 6-31G*
  Basis Set:
  @DF-RHF Final Energy: -1146.31433200957190
    Total Energy =                      -1146.3143320095714444
  Basis Set: 6-31G*
  Basis Set:
  Charge       = 0
  Multiplicity = 1
  Basis Set: 6-31G*
  Basis Set:

    Orbital Energies (a.u.)
    -----------------------

    Doubly Occupied:

       1A   -104.843347     2A    -26.359857     3A    -26.358373
       4A    -26.357502     5A    -26.346422     6A    -26.345930
       7A    -20.649912     8A    -11.527526     9A    -11.489598
      10A    -11.400767    11A    -10.578105    12A     -8.047466
      13A     -8.043921    14A     -8.043832    15A     -1.760939
      16A     -1.717750    17A     -1.657425    18A     -1.655964
      19A     -1.638390    20A     -1.486052    21A     -1.179626
      22A     -1.052412    23A     -0.986275    24A     -0.919406
      25A     -0.859817    26A     -0.852140    27A     -0.845329
      28A     -0.822855    29A     -0.810740    30A     -0.789866
      31A     -0.727266    32A     -0.726289    33A     -0.706412
      34A     -0.701326    35A     -0.678519    36A     -0.674789
      37A     -0.658155    38A     -0.657363    39A     -0.645631
      40A     -0.634090    41A     -0.597273    42A     -0.580268
      43A     -0.523986    44A     -0.476428    45A     -0.468651

  @DF-RHF Final Energy: -1146.31433249401471

   => Energetics <=

    Nuclear Repulsion Energy =            737.6346665453535252
    One-Electron Energy =               -3058.1300071722416760
    Two-Electron Energy =                1174.1810081328731030
    DFT Exchange-Correlation Energy =       0.0000000000000000
    Empirical Dispersion Energy =           0.0000000000000000
    PCM Polarization Energy =               0.0000000000000000
    EFP Energy =                            0.0000000000000000
    Total Energy =                      -1146.3143324940151615
    Molecular point group: c1
  Basis Set: 6-31G*
  Basis Set:

  -Total Gradient:
     Atom            X                  Y                   Z
    ------   -----------------  -----------------  -----------------
       1       -0.000037970460     0.000024779467    -0.000013886796
       2       -0.000193666227     0.000601622278     0.000174204310
       3        0.000261666218    -0.000967622651    -0.000074944802
       4        0.000025171337     0.000007238004     0.000005407350
       5       -0.000127791563    -0.000046015749    -0.000028323122
       6       -0.000522009066     0.001010071897     0.000007480549
       7        0.000086712853    -0.000028013865    -0.000012411610
       8        0.000055437355    -0.000181440566    -0.000027750928
       9        0.000347718805    -0.000523398415     0.000009892775
      10        0.000110935086     0.000070096810    -0.000048759070
      11       -0.000007481262     0.000036991721    -0.000021919565
      12        0.000001276938    -0.000004308980     0.000031010916

  **** Optimization is complete! (in 4 steps) ****
    Final optimized geometry and variables:
    Molecular point group: c1

    Geometry (in Angstrom), charge = 0, multiplicity = 1:

    H           -2.642582943609    -0.690863669158     1.253553421839
    C           -2.083221425705    -0.435901507280     0.374835228696
    O           -0.806809133097    -0.172376497314     0.745725220437
    F           -2.115376062482    -1.441967945693    -0.497121002742
    F           -2.628992916357     0.610688780356    -0.234225747946
    C            0.084144285316     0.230586302839    -0.231558273963
    C            1.394571316403    -0.496758449784     0.043727308889
    CL           0.328988351533     1.984627091228    -0.194463508420
    H           -0.245772021390    -0.036048407372    -1.220729144028
    F            2.299183257317    -0.170238491395    -0.854529116824
    F            1.185779580642    -1.795364062476    -0.040225836093
    F            1.868169108274    -0.228925255704     1.236343803555

  Mulliken Charges: (a.u.)
   Center  Symbol    Alpha    Beta     Spin     Total
       1     H     0.40139  0.40139  0.00000  0.19722
       2     C     2.56449  2.56449  0.00000  0.87102
       3     O     4.29924  4.29924  0.00000 -0.59848
       4     F     4.68651  4.68651  0.00000 -0.37302
       5     F     4.68360  4.68360  0.00000 -0.36720
       6     C     3.04596  3.04596  0.00000 -0.09192
       7     C     2.43337  2.43337  0.00000  1.13326
       8    CL     8.49985  8.49985  0.00000  0.00030
       9     H     0.36717  0.36717  0.00000  0.26565
      10     F     4.67399  4.67399  0.00000 -0.34797
      11     F     4.67589  4.67589  0.00000 -0.35178
      12     F     4.66854  4.66854  0.00000 -0.33708

   Total alpha = 45.00000, Total beta = 45.00000, Total charge =  0.00000
