  ==> Input File <==

--------------------------------------------------------------------------
set {
	reference rhf
	basis 6-31G*
}

set_num_threads( 1 )
memory 2 gb

molecule MOL {
0 1

O	 3.225979	 0.970355	 -0.599647
C	 2.701189	 0.057885	 -0.047330
C	 1.245376	 -0.013843	 0.345420
O	 3.347903	 -1.046386	 0.304773
C	 0.455112	 1.231400	 -0.050772
H	 0.838542	 -0.913825	 -0.103701
H	 1.208210	 -0.175333	 1.419774
C	 -0.998893	 1.219485	 0.433193
H	 0.482531	 1.345121	 -1.130325
H	 0.957290	 2.103070	 0.354729
C	 -1.883438	 0.145884	 -0.207175
H	 -1.431207	 2.195402	 0.224832
H	 -1.019646	 1.105716	 1.516076
C	 -3.347647	 0.245583	 0.225435
H	 -1.822183	 0.231698	 -1.291012
H	 -1.510341	 -0.844814	 0.042401
C	 -3.988288	 -1.113259	 0.513984
H	 -3.918194	 0.753430	 -0.550325
H	 -3.418864	 0.871264	 1.113776
C	 -5.451540	 -1.005159	 0.941662
H	 -3.917092	 -1.740113	 -0.372372
H	 -3.421937	 -1.620560	 1.292234
H	 -5.877457	 -1.984067	 1.138994
H	 -6.051894	 -0.532995	 0.169113
H	 -5.552873	 -0.412000	 1.846188
C	 4.728119	 -1.109107	 -0.004993
H	 4.882018	 -1.033965	 -1.071845
H	 5.068212	 -2.067527	 0.355250
H	 5.265056	 -0.311663	 0.488280

	symmetry c1
}
set optking {
	frozen_dihedral = ("
		21 17 14 11,
		15 11 8 5,
		6 3 5 9,
		11 8 5 9,
		2 4 26 27,
		1 2 4 26,
		6 3 2 1
	")
}

ee = energy('scf')
oeprop('DIPOLE', 'QUADRUPOLE', 'MULLIKEN_CHARGES')
f=open( 'psi4out.xyz', 'w' )
f.write( "29  " )
f.write( str(ee) + "\n" )
f.write( MOL.save_string_xyz() )
f.close()
--------------------------------------------------------------------------

    Molecular point group: c1

    Geometry (in Angstrom), charge = 0, multiplicity = 1:

       Center              X                  Y                   Z               Mass
    ------------   -----------------  -----------------  -----------------  -----------------
           O          3.179952637256     1.023251511260    -0.767617282086    15.994914619560
           C          2.655162637256     0.110781511260    -0.215300282086    12.000000000000
           C          1.199349637256     0.039053511260     0.177449717914    12.000000000000
           O          3.301876637256    -0.993489488740     0.136802717914    15.994914619560
           C          0.409085637256     1.284296511260    -0.218742282086    12.000000000000
           H          0.792515637256    -0.860928488740    -0.271671282086     1.007825032070
           H          1.162183637256    -0.122436488740     1.251803717914     1.007825032070
           C         -1.044919362744     1.272381511260     0.265222717914    12.000000000000
           H          0.436504637256     1.398017511260    -1.298295282086     1.007825032070
           H          0.911263637256     2.155966511260     0.186758717914     1.007825032070
           C         -1.929464362744     0.198780511260    -0.375145282086    12.000000000000
           H         -1.477233362744     2.248298511260     0.056861717914     1.007825032070
           H         -1.065672362744     1.158612511260     1.348105717914     1.007825032070
           C         -3.393673362744     0.298479511260     0.057464717914    12.000000000000
           H         -1.868209362744     0.284594511260    -1.458982282086     1.007825032070
           H         -1.556367362744    -0.791917488740    -0.125569282086     1.007825032070
           C         -4.034314362744    -1.060362488740     0.346013717914    12.000000000000
           H         -3.964220362744     0.806326511260    -0.718295282086     1.007825032070
           H         -3.464890362744     0.924160511260     0.945805717914     1.007825032070
           C         -5.497566362744    -0.952262488740     0.773691717914    12.000000000000
           H         -3.963118362744    -1.687216488740    -0.540342282086     1.007825032070
           H         -3.467963362744    -1.567663488740     1.124263717914     1.007825032070
           H         -5.923483362744    -1.931170488740     0.971023717914     1.007825032070
           H         -6.097920362744    -0.480098488740     0.001142717914     1.007825032070
           H         -5.598899362744    -0.359103488740     1.678217717914     1.007825032070
           C          4.682092637256    -1.056210488740    -0.172963282086    12.000000000000
           H          4.835991637256    -0.981068488740    -1.239815282086     1.007825032070
           H          5.022185637256    -2.014630488740     0.187279717914     1.007825032070
           H          5.219029637256    -0.258766488740     0.320309717914     1.007825032070

  Charge       = 0
  Multiplicity = 1
  Basis Set: 6-31G*
  Basis Set:

    Orbital Energies (a.u.)
    -----------------------

    Doubly Occupied:

       1A    -20.603338     2A    -20.545095     3A    -11.371923
       4A    -11.280620     5A    -11.234649     6A    -11.218740
       7A    -11.217893     8A    -11.216293     9A    -11.214705
      10A    -11.213207    11A    -11.208788    12A     -1.469003
      13A     -1.362431    14A     -1.098142    15A     -1.066698
      16A     -1.019254    17A     -0.977107    18A     -0.928450
      19A     -0.861243    20A     -0.801597    21A     -0.789843
      22A     -0.763930    23A     -0.700313    24A     -0.682225
      25A     -0.672038    26A     -0.643760    27A     -0.630800
      28A     -0.608637    29A     -0.594498    30A     -0.580670
      31A     -0.565885    32A     -0.552904    33A     -0.535118
      34A     -0.527094    35A     -0.517789    36A     -0.508852
      37A     -0.495792    38A     -0.477392    39A     -0.473660
      40A     -0.459947    41A     -0.456493    42A     -0.454607
      43A     -0.440799    44A     -0.434929

  @DF-RHF Final Energy:  -501.03971785237889

   => Energetics <=

    Nuclear Repulsion Energy =            611.9142829547782867
    One-Electron Energy =               -1894.9531195633558127
    Two-Electron Energy =                 781.9991187562004598
    DFT Exchange-Correlation Energy =       0.0000000000000000
    Empirical Dispersion Energy =           0.0000000000000000
    PCM Polarization Energy =               0.0000000000000000
    EFP Energy =                            0.0000000000000000
    Total Energy =                       -501.0397178523771800

  Mulliken Charges: (a.u.)
   Center  Symbol    Alpha    Beta     Spin     Total
       1     O     4.28597  4.28597  0.00000 -0.57194
       2     C     2.60480  2.60480  0.00000  0.79040
       3     C     3.20964  3.20964  0.00000 -0.41928
       4     O     4.30747  4.30747  0.00000 -0.61494
       5     C     3.15434  3.15434  0.00000 -0.30868
       6     H     0.39871  0.39871  0.00000  0.20258
       7     H     0.40137  0.40137  0.00000  0.19727
       8     C     3.15908  3.15908  0.00000 -0.31815
       9     H     0.41311  0.41311  0.00000  0.17377
      10     H     0.40888  0.40888  0.00000  0.18224
      11     C     3.15684  3.15684  0.00000 -0.31368
      12     H     0.41762  0.41762  0.00000  0.16477
      13     H     0.42366  0.42366  0.00000  0.15268
      14     C     3.15223  3.15223  0.00000 -0.30446
      15     H     0.42058  0.42058  0.00000  0.15884
      16     H     0.42157  0.42157  0.00000  0.15686
      17     C     3.15373  3.15373  0.00000 -0.30745
      18     H     0.42111  0.42111  0.00000  0.15778
      19     H     0.42169  0.42169  0.00000  0.15661
      20     C     3.23986  3.23986  0.00000 -0.47973
      21     H     0.42263  0.42263  0.00000  0.15475
      22     H     0.42332  0.42332  0.00000  0.15335
      23     H     0.41942  0.41942  0.00000  0.16116
      24     H     0.42156  0.42156  0.00000  0.15688
      25     H     0.42167  0.42167  0.00000  0.15666
      26     C     3.09240  3.09240  0.00000 -0.18480
      27     H     0.40909  0.40909  0.00000  0.18183
      28     H     0.40853  0.40853  0.00000  0.18294
      29     H     0.40913  0.40913  0.00000  0.18174

   Total alpha = 44.00000, Total beta = 44.00000, Total charge =  0.00000
