  ==> Input File <==

--------------------------------------------------------------------------
set {
	reference rhf
	basis 6-31G*
}

set_num_threads( 1 )
memory 2 gb

molecule MOL {
0 1

H	 1.824617	 -1.513360	 -0.179748
O	 1.654024	 -0.625927	 -0.460906
C	 1.135793	 0.118896	 0.612333
C	 0.031547	 1.023609	 0.088541
H	 1.915668	 0.729681	 1.063582
H	 0.754543	 -0.542641	 1.387006
C	 -1.134819	 0.293262	 -0.585751
H	 0.474374	 1.714721	 -0.623187
H	 -0.338529	 1.620940	 0.920081
C	 -1.917817	 -0.639439	 0.339494
H	 -0.758119	 -0.268455	 -1.433105
H	 -1.813832	 1.041889	 -0.986690
H	 -2.777680	 -1.057197	 -0.174994
H	 -1.310268	 -1.471279	 0.680599
H	 -2.283753	 -0.111424	 1.216626

	symmetry c1
}
set optking {
	frozen_dihedral = ("
		8 4 7 11,
		2 3 4 8
	")
}

ee = energy('scf')
oeprop('DIPOLE', 'QUADRUPOLE', 'MULLIKEN_CHARGES')
f=open( 'psi4out.xyz', 'w' )
f.write( "15  " )
f.write( str(ee) + "\n" )
f.write( MOL.save_string_xyz() )
f.close()
--------------------------------------------------------------------------

    Molecular point group: c1

    Geometry (in Angstrom), charge = 0, multiplicity = 1:

       Center              X                  Y                   Z               Mass
    ------------   -----------------  -----------------  -----------------  -----------------
           H          1.831560237010    -1.509151729409    -0.179316751012     1.007825032070
           O          1.660967237010    -0.621718729409    -0.460474751012    15.994914619560
           C          1.142736237010     0.123104270591     0.612764248988    12.000000000000
           C          0.038490237010     1.027817270591     0.088972248988    12.000000000000
           H          1.922611237010     0.733889270591     1.064013248988     1.007825032070
           H          0.761486237010    -0.538432729409     1.387437248988     1.007825032070
           C         -1.127875762990     0.297470270591    -0.585319751012    12.000000000000
           H          0.481317237010     1.718929270591    -0.622755751012     1.007825032070
           H         -0.331585762990     1.625148270591     0.920512248988     1.007825032070
           C         -1.910873762990    -0.635230729409     0.339925248988    12.000000000000
           H         -0.751175762990    -0.264246729409    -1.432673751012     1.007825032070
           H         -1.806888762990     1.046097270591    -0.986258751012     1.007825032070
           H         -2.770736762990    -1.052988729409    -0.174562751012     1.007825032070
           H         -1.303324762990    -1.467070729409     0.681030248988     1.007825032070
           H         -2.276809762990    -0.107215729409     1.217057248988     1.007825032070

  Charge       = 0
  Multiplicity = 1
  Basis Set: 6-31G*
  Basis Set:

    Orbital Energies (a.u.)
    -----------------------

    Doubly Occupied:

       1A    -20.553320     2A    -11.267773     3A    -11.211351
       4A    -11.210000     5A    -11.208132     6A     -1.360439
       7A     -1.064461     8A     -0.971587     9A     -0.870480
      10A     -0.774982    11A     -0.705539    12A     -0.647642
      13A     -0.608688    14A     -0.577543    15A     -0.561833
      16A     -0.535633    17A     -0.508097    18A     -0.477722
      19A     -0.467704    20A     -0.455035    21A     -0.427797

  @DF-RHF Final Energy:  -232.14233004630614

   => Energetics <=

    Nuclear Repulsion Energy =            192.1594430921496155
    One-Electron Energy =                -695.6720970769092673
    Two-Electron Energy =                 271.3703239384527137
    DFT Exchange-Correlation Energy =       0.0000000000000000
    Empirical Dispersion Energy =           0.0000000000000000
    PCM Polarization Energy =               0.0000000000000000
    EFP Energy =                            0.0000000000000000
    Total Energy =                       -232.1423300463069381

  Mulliken Charges: (a.u.)
   Center  Symbol    Alpha    Beta     Spin     Total
       1     H     0.27963  0.27963  0.00000  0.44074
       2     O     4.36999  4.36999  0.00000 -0.73998
       3     C     3.00085  3.00085  0.00000 -0.00170
       4     C     3.15936  3.15936  0.00000 -0.31872
       5     H     0.42439  0.42439  0.00000  0.15122
       6     H     0.43096  0.43096  0.00000  0.13808
       7     C     3.15438  3.15438  0.00000 -0.30876
       8     H     0.41405  0.41405  0.00000  0.17190
       9     H     0.42610  0.42610  0.00000  0.14779
      10     C     3.24227  3.24227  0.00000 -0.48454
      11     H     0.40925  0.40925  0.00000  0.18150
      12     H     0.42210  0.42210  0.00000  0.15579
      13     H     0.41834  0.41834  0.00000  0.16332
      14     H     0.42484  0.42484  0.00000  0.15033
      15     H     0.42350  0.42350  0.00000  0.15301

   Total alpha = 21.00000, Total beta = 21.00000, Total charge =  0.00000
