  ==> Input File <==

--------------------------------------------------------------------------
set {
	reference rhf
	basis 6-31G*
}

set_num_threads( 4 )
memory 2 gb

molecule MOL {
0 1

H	 -2.796798	 -2.009327	 0.940646
C	 -3.044516	 -1.328810	 0.116538
C	 -2.742809	 0.124901	 0.377898
O	 -3.515111	 -1.754032	 -0.888189
C	 -1.298856	 0.351272	 0.846952
H	 -2.962199	 0.687055	 -0.522412
H	 -3.428501	 0.459064	 1.155597
C	 -0.252658	 0.041456	 -0.226725
H	 -1.197612	 1.385749	 1.161422
H	 -1.107322	 -0.253988	 1.731674
C	 1.180775	 0.282413	 0.250794
H	 -0.450993	 0.653680	 -1.104046
H	 -0.353003	 -0.992170	 -0.552437
C	 2.148627	 -0.814315	 -0.201312
H	 1.516199	 1.249228	 -0.115937
H	 1.192670	 0.346017	 1.338083
C	 3.580890	 -0.659131	 0.322722
H	 2.166869	 -0.852443	 -1.289387
H	 1.762857	 -1.776509	 0.128956
C	 4.324889	 0.564933	 -0.213704
H	 4.142010	 -1.551473	 0.056605
H	 3.564836	 -0.624694	 1.410140
H	 4.342616	 0.565491	 -1.300421
H	 3.866655	 1.493402	 0.110242
H	 5.353900	 0.572371	 0.132816

	symmetry c1
}
set optking {
	frozen_dihedral = ("
		12 8 11 14
	")
}

ee = optimize('scf')
oeprop('DIPOLE', 'QUADRUPOLE', 'MULLIKEN_CHARGES')
f=open( 'psi4out.xyz', 'w' )
f.write( "25  " )
f.write( str(ee) + "\n" )
f.write( MOL.save_string_xyz() )
f.close()
--------------------------------------------------------------------------

    Molecular point group: c1
  Charge       = 0
  Multiplicity = 1
  Basis Set: 6-31G*
  Basis Set:
  @DF-RHF Final Energy:  -387.11756483748479
    Total Energy =                       -387.1175648374844513
    Molecular point group: c1
  Basis Set: 6-31G*
  Basis Set:
  Basis Set: 6-31G*
  Basis Set:
  @DF-RHF Final Energy:  -387.11757912239727
    Total Energy =                       -387.1175791223978422
  Basis Set: 6-31G*
  Basis Set:
  Basis Set: 6-31G*
  Basis Set:
  @DF-RHF Final Energy:  -387.11462006776742
    Total Energy =                       -387.1146200677675324
  Basis Set: 6-31G*
  Basis Set:
  Basis Set: 6-31G*
  Basis Set:
  @DF-RHF Final Energy:  -387.11782964548081
    Total Energy =                       -387.1178296454804695
  Basis Set: 6-31G*
  Basis Set:
  @DF-RHF Final Energy:  -387.11790459665997
    Total Energy =                       -387.1179045966597414
  @DF-RHF Final Energy:  -387.11788885717715
    Total Energy =                       -387.1178888571777179
  @DF-RHF Final Energy:  -387.11785650168156
    Total Energy =                       -387.1178565016818993
  @DF-RHF Final Energy:  -387.11791356611207
    Total Energy =                       -387.1179135661119517
  Basis Set: 6-31G*
  Basis Set:
  @DF-RHF Final Energy:  -387.11791026116134
    Total Energy =                       -387.1179102611610006
  Basis Set: 6-31G*
  Basis Set:
  Basis Set: 6-31G*
  Basis Set:
  @DF-RHF Final Energy:  -387.11791361927664
    Total Energy =                       -387.1179136192763508
  Basis Set: 6-31G*
  Basis Set:
  Basis Set: 6-31G*
  Basis Set:
  @DF-RHF Final Energy:  -387.11791469428590
    Total Energy =                       -387.1179146942860143
  Basis Set: 6-31G*
  Basis Set:
  Charge       = 0
  Multiplicity = 1
  Basis Set: 6-31G*
  Basis Set:

    Orbital Energies (a.u.)
    -----------------------

    Doubly Occupied:

       1A    -20.561987     2A    -11.326142     3A    -11.235395
       4A    -11.234448     5A    -11.223777     6A    -11.219664
       7A    -11.218164     8A    -11.217481     9A    -11.210624
      10A     -1.401909    11A     -1.102814    12A     -1.069601
      13A     -1.012014    14A     -0.942527    15A     -0.875275
      16A     -0.821013    17A     -0.787696    18A     -0.782595
      19A     -0.664655    20A     -0.658721    21A     -0.631588
      22A     -0.625515    23A     -0.602659    24A     -0.590735
      25A     -0.580876    26A     -0.551332    27A     -0.534189
      28A     -0.524673    29A     -0.508252    30A     -0.496134
      31A     -0.491211    32A     -0.479283    33A     -0.461858
      34A     -0.457623    35A     -0.441113    36A     -0.409459

  @DF-RHF Final Energy:  -387.11791493832339

   => Energetics <=

    Nuclear Repulsion Energy =            439.5500910052039103
    One-Electron Energy =               -1395.4300116543804506
    Two-Electron Energy =                 568.7620057108526908
    DFT Exchange-Correlation Energy =       0.0000000000000000
    Empirical Dispersion Energy =           0.0000000000000000
    PCM Polarization Energy =               0.0000000000000000
    EFP Energy =                            0.0000000000000000
    Total Energy =                       -387.1179149383237927
    Molecular point group: c1
  Basis Set: 6-31G*
  Basis Set:

  -Total Gradient:
     Atom            X                  Y                   Z
    ------   -----------------  -----------------  -----------------
       1       -0.000002041604    -0.000017584589    -0.000013626967
       2       -0.000010581436     0.000017116087    -0.000001980418
       3        0.000019214615     0.000012201936    -0.000000089566
       4       -0.000000631004    -0.000024300336     0.000006851397
       5       -0.000008693194     0.000017774054     0.000005951353
       6       -0.000000560332     0.000000440636     0.000000968815
       7        0.000004064415     0.000008345542     0.000001963499
       8        0.001274354461    -0.003845617227    -0.001815722464
       9       -0.000009885461     0.000001808531     0.000002826919
      10        0.000010281096     0.000000942738     0.000003488905
      11        0.000434180027     0.002599262186    -0.002559417961
      12       -0.001181798890     0.002639861751     0.002163656642
      13       -0.000007239491    -0.000013202738    -0.000002642875
      14       -0.000506980291    -0.001398690925     0.002195838924
      15        0.000006424208     0.000022125541     0.000024902844
      16        0.000000129603    -0.000015970539    -0.000012523225
      17        0.000002426624    -0.000002697240    -0.000009037223
      18        0.000002682450     0.000005636446     0.000007547966
      19       -0.000007197516    -0.000012684509    -0.000002941965
      20       -0.000009417638     0.000002403298     0.000001502134
      21       -0.000002881121     0.000000696946    -0.000002664010
      22       -0.000000084699    -0.000002014616     0.000000783647
      23       -0.000000104541    -0.000002028019     0.000004418291
      24       -0.000005032455     0.000007093002    -0.000002926616
      25       -0.000000627820    -0.000000917958     0.000002871954

  **** Optimization is complete! (in 12 steps) ****
    Final optimized geometry and variables:
    Molecular point group: c1

    Geometry (in Angstrom), charge = 0, multiplicity = 1:

    H           -2.929495901959    -1.638935588218     0.866609743406
    C           -3.135943419911    -0.938564168627     0.047646792541
    C           -2.794135404510     0.500672017539     0.338611452722
    O           -3.601112136542    -1.333265399365    -0.972020395925
    C           -1.350773266717     0.673831483212     0.830923318770
    H           -2.983316448014     1.084218832582    -0.555018820456
    H           -3.480119539092     0.842847864397     1.112476610382
    C           -0.296987117033     0.346259307736    -0.232806837631
    H           -1.220140034648     1.699939154010     1.162938727061
    H           -1.190150482854     0.049705444426     1.708451506548
    C            1.142710187889     0.597861988560     0.257495453333
    H           -0.502103265127     0.964032617782    -1.103118861260
    H           -0.408687596253    -0.687324878057    -0.550621403503
    C            2.132383444532    -0.478965168080    -0.197882829111
    H            1.468916186468     1.579704447106    -0.069999904117
    H            1.153861394342     0.626049756054     1.345927321030
    C            3.568757940487    -0.278935544024     0.297713571193
    H            2.132955474097    -0.536857944660    -1.285476393948
    H            1.773817089018    -1.443281585902     0.155781509346
    C            4.279926349932     0.941676705437    -0.289551669064
    H            4.143781318189    -1.168154500394     0.051660437043
    H            3.568363399541    -0.209800666216     1.383843738526
    H            4.287842931091     0.902993102484    -1.375484359982
    H            3.804337048897     1.871306438211     0.004949935791
    H            5.311516497478     0.984477913399     0.045988373069

  Mulliken Charges: (a.u.)
   Center  Symbol    Alpha    Beta     Spin     Total
       1     H     0.43269  0.43269  0.00000  0.13462
       2     C     2.83079  2.83079  0.00000  0.33841
       3     C     3.20880  3.20880  0.00000 -0.41759
       4     O     4.23773  4.23773  0.00000 -0.47546
       5     C     3.16836  3.16836  0.00000 -0.33673
       6     H     0.39985  0.39985  0.00000  0.20031
       7     H     0.40670  0.40670  0.00000  0.18659
       8     C     3.15661  3.15661  0.00000 -0.31321
       9     H     0.41252  0.41252  0.00000  0.17496
      10     H     0.41962  0.41962  0.00000  0.16075
      11     C     3.15648  3.15648  0.00000 -0.31296
      12     H     0.41616  0.41616  0.00000  0.16767
      13     H     0.41624  0.41624  0.00000  0.16751
      14     C     3.15456  3.15456  0.00000 -0.30913
      15     H     0.41716  0.41716  0.00000  0.16568
      16     H     0.42288  0.42288  0.00000  0.15423
      17     C     3.15343  3.15343  0.00000 -0.30687
      18     H     0.42200  0.42200  0.00000  0.15600
      19     H     0.42184  0.42184  0.00000  0.15631
      20     C     3.24115  3.24115  0.00000 -0.48230
      21     H     0.41994  0.41994  0.00000  0.16013
      22     H     0.42361  0.42361  0.00000  0.15278
      23     H     0.42141  0.42141  0.00000  0.15718
      24     H     0.42077  0.42077  0.00000  0.15847
      25     H     0.41869  0.41869  0.00000  0.16262

   Total alpha = 36.00000, Total beta = 36.00000, Total charge =  0.00000
