                              Psi4 1.0.54 Driver

  ==> Input File <==

--------------------------------------------------------------------------
set {
	reference rhf
	basis cc-pvtz
}

set_num_threads( 4 )
memory 2 gb

molecule MOL {
0 1

H	 -1.575890	 0.615069	 2.928118
C	 -2.165822	 -0.015557	 2.249019
C	 -2.468702	 0.604034	 0.911760
O	 -2.519953	 -1.088541	 2.596300
C	 -1.216901	 1.136108	 0.207794
H	 -2.988715	 -0.125159	 0.304142
H	 -3.151083	 1.430012	 1.099964
C	 -0.247837	 0.040196	 -0.230469
H	 -1.528357	 1.709392	 -0.658624
H	 -0.704842	 1.835553	 0.864122
C	 1.181757	 0.280428	 0.247371
H	 -0.259600	 -0.030819	 -1.314870
H	 -0.591284	 -0.923375	 0.136958
C	 2.151032	 -0.811012	 -0.202643
H	 1.515939	 1.247397	 -0.115449
H	 1.191514	 0.341223	 1.333422
C	 3.580021	 -0.656538	 0.320835
H	 2.170545	 -0.847575	 -1.289412
H	 1.766632	 -1.772905	 0.124928
C	 4.327657	 0.562694	 -0.213579
H	 4.138806	 -1.549270	 0.057813
H	 3.561991	 -0.620783	 1.406976
H	 4.355973	 0.557257	 -1.298551
H	 3.867136	 1.491650	 0.100501
H	 5.351524	 0.571613	 0.142204

	symmetry c1
}
set optking {
	frozen_dihedral = ("
		3 5 8 12
	")
}

ee,wfn = optimize('scf', return_wfn=True)
oeprop( wfn, 'DIPOLE', 'QUADRUPOLE', 'MULLIKEN_CHARGES')
f=open( 'psi4out.xyz', 'w' )
f.write( "25  " )
f.write( str(ee) + "\n" )
f.write( MOL.save_string_xyz() )
f.close()
--------------------------------------------------------------------------

    Molecular point group: c1
  Charge       = 0
  Multiplicity = 1
  Basis Set: CC-PVTZ
  Basis Set:
  @DF-RHF Final Energy:  -387.25495624542043
    Total Energy =                       -387.2549562454203169
    Molecular point group: c1
  Basis Set: CC-PVTZ
  Basis Set:
  Basis Set: CC-PVTZ
  Basis Set:
  @DF-RHF Final Energy:  -387.25521567741288
    Total Energy =                       -387.2552156774132754
  Basis Set: CC-PVTZ
  Basis Set:
  Basis Set: CC-PVTZ
  Basis Set:
  @DF-RHF Final Energy:  -387.25497938441583
    Total Energy =                       -387.2549793844160604
  Basis Set: CC-PVTZ
  Basis Set:
  Basis Set: CC-PVTZ
  Basis Set:
  @DF-RHF Final Energy:  -387.25528752308861
    Total Energy =                       -387.2552875230885547
  Basis Set: CC-PVTZ
  Basis Set:
  Basis Set: CC-PVTZ
  Basis Set:
  @DF-RHF Final Energy:  -387.25525966207852
    Total Energy =                       -387.2552596620787426
  Basis Set: CC-PVTZ
  Basis Set:
  Basis Set: CC-PVTZ
  Basis Set:
  @DF-RHF Final Energy:  -387.25531231441164
    Total Energy =                       -387.2553123144115261
  Basis Set: CC-PVTZ
  Basis Set:
  Basis Set: CC-PVTZ
  Basis Set:
  @DF-RHF Final Energy:  -387.25531746672516
    Total Energy =                       -387.2553174667248186
  Basis Set: CC-PVTZ
  Basis Set:
  Charge       = 0
  Multiplicity = 1
  Basis Set: CC-PVTZ
  Basis Set:

    Orbital Energies (a.u.)
    -----------------------

    Doubly Occupied:

       1A    -20.552656     2A    -11.321378     3A    -11.234020
       4A    -11.232824     5A    -11.219935     6A    -11.217049
       7A    -11.214987     8A    -11.213519     9A    -11.207979
      10A     -1.407208    11A     -1.102797    12A     -1.069541
      13A     -1.013325    14A     -0.942240    15A     -0.876739
      16A     -0.818495    17A     -0.789990    18A     -0.780273
      19A     -0.669800    20A     -0.658350    21A     -0.641250
      22A     -0.620243    23A     -0.612289    24A     -0.582694
      25A     -0.574272    26A     -0.559793    27A     -0.535209
      28A     -0.521934    29A     -0.511288    30A     -0.501903
      31A     -0.486096    32A     -0.476307    33A     -0.462618
      34A     -0.458037    35A     -0.441971    36A     -0.412201

  @DF-RHF Final Energy:  -387.25531787620992

   => Energetics <=

    Nuclear Repulsion Energy =            445.2621529224811638
    One-Electron Energy =               -1407.1525242962957236
    Two-Electron Energy =                 574.6350534976045310
    DFT Exchange-Correlation Energy =       0.0000000000000000
    Empirical Dispersion Energy =           0.0000000000000000
    PCM Polarization Energy =               0.0000000000000000
    EFP Energy =                            0.0000000000000000
    Total Energy =                       -387.2553178762100288
    Molecular point group: c1
  Basis Set: CC-PVTZ
  Basis Set:

  -Total Gradient:
     Atom            X                  Y                   Z
    ------   -----------------  -----------------  -----------------
       1        0.000017383602     0.000054935052     0.000038598871
       2        0.000048460047     0.000125592107    -0.000065878732
       3        0.000629214200     0.000151722726     0.001154319999
       4       -0.000048803897    -0.000203441989     0.000057708537
       5       -0.000521959660     0.000094484625    -0.001666485100
       6        0.000018994185     0.000014279725    -0.000005695349
       7       -0.000011515117    -0.000004884279     0.000012023136
       8       -0.001457736173    -0.001452555918     0.000673581156
       9       -0.000018499261     0.000012925126    -0.000045772005
      10       -0.000020638443     0.000007113801    -0.000003691798
      11       -0.000044246477    -0.000026466359     0.000018996912
      12        0.001360014583     0.001244014124    -0.000101174650
      13        0.000016717012    -0.000022271182    -0.000018105837
      14        0.000074682688     0.000036277040    -0.000047548438
      15       -0.000046386190    -0.000039631447    -0.000005748821
      16       -0.000017882629    -0.000011468546    -0.000007335387
      17       -0.000030013416     0.000032480936     0.000041984264
      18       -0.000000033992     0.000020211659    -0.000016080867
      19        0.000003213386     0.000000775755    -0.000006006465
      20        0.000028286339    -0.000014613085    -0.000021277704
      21       -0.000010614770    -0.000015063666     0.000008319468
      22       -0.000008420408     0.000017096621     0.000024220216
      23        0.000000103667     0.000013195191    -0.000013997684
      24        0.000031963707    -0.000022728561     0.000010640852
      25        0.000007717010    -0.000011979453    -0.000015594572

  **** Optimization is complete! (in 8 steps) ****
    Final optimized geometry and variables:
    Molecular point group: c1

    Geometry (in Angstrom), charge = 0, multiplicity = 1:

    H           -1.990829220262     0.686649044919     2.322586930461
    C           -2.484828916924     0.006612495976     1.615422736603
    C           -2.800011188170     0.608486420143     0.273511243355
    O           -2.727027997374    -1.105648387500     1.935581043958
    C           -1.543521488964     1.131551501158    -0.433792073956
    H           -3.313694033739    -0.131717604903    -0.326048814887
    H           -3.483156261524     1.436301697840     0.449015902117
    C           -0.561908232991     0.023932963376    -0.869712011628
    H           -1.853495614789     1.714602212887    -1.291879248985
    H           -1.039178971275     1.828558021094     0.229581348571
    C            0.875994542001     0.272569853317    -0.415103792439
    H           -0.569289028389    -0.055850368087    -1.951722745306
    H           -0.890997034813    -0.937697064814    -0.490719188177
    C            1.843490129650    -0.811433864019    -0.884609703713
    H            1.196937181464     1.243399855896    -0.780146703674
    H            0.903624809035     0.329961164275     0.671042733722
    C            3.278188485067    -0.656189744830    -0.377174517407
    H            1.850122581939    -0.839806140890    -1.971967444520
    H            1.465796523915    -1.776574174735    -0.559050334596
    C            4.017781061619     0.565743279971    -0.916656222019
    H            3.835167095204    -1.547313657116    -0.649325674315
    H            3.272487779385    -0.624016365312     0.709129994680
    H            4.031284351398     0.565028783307    -2.001980080278
    H            3.561062290223     1.493120203719    -0.592394322733
    H            5.046450015844     0.573855688541    -0.574924698276

  Mulliken Charges: (a.u.)
   Center  Symbol    Alpha    Beta     Spin     Total
       1     H     0.46390  0.46390  0.00000  0.07221
       2     C     2.90332  2.90332  0.00000  0.19336
       3     C     3.08792  3.08792  0.00000 -0.17584
       4     O     4.16640  4.16640  0.00000 -0.33279
       5     C     3.11832  3.11832  0.00000 -0.23664
       6     H     0.44250  0.44250  0.00000  0.11501
       7     H     0.44231  0.44231  0.00000  0.11537
       8     C     3.10519  3.10519  0.00000 -0.21038
       9     H     0.43885  0.43885  0.00000  0.12230
      10     H     0.45052  0.45052  0.00000  0.09897
      11     C     3.09077  3.09077  0.00000 -0.18154
      12     H     0.44496  0.44496  0.00000  0.11008
      13     H     0.44193  0.44193  0.00000  0.11614
      14     C     3.09686  3.09686  0.00000 -0.19371
      15     H     0.45108  0.45108  0.00000  0.09784
      16     H     0.45474  0.45474  0.00000  0.09053
      17     C     3.09081  3.09081  0.00000 -0.18163
      18     H     0.45381  0.45381  0.00000  0.09237
      19     H     0.44633  0.44633  0.00000  0.10735
      20     C     3.15232  3.15232  0.00000 -0.30463
      21     H     0.44778  0.44778  0.00000  0.10444
      22     H     0.45386  0.45386  0.00000  0.09228
      23     H     0.45495  0.45495  0.00000  0.09009
      24     H     0.45459  0.45459  0.00000  0.09082
      25     H     0.44599  0.44599  0.00000  0.10801

   Total alpha = 36.00000, Total beta = 36.00000, Total charge = -0.00000

*** Psi4 exiting successfully. Buy a developer a beer!
