  ==> Input File <==

--------------------------------------------------------------------------
set {
	reference rhf
	basis 6-31G*
}

set_num_threads( 4 )
memory 2 gb

molecule MOL {
0 1

H	 2.582381	 0.177953	 1.052826
O	 1.730462	 -0.244095	 1.106643
C	 1.050492	 0.053836	 0.000068
C	 -0.318135	 -0.576402	 0.000164
O	 1.506608	 0.737484	 -0.857591
C	 -1.454360	 0.441875	 -0.000474
H	 -0.374042	 -1.230163	 -0.866135
H	 -0.374274	 -1.229227	 0.867154
C	 -2.826123	 -0.230780	 0.000056
H	 -1.357605	 1.085198	 -0.868380
H	 -1.357504	 1.086451	 0.866496
H	 -2.959731	 -0.858053	 -0.876869
H	 -3.619374	 0.509403	 -0.000080
H	 -2.959371	 -0.857318	 0.877556

	symmetry c1
}
set optking {
	frozen_dihedral = ("
		2 3 4 7
	")
}

ee = optimize('scf')
oeprop('DIPOLE', 'QUADRUPOLE', 'MULLIKEN_CHARGES')
f=open( 'psi4out.xyz', 'w' )
f.write( "14  " )
f.write( str(ee) + "\n" )
f.write( MOL.save_string_xyz() )
f.close()
--------------------------------------------------------------------------

    Molecular point group: c1
  Charge       = 0
  Multiplicity = 1
  Basis Set: 6-31G*
  Basis Set:
  @DF-RHF Final Energy:  -305.87843875162469
    Total Energy =                       -305.8784387516246284
    Molecular point group: c1
  Basis Set: 6-31G*
  Basis Set:
  Basis Set: 6-31G*
  Basis Set:
  @DF-RHF Final Energy:  -305.87911333669570
    Total Energy =                       -305.8791133366958661
  Basis Set: 6-31G*
  Basis Set:
  Basis Set: 6-31G*
  Basis Set:
  @DF-RHF Final Energy:  -305.87828682458348
    Total Energy =                       -305.8782868245834834
  Basis Set: 6-31G*
  Basis Set:
  Basis Set: 6-31G*
  Basis Set:
  @DF-RHF Final Energy:  -305.87918096639993
    Total Energy =                       -305.8791809664000994
  Basis Set: 6-31G*
  Basis Set:
  Basis Set: 6-31G*
  Basis Set:
  @DF-RHF Final Energy:  -305.87918433357686
    Total Energy =                       -305.8791843335766885
  Basis Set: 6-31G*
  Basis Set:
  Charge       = 0
  Multiplicity = 1
  Basis Set: 6-31G*
  Basis Set:

    Orbital Energies (a.u.)
    -----------------------

    Doubly Occupied:

       1A    -20.615258     2A    -20.548894     3A    -11.381103
       4A    -11.239806     5A    -11.232543     6A    -11.219600
       7A     -1.475399     8A     -1.364982     9A     -1.084658
      10A     -0.979168    11A     -0.855210    12A     -0.801586
      13A     -0.702176    14A     -0.687512    15A     -0.650879
      16A     -0.627814    17A     -0.593609    18A     -0.570663
      19A     -0.550774    20A     -0.512151    21A     -0.495180
      22A     -0.487438    23A     -0.470970    24A     -0.441070

  @DF-RHF Final Energy:  -305.87918447704192

   => Energetics <=

    Nuclear Repulsion Energy =            240.0581117811484830
    One-Electron Energy =                -892.6977030321226039
    Two-Electron Energy =                 346.7604067739320044
    DFT Exchange-Correlation Energy =       0.0000000000000000
    Empirical Dispersion Energy =           0.0000000000000000
    PCM Polarization Energy =               0.0000000000000000
    EFP Energy =                            0.0000000000000000
    Total Energy =                       -305.8791844770421449
    Molecular point group: c1
  Basis Set: 6-31G*
  Basis Set:

  -Total Gradient:
     Atom            X                  Y                   Z
    ------   -----------------  -----------------  -----------------
       1       -0.000005228345    -0.000001529143    -0.000008182105
       2       -0.000167732178     0.000321387805     0.000237615517
       3        0.000166963169    -0.000338524459    -0.000405238110
       4        0.000183115804    -0.000354816743     0.000399626964
       5       -0.000001811962    -0.000001610814     0.000013084062
       6        0.000014124774     0.000000832277     0.000014321482
       7       -0.000194210759     0.000383406848    -0.000245763283
       8       -0.000007181417    -0.000012425219     0.000008951859
       9        0.000007051953    -0.000007089677    -0.000009858224
      10       -0.000001299997     0.000007567018     0.000003980993
      11       -0.000006339324    -0.000005134042    -0.000005012355
      12        0.000000494831    -0.000002044116     0.000001033398
      13        0.000003784493     0.000006153649    -0.000002767233
      14        0.000008268950     0.000003826615    -0.000001792962

  **** Optimization is complete! (in 6 steps) ****
    Final optimized geometry and variables:
    Molecular point group: c1

    Geometry (in Angstrom), charge = 0, multiplicity = 1:

    H            2.638422479522     0.173167629230     0.925762117482
    O            1.805565543296    -0.280429121195     1.015825813463
    C            1.058328608384     0.016781077305    -0.044061180897
    C           -0.297769014411    -0.642278191079    -0.016845401737
    O            1.442199834383     0.740312139139    -0.905868368003
    C           -1.425391984825     0.397916093132    -0.045755906001
    H           -0.362585589284    -1.267869523030    -0.901869372167
    H           -0.377817031355    -1.279721427177     0.854281234641
    C           -2.805782495343    -0.254261569611    -0.083252707061
    H           -1.289963370908     1.035759818396    -0.911633787153
    H           -1.348380758812     1.036381790226     0.830462897217
    H           -2.922082802246    -0.875459035724    -0.966585269546
    H           -3.587649418312     0.497759444301    -0.102246434952
    H           -2.970320020618    -0.881478745227     0.788011860442

  Mulliken Charges: (a.u.)
   Center  Symbol    Alpha    Beta     Spin     Total
       1     H     0.26829  0.26829  0.00000  0.46342
       2     O     4.34749  4.34749  0.00000 -0.69498
       3     C     2.62697  2.62697  0.00000  0.74606
       4     C     3.20448  3.20448  0.00000 -0.40896
       5     O     4.28033  4.28033  0.00000 -0.56065
       6     C     3.16232  3.16232  0.00000 -0.32465
       7     H     0.39913  0.39913  0.00000  0.20173
       8     H     0.39948  0.39948  0.00000  0.20104
       9     C     3.24166  3.24166  0.00000 -0.48333
      10     H     0.40236  0.40236  0.00000  0.19527
      11     H     0.41482  0.41482  0.00000  0.17035
      12     H     0.41876  0.41876  0.00000  0.16248
      13     H     0.41437  0.41437  0.00000  0.17126
      14     H     0.41952  0.41952  0.00000  0.16096

   Total alpha = 24.00000, Total beta = 24.00000, Total charge =  0.00000
