                              Psi4 1.0.54 Driver

  ==> Input File <==

--------------------------------------------------------------------------
set {
	reference rhf
	basis cc-pvtz
}

set_num_threads( 4 )
memory 2 gb

molecule MOL {
0 1

H	 -2.459946	 2.113999	 1.342012
O	 -1.778523	 1.525510	 1.074543
C	 -2.302264	 0.528872	 0.237390
C	 -1.175688	 -0.398187	 -0.171891
H	 -3.076390	 -0.034419	 0.754310
H	 -2.755590	 0.973394	 -0.646196
C	 0.196029	 0.106276	 0.266738
H	 -1.201873	 -0.515469	 -1.250677
H	 -1.365975	 -1.378728	 0.252664
C	 1.330220	 -0.826136	 -0.155230
H	 0.359542	 1.097229	 -0.145561
H	 0.212134	 0.218135	 1.348778
C	 2.719700	 -0.407669	 0.328325
H	 1.339388	 -0.911200	 -1.239363
H	 1.119001	 -1.821953	 0.224128
C	 3.241564	 0.893452	 -0.276737
H	 3.418299	 -1.204729	 0.093035
H	 2.711776	 -0.323368	 1.411960
H	 3.254204	 0.841071	 -1.360784
H	 2.634460	 1.745075	 0.005842
H	 4.254264	 1.092401	 0.054971

	symmetry c1
}
set optking {
	frozen_dihedral = ("
		2 3 4 8
	")
}

ee,wfn = optimize('scf', return_wfn=True)
oeprop( wfn, 'DIPOLE', 'QUADRUPOLE', 'MULLIKEN_CHARGES')
f=open( 'psi4out.xyz', 'w' )
f.write( "21  " )
f.write( str(ee) + "\n" )
f.write( MOL.save_string_xyz() )
f.close()
--------------------------------------------------------------------------

    Molecular point group: c1
  Charge       = 0
  Multiplicity = 1
  Basis Set: CC-PVTZ
  Basis Set:
  @DF-RHF Final Energy:  -310.32259498172090
    Total Energy =                       -310.3225949817207265
    Molecular point group: c1
  Basis Set: CC-PVTZ
  Basis Set:
  Basis Set: CC-PVTZ
  Basis Set:
  @DF-RHF Final Energy:  -310.32293978950429
    Total Energy =                       -310.3229397895040620
  Basis Set: CC-PVTZ
  Basis Set:
  Basis Set: CC-PVTZ
  Basis Set:
  @DF-RHF Final Energy:  -310.32454730139369
    Total Energy =                       -310.3245473013936362
  Basis Set: CC-PVTZ
  Basis Set:
  Basis Set: CC-PVTZ
  Basis Set:
  @DF-RHF Final Energy:  -310.32462449420507
    Total Energy =                       -310.3246244942051248
  Basis Set: CC-PVTZ
  Basis Set:
  Basis Set: CC-PVTZ
  Basis Set:
  @DF-RHF Final Energy:  -310.32462772527799
    Total Energy =                       -310.3246277252780487
  Basis Set: CC-PVTZ
  Basis Set:
  Charge       = 0
  Multiplicity = 1
  Basis Set: CC-PVTZ
  Basis Set:

    Orbital Energies (a.u.)
    -----------------------

    Doubly Occupied:

       1A    -20.545859     2A    -11.266718     3A    -11.211060
       4A    -11.207363     5A    -11.204867     6A    -11.201229
       7A    -11.200350     8A     -1.363830     9A     -1.079210
      10A     -1.026628    11A     -0.951898    12A     -0.876234
      13A     -0.800288    14A     -0.772276    15A     -0.697754
      16A     -0.657960    17A     -0.617170    18A     -0.603995
      19A     -0.585756    20A     -0.564520    21A     -0.532957
      22A     -0.522338    23A     -0.496564    24A     -0.493559
      25A     -0.482193    26A     -0.457097    27A     -0.449336
      28A     -0.436211    29A     -0.425299

  @DF-RHF Final Energy:  -310.32462832328537

   => Energetics <=

    Nuclear Repulsion Energy =            318.4952973686436621
    One-Electron Energy =               -1052.1788090184600151
    Two-Electron Energy =                 423.3588833265312132
    DFT Exchange-Correlation Energy =       0.0000000000000000
    Empirical Dispersion Energy =           0.0000000000000000
    PCM Polarization Energy =               0.0000000000000000
    EFP Energy =                            0.0000000000000000
    Total Energy =                       -310.3246283232851965
    Molecular point group: c1
  Basis Set: CC-PVTZ
  Basis Set:

  -Total Gradient:
     Atom            X                  Y                   Z
    ------   -----------------  -----------------  -----------------
       1        0.000076648828    -0.000068856480    -0.000040187914
       2        0.000440689152     0.001383117192    -0.001576609519
       3       -0.000210900128    -0.001233354093     0.002203900699
       4       -0.001970519633    -0.002242584238    -0.000317001517
       5        0.000026120551    -0.000049899773    -0.000043317821
       6        0.000030170995    -0.000086872981    -0.000035492702
       7        0.000004960399     0.000098018979    -0.000075224922
       8        0.001635051117     0.002200648614    -0.000162323320
       9       -0.000067284814    -0.000003777175    -0.000014420091
      10        0.000012490123     0.000020594370     0.000010626866
      11        0.000006557067    -0.000054300875     0.000009763262
      12        0.000016964249     0.000016865561     0.000006749254
      13       -0.000024300470     0.000014728791     0.000052539589
      14       -0.000007919963     0.000031474885     0.000007633386
      15       -0.000001014531    -0.000012646950    -0.000015325882
      16        0.000012163336     0.000005744075    -0.000013746290
      17       -0.000017040940    -0.000003402159     0.000010988054
      18        0.000002289703     0.000005887062     0.000007524496
      19       -0.000000461291     0.000010067723    -0.000004257123
      20        0.000035439815    -0.000021578752    -0.000003619432
      21       -0.000000103562    -0.000009873777    -0.000008199074

  **** Optimization is complete! (in 6 steps) ****
    Final optimized geometry and variables:
    Molecular point group: c1

    Geometry (in Angstrom), charge = 0, multiplicity = 1:

    H           -2.869320767048     1.877985425929     1.194076337502
    O           -2.145849609556     1.334310570410     0.943507394898
    C           -2.591679724302     0.334467286044     0.062629028318
    C           -1.433285750233    -0.592533454295    -0.352326677838
    H           -3.378749807080    -0.249738948947     0.529816033403
    H           -3.018515129218     0.798106212491    -0.822208486955
    C           -0.040155333777    -0.128540894900     0.076127989657
    H           -1.435947553127    -0.678972691958    -1.433932415064
    H           -1.607854446710    -1.587789317547     0.041486508115
    C            1.048259947425    -1.084153016550    -0.409436179336
    H            0.137680290581     0.868618319247    -0.306335975138
    H            0.002500285213    -0.049835110813     1.156039103004
    C            2.461136515053    -0.732654811741     0.060152655708
    H            1.035294294933    -1.127641360539    -1.496637376035
    H            0.812869715728    -2.087913042700    -0.064902053609
    C            3.015336974596     0.572130097127    -0.506871829548
    H            3.127575171284    -1.543458483319    -0.218616020851
    H            2.476264602580    -0.688140970989     1.145884134818
    H            3.004211257234     0.560556934528    -1.592292752643
    H            2.442948173307     1.431273352934    -0.179426361464
    H            4.041048221749     0.723901224179    -0.190065249636

  Mulliken Charges: (a.u.)
   Center  Symbol    Alpha    Beta     Spin     Total
       1     H     0.40061  0.40061  0.00000  0.19877
       2     O     4.18814  4.18814  0.00000 -0.37628
       3     C     2.96616  2.96616  0.00000  0.06768
       4     C     3.10776  3.10776  0.00000 -0.21553
       5     H     0.47067  0.47067  0.00000  0.05865
       6     H     0.47250  0.47250  0.00000  0.05500
       7     C     3.08490  3.08490  0.00000 -0.16980
       8     H     0.45424  0.45424  0.00000  0.09153
       9     H     0.45254  0.45254  0.00000  0.09492
      10     C     3.09592  3.09592  0.00000 -0.19184
      11     H     0.44821  0.44821  0.00000  0.10358
      12     H     0.44714  0.44714  0.00000  0.10572
      13     C     3.08936  3.08936  0.00000 -0.17872
      14     H     0.45660  0.45660  0.00000  0.08680
      15     H     0.45190  0.45190  0.00000  0.09621
      16     C     3.15268  3.15268  0.00000 -0.30535
      17     H     0.45008  0.45008  0.00000  0.09985
      18     H     0.45493  0.45493  0.00000  0.09013
      19     H     0.45625  0.45625  0.00000  0.08750
      20     H     0.45179  0.45179  0.00000  0.09643
      21     H     0.44762  0.44762  0.00000  0.10475

   Total alpha = 29.00000, Total beta = 29.00000, Total charge =  0.00000

*** Psi4 exiting successfully. Buy a developer a beer!
