  ==> Input File <==

--------------------------------------------------------------------------
set {
	reference rhf
	basis 6-31G*
}

set_num_threads( 1 )
memory 2 gb

molecule MOL {
0 1

H	 2.003942	 -0.780980	 -0.971667
C	 1.674207	 0.264378	 -0.935570
C	 0.692068	 0.589600	 0.160137
O	 2.089673	 1.048784	 -1.725649
C	 -0.558097	 -0.297372	 0.091132
H	 0.436067	 1.640068	 0.086245
H	 1.194271	 0.431393	 1.113863
C	 -1.850991	 0.512573	 -0.019058
H	 -0.476753	 -0.965681	 -0.762987
H	 -0.604799	 -0.930658	 0.975228
C	 -3.096943	 -0.368295	 -0.099594
H	 -1.800724	 1.150330	 -0.898172
H	 -1.931651	 1.177355	 0.838044
H	 -3.060452	 -1.020287	 -0.967456
H	 -3.996858	 0.233488	 -0.175704
H	 -3.191959	 -0.995686	 0.782074

	symmetry c1
}
set optking {
	frozen_dihedral = ("
		9 5 8 12,
		4 2 3 6
	")
}

ee = energy('scf')
oeprop('DIPOLE', 'QUADRUPOLE', 'MULLIKEN_CHARGES')
f=open( 'psi4out.xyz', 'w' )
f.write( "16  " )
f.write( str(ee) + "\n" )
f.write( MOL.save_string_xyz() )
f.close()
--------------------------------------------------------------------------

    Molecular point group: c1

    Geometry (in Angstrom), charge = 0, multiplicity = 1:

       Center              X                  Y                   Z               Mass
    ------------   -----------------  -----------------  -----------------  -----------------
           H          2.187173073557    -1.072879175556    -0.539274115337     1.007825032070
           C          1.857438073557    -0.027521175556    -0.503177115337    12.000000000000
           C          0.875299073557     0.297700824444     0.592529884663    12.000000000000
           O          2.272904073557     0.756884824444    -1.293256115337    15.994914619560
           C         -0.374865926443    -0.589271175556     0.523524884663    12.000000000000
           H          0.619298073557     1.348168824444     0.518637884663     1.007825032070
           H          1.377502073557     0.139493824444     1.546255884663     1.007825032070
           C         -1.667759926443     0.220673824444     0.413334884663    12.000000000000
           H         -0.293521926443    -1.257580175556    -0.330594115337     1.007825032070
           H         -0.421567926443    -1.222557175556     1.407620884663     1.007825032070
           C         -2.913711926443    -0.660194175556     0.332798884663    12.000000000000
           H         -1.617492926443     0.858430824444    -0.465779115337     1.007825032070
           H         -1.748419926443     0.885455824444     1.270436884663     1.007825032070
           H         -2.877220926443    -1.312186175556    -0.535063115337     1.007825032070
           H         -3.813626926443    -0.058411175556     0.256688884663     1.007825032070
           H         -3.008727926443    -1.287585175556     1.214466884663     1.007825032070

  Charge       = 0
  Multiplicity = 1
  Basis Set: 6-31G*
  Basis Set:

    Orbital Energies (a.u.)
    -----------------------

    Doubly Occupied:

       1A    -20.562190     2A    -11.326732     3A    -11.235349
       4A    -11.233666     5A    -11.227830     6A    -11.216912
       7A     -1.402206     8A     -1.095988     9A     -1.017671
      10A     -0.904859    11A     -0.812397    12A     -0.794465
      13A     -0.674655    14A     -0.650147    15A     -0.622596
      16A     -0.602801    17A     -0.591117    18A     -0.536763
      19A     -0.526078    20A     -0.523107    21A     -0.485244
      22A     -0.481827    23A     -0.468195    24A     -0.410016

  @DF-RHF Final Energy:  -270.01463886526602

   => Energetics <=

    Nuclear Repulsion Energy =            230.5129964420207216
    One-Electron Energy =                -822.2496350696706031
    Two-Electron Energy =                 321.7219997623837457
    DFT Exchange-Correlation Energy =       0.0000000000000000
    Empirical Dispersion Energy =           0.0000000000000000
    PCM Polarization Energy =               0.0000000000000000
    EFP Energy =                            0.0000000000000000
    Total Energy =                       -270.0146388652661358

  Mulliken Charges: (a.u.)
   Center  Symbol    Alpha    Beta     Spin     Total
       1     H     0.43137  0.43137  0.00000  0.13725
       2     C     2.83409  2.83409  0.00000  0.33181
       3     C     3.20903  3.20903  0.00000 -0.41806
       4     O     4.23713  4.23713  0.00000 -0.47425
       5     C     3.16546  3.16546  0.00000 -0.33091
       6     H     0.39715  0.39715  0.00000  0.20570
       7     H     0.40676  0.40676  0.00000  0.18647
       8     C     3.15390  3.15390  0.00000 -0.30780
       9     H     0.41650  0.41650  0.00000  0.16700
      10     H     0.41520  0.41520  0.00000  0.16959
      11     C     3.24108  3.24108  0.00000 -0.48216
      12     H     0.41603  0.41603  0.00000  0.16793
      13     H     0.41928  0.41928  0.00000  0.16144
      14     H     0.41984  0.41984  0.00000  0.16032
      15     H     0.41627  0.41627  0.00000  0.16745
      16     H     0.42090  0.42090  0.00000  0.15821

   Total alpha = 24.00000, Total beta = 24.00000, Total charge = -0.00000
