  ==> Input File <==

--------------------------------------------------------------------------
set {
	reference rhf
	basis 6-31G*
}

set_num_threads( 4 )
memory 2 gb

molecule MOL {
0 1

O	 -1.487788	 1.240889	 -0.102860
C	 -1.083277	 0.139568	 0.115197
C	 0.323299	 -0.082943	 0.642902
C	 -1.933017	 -1.084621	 -0.143902
C	 1.355627	 -0.005344	 -0.493127
H	 0.396251	 -1.044647	 1.143147
H	 0.528637	 0.693580	 1.371677
C	 1.155333	 1.223865	 -1.377534
H	 2.360126	 0.010252	 -0.075980
H	 1.280057	 -0.907677	 -1.090809
H	 1.891536	 1.252673	 -2.174319
H	 1.250670	 2.141594	 -0.804378
H	 0.170717	 1.219102	 -1.835306
H	 -1.393885	 -1.806447	 -0.750509
H	 -2.850323	 -0.799888	 -0.640100
H	 -2.169004	 -1.571158	 0.798858

	symmetry c1
}
set optking {
	frozen_dihedral = ("
		9 5 3 2
	")
}

ee = optimize('scf')
oeprop('DIPOLE', 'QUADRUPOLE', 'MULLIKEN_CHARGES')
f=open( 'psi4out.xyz', 'w' )
f.write( "16  " )
f.write( str(ee) + "\n" )
f.write( MOL.save_string_xyz() )
f.close()
--------------------------------------------------------------------------

    Molecular point group: c1
  Charge       = 0
  Multiplicity = 1
  Basis Set: 6-31G*
  Basis Set:
  @DF-RHF Final Energy:  -270.02575559594447
    Total Energy =                       -270.0257555959443607
    Molecular point group: c1
  Basis Set: 6-31G*
  Basis Set:
  Basis Set: 6-31G*
  Basis Set:
  @DF-RHF Final Energy:  -270.02765711318568
    Total Energy =                       -270.0276571131856258
  Basis Set: 6-31G*
  Basis Set:
  Basis Set: 6-31G*
  Basis Set:
  @DF-RHF Final Energy:  -270.02658346631654
    Total Energy =                       -270.0265834663163673
  Basis Set: 6-31G*
  Basis Set:
  Basis Set: 6-31G*
  Basis Set:
  @DF-RHF Final Energy:  -270.02823680672594
    Total Energy =                       -270.0282368067259426
  Basis Set: 6-31G*
  Basis Set:
  @DF-RHF Final Energy:  -270.02857685840934
    Total Energy =                       -270.0285768584092239
  @DF-RHF Final Energy:  -270.02872042192644
    Total Energy =                       -270.0287204219264368
  Basis Set: 6-31G*
  Basis Set:
  @DF-RHF Final Energy:  -270.02876002562880
    Total Energy =                       -270.0287600256287988
  Basis Set: 6-31G*
  Basis Set:
  Basis Set: 6-31G*
  Basis Set:
  @DF-RHF Final Energy:  -270.02877112603255
    Total Energy =                       -270.0287711260324954
  Basis Set: 6-31G*
  Basis Set:
  Basis Set: 6-31G*
  Basis Set:
  @DF-RHF Final Energy:  -270.02877266378573
    Total Energy =                       -270.0287726637857872
  Basis Set: 6-31G*
  Basis Set:
  Charge       = 0
  Multiplicity = 1
  Basis Set: 6-31G*
  Basis Set:

    Orbital Energies (a.u.)
    -----------------------

    Doubly Occupied:

       1A    -20.548955     2A    -11.324616     3A    -11.235384
       4A    -11.230077     5A    -11.228093     6A    -11.216280
       7A     -1.394110     8A     -1.082788     9A     -1.009296
      10A     -0.949925    11A     -0.834921    12A     -0.729024
      13A     -0.654887    14A     -0.646078    15A     -0.623209
      16A     -0.602542    17A     -0.580099    18A     -0.560597
      19A     -0.535036    20A     -0.507750    21A     -0.504655
      22A     -0.485095    23A     -0.473564    24A     -0.398239

  @DF-RHF Final Energy:  -270.02877350489348

   => Energetics <=

    Nuclear Repulsion Energy =            242.5808218385536463
    One-Electron Energy =                -846.5087452202540135
    Two-Electron Energy =                 333.8991498768069732
    DFT Exchange-Correlation Energy =       0.0000000000000000
    Empirical Dispersion Energy =           0.0000000000000000
    PCM Polarization Energy =               0.0000000000000000
    EFP Energy =                            0.0000000000000000
    Total Energy =                       -270.0287735048933655
    Molecular point group: c1
  Basis Set: 6-31G*
  Basis Set:

  -Total Gradient:
     Atom            X                  Y                   Z
    ------   -----------------  -----------------  -----------------
       1       -0.000031039552     0.000023498013     0.000030079950
       2        0.000240243159     0.002047388426     0.000110543604
       3       -0.000334725027    -0.002346147796    -0.000216485956
       4        0.000006572088     0.000037856588    -0.000090697703
       5        0.000162758248    -0.002582335434     0.000324265684
       6        0.000004969699    -0.000003751016     0.000006570467
       7       -0.000006318967     0.000002628754     0.000022624480
       8        0.000058480283     0.000014751293    -0.000050257390
       9       -0.000066964158     0.002834283611    -0.000213056449
      10        0.000001511337    -0.000006789437    -0.000011787878
      11       -0.000005289478    -0.000004256107     0.000014499124
      12       -0.000002816892     0.000006656949    -0.000008499433
      13       -0.000011441503    -0.000010401068     0.000012700155
      14        0.000001952373    -0.000016359955     0.000028476945
      15       -0.000007948055    -0.000014669711     0.000012512852
      16       -0.000009943551     0.000017646885     0.000028511549

  **** Optimization is complete! (in 10 steps) ****
    Final optimized geometry and variables:
    Molecular point group: c1

    Geometry (in Angstrom), charge = 0, multiplicity = 1:

    O           -1.371203517435     0.977465805865     0.584817558358
    C           -0.806500578390    -0.064403418142     0.445239218697
    C            0.642977720421    -0.237234535317     0.863543466953
    C           -1.508320149645    -1.266520821230    -0.151471708584
    C            1.626121110936    -0.297578617425    -0.321660528479
    H            0.743018985822    -1.141492084729     1.458771661133
    H            0.886850287888     0.609051314451     1.494835909120
    C            1.452679282854     0.842611870746    -1.327842126100
    H            2.630533021216    -0.240847950320     0.086461168795
    H            1.546549761162    -1.254292035356    -0.829848051395
    H            2.227527260859     0.800278497139    -2.086424941520
    H            1.515226525094     1.808380911495    -0.836799413110
    H            0.493949941044     0.798017942190    -1.834408429111
    H           -0.944003745365    -1.676514515511    -0.983182913550
    H           -2.496295173531    -0.983230177551    -0.486830144232
    H           -1.593762547083    -2.050263265498     0.596388094780

  Mulliken Charges: (a.u.)
   Center  Symbol    Alpha    Beta     Spin     Total
       1     O     4.26139  4.26139  0.00000 -0.52278
       2     C     2.73553  2.73553  0.00000  0.52893
       3     C     3.20267  3.20267  0.00000 -0.40535
       4     C     3.28999  3.28999  0.00000 -0.57997
       5     C     3.16208  3.16208  0.00000 -0.32416
       6     H     0.41314  0.41314  0.00000  0.17373
       7     H     0.40031  0.40031  0.00000  0.19937
       8     C     3.24393  3.24393  0.00000 -0.48786
       9     H     0.41241  0.41241  0.00000  0.17519
      10     H     0.41924  0.41924  0.00000  0.16151
      11     H     0.41711  0.41711  0.00000  0.16578
      12     H     0.41212  0.41212  0.00000  0.17575
      13     H     0.41710  0.41710  0.00000  0.16580
      14     H     0.40882  0.40882  0.00000  0.18236
      15     H     0.39654  0.39654  0.00000  0.20692
      16     H     0.40762  0.40762  0.00000  0.18476

   Total alpha = 24.00000, Total beta = 24.00000, Total charge =  0.00000
