  ==> Input File <==

--------------------------------------------------------------------------
set {
	reference rhf
	basis 6-31G*
}

set_num_threads( 4 )
memory 2 gb

molecule MOL {
0 1

H	 -2.098693	 1.993511	 1.143155
C	 -1.709194	 1.113607	 0.666252
C	 -2.557232	 0.180122	 0.094953
C	 -0.348239	 0.900837	 0.616470
H	 -3.621778	 0.328039	 0.123309
C	 -2.041936	 -0.947883	 -0.515623
H	 0.333873	 1.602999	 1.048290
C	 0.154804	 -0.237046	 -0.000077
H	 -2.716540	 -1.660265	 -0.953248
C	 -0.673337	 -1.199826	 -0.586818
N	 1.611208	 -0.370857	 -0.000034
C	 -0.220393	 -2.466496	 -1.279147
O	 2.274126	 0.622059	 -0.008063
O	 2.068510	 -1.474748	 0.007823
H	 0.337539	 -3.107271	 -0.610383
H	 -1.089304	 -3.006732	 -1.633426
H	 0.421497	 -2.251036	 -2.122164

	symmetry c1
}
set optking {
	frozen_dihedral = ("
		4 8 11 13
	")
}

ee = optimize('scf')
oeprop('DIPOLE', 'QUADRUPOLE', 'MULLIKEN_CHARGES')
f=open( 'psi4out.xyz', 'w' )
f.write( "17  " )
f.write( str(ee) + "\n" )
f.write( MOL.save_string_xyz() )
f.close()
--------------------------------------------------------------------------

    Molecular point group: c1
  Charge       = 0
  Multiplicity = 1
  Basis Set: 6-31G*
  Basis Set:
  @DF-RHF Final Energy:  -473.20584624403307
    Total Energy =                       -473.2058462440327276
    Molecular point group: c1
  Basis Set: 6-31G*
  Basis Set:
  Basis Set: 6-31G*
  Basis Set:
  @DF-RHF Final Energy:  -473.20641860547022
    Total Energy =                       -473.2064186054700485
  Basis Set: 6-31G*
  Basis Set:
  Basis Set: 6-31G*
  Basis Set:
  @DF-RHF Final Energy:  -473.20412589557446
    Total Energy =                       -473.2041258955746343
  Basis Set: 6-31G*
  Basis Set:
  Basis Set: 6-31G*
  Basis Set:
  @DF-RHF Final Energy:  -473.20667548602063
    Total Energy =                       -473.2066754860213678
  Basis Set: 6-31G*
  Basis Set:
  Basis Set: 6-31G*
  Basis Set:
  @DF-RHF Final Energy:  -473.20669429580079
    Total Energy =                       -473.2066942958006166
  Basis Set: 6-31G*
  Basis Set:
  Basis Set: 6-31G*
  Basis Set:
  @DF-RHF Final Energy:  -473.20669863047499
    Total Energy =                       -473.2066986304754437
  Basis Set: 6-31G*
  Basis Set:
  Charge       = 0
  Multiplicity = 1
  Basis Set: 6-31G*
  Basis Set:

    Orbital Energies (a.u.)
    -----------------------

    Doubly Occupied:

       1A    -20.600231     2A    -20.598739     3A    -15.852824
       4A    -11.300674     5A    -11.281484     6A    -11.266660
       7A    -11.263297     8A    -11.254403     9A    -11.253557
      10A    -11.234556    11A     -1.632487    12A     -1.415158
      13A     -1.200371    14A     -1.091807    15A     -1.072061
      16A     -0.979721    17A     -0.931855    18A     -0.848486
      19A     -0.821836    20A     -0.769345    21A     -0.732395
      22A     -0.726129    23A     -0.693674    24A     -0.660682
      25A     -0.637334    26A     -0.598638    27A     -0.591736
      28A     -0.564592    29A     -0.540784    30A     -0.520890
      31A     -0.519841    32A     -0.486302    33A     -0.479836
      34A     -0.447790    35A     -0.368171    36A     -0.353506

  @DF-RHF Final Energy:  -473.20669896214781

   => Energetics <=

    Nuclear Repulsion Energy =            509.9761373835800669
    One-Electron Energy =               -1655.1819749424885231
    Two-Electron Energy =                 671.9991385967607584
    DFT Exchange-Correlation Energy =       0.0000000000000000
    Empirical Dispersion Energy =           0.0000000000000000
    PCM Polarization Energy =               0.0000000000000000
    EFP Energy =                            0.0000000000000000
    Total Energy =                       -473.2066989621478115
    Molecular point group: c1
  Basis Set: 6-31G*
  Basis Set:

  -Total Gradient:
     Atom            X                  Y                   Z
    ------   -----------------  -----------------  -----------------
       1       -0.000004772752     0.000003450404    -0.000004469826
       2       -0.000017561832    -0.000018138701     0.000016202811
       3        0.000002745664     0.000022411530     0.000005692787
       4       -0.000015641974    -0.000363026074     0.000603579615
       5       -0.000000637823     0.000003906804     0.000005551631
       6        0.000008948469    -0.000007093262     0.000006712608
       7        0.000007454986     0.000000483193     0.000006827749
       8        0.000041298317     0.000513694858    -0.001193415045
       9        0.000004297498     0.000000415030     0.000006634027
      10        0.000015317225     0.000034427864    -0.000054249171
      11        0.000027150135    -0.000165199812     0.001394433343
      12        0.000008968611    -0.000006092708     0.000010811759
      13       -0.000060236748    -0.000016815405    -0.000829030258
      14       -0.000015595076     0.000014617758     0.000012057971
      15        0.000004559295    -0.000013551414     0.000001018541
      16       -0.000000626184    -0.000007522763     0.000000118664
      17       -0.000005667825     0.000004032695     0.000011522793

  **** Optimization is complete! (in 7 steps) ****
    Final optimized geometry and variables:
    Molecular point group: c1

    Geometry (in Angstrom), charge = 0, multiplicity = 1:

    H           -2.049965451266     2.406609285612     1.272864859997
    C           -1.662369283250     1.528247356759     0.791496098296
    C           -2.515190234912     0.584955878645     0.243078993336
    C           -0.299601578051     1.329813599482     0.708334353246
    H           -3.579594249156     0.727571251704     0.292549932855
    C           -2.006557511342    -0.542481675477    -0.376500114236
    H            0.390384698152     2.044441006582     1.109605333025
    C            0.188866621533     0.185765407891     0.098187437566
    H           -2.684198130380    -1.256419505445    -0.807701932743
    C           -0.638601726572    -0.787277838951    -0.460858959938
    N            1.641227881093     0.038837480952     0.085977070180
    C           -0.159137876751    -2.041898778561    -1.155843707222
    O            2.295966811932     1.037755019818     0.063923589079
    O            2.095474168719    -1.065183074247     0.108964671035
    H            0.213145248363    -2.763685374374    -0.440901899376
    H           -0.981825776841    -2.486475210416    -1.701733336761
    H            0.643176435680    -1.837890710340    -1.852041754437

  Mulliken Charges: (a.u.)
   Center  Symbol    Alpha    Beta     Spin     Total
       1     H     0.38944  0.38944  0.00000  0.22112
       2     C     3.11230  3.11230  0.00000 -0.22459
       3     C     3.08208  3.08208  0.00000 -0.16417
       4     C     3.08314  3.08314  0.00000 -0.16629
       5     H     0.38984  0.38984  0.00000  0.22032
       6     C     3.12444  3.12444  0.00000 -0.24888
       7     H     0.36701  0.36701  0.00000  0.26599
       8     C     2.92767  2.92767  0.00000  0.14466
       9     H     0.39272  0.39272  0.00000  0.21457
      10     C     2.96373  2.96373  0.00000  0.07253
      11     N     3.25539  3.25539  0.00000  0.48922
      12     C     3.24036  3.24036  0.00000 -0.48071
      13     O     4.23076  4.23076  0.00000 -0.46152
      14     O     4.23139  4.23139  0.00000 -0.46279
      15     H     0.39397  0.39397  0.00000  0.21205
      16     H     0.41386  0.41386  0.00000  0.17228
      17     H     0.40189  0.40189  0.00000  0.19622

   Total alpha = 36.00000, Total beta = 36.00000, Total charge = -0.00000
