                              Psi4 1.0.54 Driver

  ==> Input File <==

--------------------------------------------------------------------------
set {
	reference rhf
	basis cc-pvtz
}

set_num_threads( 4 )
memory 2 gb

molecule MOL {
0 1

H	 3.889604	 0.356866	 -0.089510
N	 3.091268	 -0.241216	 -0.065538
C	 1.860978	 0.530248	 0.016256
H	 3.192566	 -0.835836	 0.730398
C	 0.644130	 -0.381765	 -0.031064
H	 1.835721	 1.204666	 -0.833114
H	 1.808789	 1.151975	 0.911067
C	 -0.678115	 0.376691	 0.025731
H	 0.693998	 -0.977147	 -0.936845
H	 0.693309	 -1.082142	 0.800523
C	 -1.691697	 -0.097042	 -1.012262
H	 -0.490163	 1.438189	 -0.118665
H	 -1.111747	 0.277685	 1.018219
C	 -3.009793	 0.667931	 -0.956460
H	 -1.260217	 0.000601	 -2.004524
H	 -1.884162	 -1.156686	 -0.867752
H	 -2.855185	 1.727393	 -1.132177
H	 -3.705644	 0.307289	 -1.705282
H	 -3.483779	 0.561272	 0.013745

	symmetry c1
}
set optking {
	frozen_dihedral = ("
		12 8 5 9
	")
}

ee,wfn = optimize('scf', return_wfn=True)
oeprop( wfn, 'DIPOLE', 'QUADRUPOLE', 'MULLIKEN_CHARGES')
f=open( 'psi4out.xyz', 'w' )
f.write( "19  " )
f.write( str(ee) + "\n" )
f.write( MOL.save_string_xyz() )
f.close()
--------------------------------------------------------------------------

    Molecular point group: c1
  Charge       = 0
  Multiplicity = 1
  Basis Set: CC-PVTZ
  Basis Set:
  @DF-RHF Final Energy:  -251.44360031051420
    Total Energy =                       -251.4436003105143413
    Molecular point group: c1
  Basis Set: CC-PVTZ
  Basis Set:
  Basis Set: CC-PVTZ
  Basis Set:
  @DF-RHF Final Energy:  -251.44382264358339
    Total Energy =                       -251.4438226435835304
  Basis Set: CC-PVTZ
  Basis Set:
  Basis Set: CC-PVTZ
  Basis Set:
  @DF-RHF Final Energy:  -251.44387557897102
    Total Energy =                       -251.4438755789707898
  Basis Set: CC-PVTZ
  Basis Set:
  Charge       = 0
  Multiplicity = 1
  Basis Set: CC-PVTZ
  Basis Set:

    Orbital Energies (a.u.)
    -----------------------

    Doubly Occupied:

       1A    -15.526499     2A    -11.238596     3A    -11.212033
       4A    -11.210318     5A    -11.207430     6A    -11.205151
       7A     -1.178466     8A     -1.072602     9A     -0.998577
      10A     -0.901016    11A     -0.816063    12A     -0.789333
      13A     -0.662544    14A     -0.637753    15A     -0.624010
      16A     -0.586651    17A     -0.570450    18A     -0.550002
      19A     -0.526347    20A     -0.501547    21A     -0.481659
      22A     -0.466199    23A     -0.453376    24A     -0.451487
      25A     -0.383938

  @DF-RHF Final Energy:  -251.44387655877989

   => Energetics <=

    Nuclear Repulsion Energy =            246.2674811660313026
    One-Electron Energy =                -826.9186280263259050
    Two-Electron Energy =                 329.2072703015147113
    DFT Exchange-Correlation Energy =       0.0000000000000000
    Empirical Dispersion Energy =           0.0000000000000000
    PCM Polarization Energy =               0.0000000000000000
    EFP Energy =                            0.0000000000000000
    Total Energy =                       -251.4438765587798912
    Molecular point group: c1
  Basis Set: CC-PVTZ
  Basis Set:

  -Total Gradient:
     Atom            X                  Y                   Z
    ------   -----------------  -----------------  -----------------
       1        0.000019437786     0.000003291785     0.000007548191
       2       -0.000001545434    -0.000059621814    -0.000007147902
       3       -0.000019426206     0.000125100902     0.000006014876
       4        0.000001463175     0.000016181107    -0.000004537282
       5        0.001590892434     0.002764270734    -0.000999940784
       6       -0.000000522949    -0.000002034129     0.000018161277
       7       -0.000003879818    -0.000022385195    -0.000031343454
       8       -0.000723137091    -0.000968415972    -0.003170762054
       9       -0.001266260821    -0.002193315607     0.001427857517
      10       -0.000014839013     0.000001325889    -0.000006745847
      11        0.000032390307     0.000043493003    -0.000127534294
      12        0.000348493250     0.000314637887     0.002818691903
      13        0.000040437104     0.000012380941     0.000007724759
      14       -0.000017532142    -0.000038594659     0.000081442064
      15       -0.000006183062     0.000022265393    -0.000012924022
      16        0.000016617124    -0.000004165068    -0.000015285727
      17        0.000019389918    -0.000013770038    -0.000011223018
      18       -0.000003292468    -0.000019358549     0.000013050140
      19       -0.000012502097     0.000018713389     0.000006953656

  **** Optimization is complete! (in 4 steps) ****
    Final optimized geometry and variables:
    Molecular point group: c1

    Geometry (in Angstrom), charge = 0, multiplicity = 1:

    H            3.838063590834     0.187064399269     0.302496058390
    N            3.033355533529    -0.402960907528     0.305189853392
    C            1.808996993749     0.379410295290     0.344963591934
    H            3.104522054359    -0.995078985299     1.106210675599
    C            0.584911646496    -0.519976893622     0.268908461512
    H            1.812361355279     1.047912007772    -0.509614984004
    H            1.734213196274     1.008831437991     1.233151212195
    C           -0.745282793053     0.251169605149     0.318464105533
    H            0.642398457651    -1.122119299249    -0.631000957775
    H            0.622750988470    -1.230158519522     1.091243872269
    C           -1.777014649400    -0.235027920439    -0.694903063267
    H           -0.561313729950     1.312464988393     0.170536350691
    H           -1.170419822095     0.176740117262     1.315409779413
    C           -3.105971394351     0.506220047881    -0.601992720462
    H           -1.370882009688    -0.126980334848    -1.696832705415
    H           -1.945814274940    -1.298688813544    -0.549551416921
    H           -2.973812019906     1.569203751164    -0.775317595109
    H           -3.813892580725     0.137473849476    -1.335442437868
    H           -3.553706715023     0.386246138872     0.379046424059

  Mulliken Charges: (a.u.)
   Center  Symbol    Alpha    Beta     Spin     Total
       1     H     0.43030  0.43030  0.00000  0.13940
       2     N     3.68987  3.68987  0.00000 -0.37974
       3     C     3.02566  3.02566  0.00000 -0.05132
       4     H     0.43084  0.43084  0.00000  0.13833
       5     C     3.08607  3.08607  0.00000 -0.17213
       6     H     0.45682  0.45682  0.00000  0.08637
       7     H     0.46724  0.46724  0.00000  0.06551
       8     C     3.09836  3.09836  0.00000 -0.19671
       9     H     0.44897  0.44897  0.00000  0.10206
      10     H     0.45753  0.45753  0.00000  0.08493
      11     C     3.08235  3.08235  0.00000 -0.16470
      12     H     0.45597  0.45597  0.00000  0.08807
      13     H     0.45334  0.45334  0.00000  0.09333
      14     C     3.15000  3.15000  0.00000 -0.30000
      15     H     0.45373  0.45373  0.00000  0.09254
      16     H     0.45342  0.45342  0.00000  0.09316
      17     H     0.45539  0.45539  0.00000  0.08922
      18     H     0.44861  0.44861  0.00000  0.10278
      19     H     0.45554  0.45554  0.00000  0.08893

   Total alpha = 25.00000, Total beta = 25.00000, Total charge = -0.00000

*** Psi4 exiting successfully. Buy a developer a beer!
