                              Psi4 1.0.54 Driver

  ==> Input File <==

--------------------------------------------------------------------------
set {
	reference rhf
	basis cc-pvtz
}

set_num_threads( 4 )
memory 2 gb

molecule MOL {
0 1

H	 -2.816458	 -0.841657	 -0.064679
N	 -1.878861	 -0.711874	 0.250184
C	 -1.341419	 0.551458	 -0.220231
H	 -1.333674	 -1.468530	 -0.105118
C	 -2.032126	 1.708863	 0.463864
H	 -0.268033	 0.650897	 -0.063715
H	 -1.523284	 0.630620	 -1.286397
O	 -1.733606	 1.669409	 1.826595
H	 -1.691202	 2.649400	 0.033359
H	 -3.106599	 1.634327	 0.312597
C	 -2.367215	 2.646429	 2.583690
H	 -2.061034	 2.520610	 3.612188
H	 -2.088853	 3.645962	 2.256362
H	 -3.449281	 2.554756	 2.526323

	symmetry c1
}
set optking {
	frozen_dihedral = ("
		6 3 2 4
	")
}

ee,wfn = optimize('scf', return_wfn=True)
oeprop( wfn, 'DIPOLE', 'QUADRUPOLE', 'MULLIKEN_CHARGES')
f=open( 'psi4out.xyz', 'w' )
f.write( "14  " )
f.write( str(ee) + "\n" )
f.write( MOL.save_string_xyz() )
f.close()
--------------------------------------------------------------------------

    Molecular point group: c1
  Charge       = 0
  Multiplicity = 1
  Basis Set: CC-PVTZ
  Basis Set:
  @DF-RHF Final Energy:  -248.21918097460389
    Total Energy =                       -248.2191809746039439
    Molecular point group: c1
  Basis Set: CC-PVTZ
  Basis Set:
  Basis Set: CC-PVTZ
  Basis Set:
  @DF-RHF Final Energy:  -248.22097637604247
    Total Energy =                       -248.2209763760423584
  Basis Set: CC-PVTZ
  Basis Set:
  Basis Set: CC-PVTZ
  Basis Set:
  @DF-RHF Final Energy:  -248.22147247735165
    Total Energy =                       -248.2214724773518810
  Basis Set: CC-PVTZ
  Basis Set:
  Basis Set: CC-PVTZ
  Basis Set:
  @DF-RHF Final Energy:  -248.22149274378253
    Total Energy =                       -248.2214927437826191
  Basis Set: CC-PVTZ
  Basis Set:
  Charge       = 0
  Multiplicity = 1
  Basis Set: CC-PVTZ
  Basis Set:

    Orbital Energies (a.u.)
    -----------------------

    Doubly Occupied:

       1A    -20.543565     2A    -15.526160     3A    -11.264265
       4A    -11.259003     5A    -11.241566     6A     -1.379942
       7A     -1.177749     8A     -0.999721     9A     -0.903435
      10A     -0.818491    11A     -0.683383    12A     -0.668204
      13A     -0.648590    14A     -0.619858    15A     -0.596794
      16A     -0.551375    17A     -0.520732    18A     -0.502644
      19A     -0.465372    20A     -0.415256    21A     -0.383672

  @DF-RHF Final Energy:  -248.22149489082057

   => Energetics <=

    Nuclear Repulsion Energy =            193.4645490656795346
    One-Electron Energy =                -721.0325363360955180
    Two-Electron Energy =                 279.3464923795955315
    DFT Exchange-Correlation Energy =       0.0000000000000000
    Empirical Dispersion Energy =           0.0000000000000000
    PCM Polarization Energy =               0.0000000000000000
    EFP Energy =                            0.0000000000000000
    Total Energy =                       -248.2214948908204519
    Molecular point group: c1
  Basis Set: CC-PVTZ
  Basis Set:

  -Total Gradient:
     Atom            X                  Y                   Z
    ------   -----------------  -----------------  -----------------
       1        0.000000820410    -0.000005157284     0.000010943403
       2       -0.000010803708     0.000078036335    -0.000132613217
       3       -0.000101235027     0.000069786440     0.000099174215
       4        0.000042711219    -0.000039790137     0.000057095135
       5        0.000061522269    -0.000078799514     0.000037027304
       6        0.000052870122    -0.000032839996    -0.000031120501
       7       -0.000023411385    -0.000018270672     0.000044901861
       8        0.000019087959    -0.000022307881    -0.000087503015
       9        0.000012627781     0.000009621808     0.000024575862
      10       -0.000039563201    -0.000006482390    -0.000034878318
      11        0.000017328987     0.000055824902    -0.000006408359
      12       -0.000005812135    -0.000010485605    -0.000003714897
      13       -0.000011423066     0.000003209455     0.000014951974
      14       -0.000014720226    -0.000002345459     0.000007568554

  **** Optimization is complete! (in 5 steps) ****
    Final optimized geometry and variables:
    Molecular point group: c1

    Geometry (in Angstrom), charge = 0, multiplicity = 1:

    H           -0.999596393757    -1.978834131722    -1.234842691226
    N           -0.067571650266    -1.871765070268    -0.893870162879
    C            0.473879258058    -0.571307937108    -1.242662131610
    H            0.480596857760    -2.607047548457    -1.285201204691
    C           -0.179387238808     0.544450123158    -0.453626931843
    H            1.532891295392    -0.569396788284    -1.016417281018
    H            0.369139846438    -0.333768684733    -2.301949504022
    O            0.218511158082     0.489698989932     0.875825729053
    H            0.103590858079     1.502676437014    -0.889753479620
    H           -1.264897148212     0.463437333305    -0.529060085286
    C           -0.387819300823     1.430463903209     1.695621462790
    H            0.002916871650     1.300228235274     2.694356466713
    H           -0.174878699417     2.446306620574     1.366960399763
    H           -1.467598006130     1.298982453138     1.723611632409

  Mulliken Charges: (a.u.)
   Center  Symbol    Alpha    Beta     Spin     Total
       1     H     0.43277  0.43277  0.00000  0.13447
       2     N     3.68505  3.68505  0.00000 -0.37009
       3     C     3.02514  3.02514  0.00000 -0.05028
       4     H     0.42851  0.42851  0.00000  0.14297
       5     C     2.96039  2.96039  0.00000  0.07922
       6     H     0.45403  0.45403  0.00000  0.09195
       7     H     0.46897  0.46897  0.00000  0.06207
       8     O     4.16674  4.16674  0.00000 -0.33348
       9     H     0.47315  0.47315  0.00000  0.05370
      10     H     0.48006  0.48006  0.00000  0.03988
      11     C     3.03204  3.03204  0.00000 -0.06409
      12     H     0.44668  0.44668  0.00000  0.10664
      13     H     0.47414  0.47414  0.00000  0.05172
      14     H     0.47234  0.47234  0.00000  0.05531

   Total alpha = 21.00000, Total beta = 21.00000, Total charge =  0.00000

*** Psi4 exiting successfully. Buy a developer a beer!
