  ==> Input File <==

--------------------------------------------------------------------------
set {
	reference rhf
	basis cc-pvtz
}

set_num_threads( 4 )
memory 2 gb

molecule MOL {
0 1

H	 1.563004	 0.772118	 -3.121514
O	 2.096392	 0.932625	 -2.363585
C	 1.410119	 0.726112	 -1.225621
C	 2.080905	 0.927964	 -0.027948
C	 0.090074	 0.328884	 -1.218485
H	 3.107065	 1.236756	 -0.056205
C	 1.429524	 0.731951	 1.168143
H	 -0.451551	 0.165899	 -2.126987
C	 -0.532034	 0.141680	 0.000000
H	 1.955944	 0.890361	 2.088761
C	 0.103742	 0.332997	 1.201028
N	 -1.937041	 -0.281114	 0.000000
H	 -0.414653	 0.177002	 2.121709
O	 -2.159542	 -1.446261	 0.000000
O	 -2.764978	 0.565773	 0.000000

	symmetry c1
}
set optking {
	frozen_dihedral = ("
		11 9 12 14
	")
}

ee = optimize('scf')
oeprop('DIPOLE', 'QUADRUPOLE', 'MULLIKEN_CHARGES')
f=open( 'psi4out.xyz', 'w' )
f.write( "15  " )
f.write( str(ee) + "\n" )
f.write( MOL.save_string_xyz() )
f.close()
--------------------------------------------------------------------------

    Molecular point group: c1
  Charge       = 0
  Multiplicity = 1
  Basis Set: CC-PVTZ
  Basis Set:
  @DF-RHF Final Energy:  -509.20929071642360
    Total Energy =                       -509.2092907164236522
    Molecular point group: c1
  Basis Set: CC-PVTZ
  Basis Set:
  Basis Set: CC-PVTZ
  Basis Set:
  @DF-RHF Final Energy:  -509.20934837887916
    Total Energy =                       -509.2093483788789854
  Basis Set: CC-PVTZ
  Basis Set:
  Basis Set: CC-PVTZ
  Basis Set:
  @DF-RHF Final Energy:  -509.20921825878929
    Total Energy =                       -509.2092182587894058
  Basis Set: CC-PVTZ
  Basis Set:
  Basis Set: CC-PVTZ
  Basis Set:
  @DF-RHF Final Energy:  -509.20950535386697
    Total Energy =                       -509.2095053538669163
  Basis Set: CC-PVTZ
  Basis Set:
  Basis Set: CC-PVTZ
  Basis Set:
  @DF-RHF Final Energy:  -509.20951275019371
    Total Energy =                       -509.2095127501936531
  Basis Set: CC-PVTZ
  Basis Set:
  Charge       = 0
  Multiplicity = 1
  Basis Set: CC-PVTZ
  Basis Set:

    Orbital Energies (a.u.)
    -----------------------

    Doubly Occupied:

       1A    -20.610730     2A    -20.601249     3A    -20.601177
       4A    -15.851109     5A    -11.330954     6A    -11.315222
       7A    -11.265355     8A    -11.263949     9A    -11.257599
      10A    -11.249742    11A     -1.648819    12A     -1.443734
      13A     -1.432104    14A     -1.204644    15A     -1.096591
      16A     -1.050037    17A     -0.966801    18A     -0.887369
      19A     -0.834245    20A     -0.794024    21A     -0.769016
      22A     -0.741350    23A     -0.724914    24A     -0.712757
      25A     -0.672321    26A     -0.636097    27A     -0.624046
      28A     -0.596186    29A     -0.565912    30A     -0.550414
      31A     -0.538972    32A     -0.495840    33A     -0.486968
      34A     -0.462141    35A     -0.376380    36A     -0.346318

  @DF-RHF Final Energy:  -509.20952729850103

   => Energetics <=

    Nuclear Repulsion Energy =            503.7631216670574759
    One-Electron Energy =               -1693.9351219614620732
    Two-Electron Energy =                 680.9624729959032265
    DFT Exchange-Correlation Energy =       0.0000000000000000
    Empirical Dispersion Energy =           0.0000000000000000
    PCM Polarization Energy =               0.0000000000000000
    EFP Energy =                            0.0000000000000000
    Total Energy =                       -509.2095272985013708
    Molecular point group: c1
  Basis Set: CC-PVTZ
  Basis Set:

  -Total Gradient:
     Atom            X                  Y                   Z
    ------   -----------------  -----------------  -----------------
       1        0.000000566519     0.000000684257     0.000002203044
       2        0.000029661297     0.000015694614    -0.000042958818
       3       -0.000041079029    -0.000056969174     0.000025290760
       4        0.000014427287     0.000040466026     0.000029499646
       5        0.000011833052     0.000015705850    -0.000027516058
       6       -0.000009745138    -0.000008452988    -0.000007112904
       7        0.000040736357     0.000004293320    -0.000003218961
       8       -0.000001249882     0.000000180036    -0.000008653765
       9       -0.000022850844    -0.000016362037     0.000053625443
      10        0.000001511730    -0.000001030329     0.000006917001
      11       -0.000035710223     0.000003363694    -0.000041998966
      12        0.000016132124     0.000140104709     0.000026832722
      13       -0.000002540111    -0.000003221165     0.000014024535
      14       -0.000031523025    -0.000081700056    -0.000022625745
      15        0.000029829895    -0.000052756758    -0.000004307930

  **** Optimization is complete! (in 6 steps) ****
    Final optimized geometry and variables:
    Molecular point group: c1

    Geometry (in Angstrom), charge = 0, multiplicity = 1:

    H            1.639653576564     0.493641696882    -2.831456504497
    O            2.172002155647     0.653899338948    -2.072841171179
    C            1.488860378900     0.448187405758    -0.935449392594
    C            2.160251643476     0.650457909703     0.261630014455
    C            0.165886909190     0.050058466273    -0.928200761379
    H            3.185994907130     0.959236255726     0.233181069921
    C            1.507861180964     0.453888688810     1.456525912245
    H           -0.374138238724    -0.112354500629    -1.841276704431
    C           -0.446657371138    -0.134514421682     0.290022246727
    H            2.034533109131     0.612406368621     2.377253306874
    C            0.180959443688     0.054315369005     1.491073384739
    N           -1.851287760463    -0.557295119808     0.287884736908
    H           -0.336093475007    -0.101575649825     2.415941554468
    O           -2.062514908938    -1.722099456143     0.287036310034
    O           -2.670319931061     0.297285262127     0.284396526979

  Mulliken Charges: (a.u.)
   Center  Symbol    Alpha    Beta     Spin     Total
       1     H     0.38450  0.38450  0.00000  0.23100
       2     O     4.16726  4.16726  0.00000 -0.33453
       3     C     2.84085  2.84085  0.00000  0.31830
       4     C     3.11034  3.11034  0.00000 -0.22069
       5     C     3.13711  3.13711  0.00000 -0.27423
       6     H     0.41439  0.41439  0.00000  0.17123
       7     C     3.04795  3.04795  0.00000 -0.09591
       8     H     0.42427  0.42427  0.00000  0.15145
       9     C     2.91905  2.91905  0.00000  0.16191
      10     H     0.41629  0.41629  0.00000  0.16743
      11     C     3.10510  3.10510  0.00000 -0.21020
      12     N     3.29313  3.29313  0.00000  0.41375
      13     H     0.41561  0.41561  0.00000  0.16879
      14     O     4.16211  4.16211  0.00000 -0.32422
      15     O     4.16204  4.16204  0.00000 -0.32408

   Total alpha = 36.00000, Total beta = 36.00000, Total charge = -0.00000
