                              Psi4 1.0.54 Driver

  ==> Input File <==

--------------------------------------------------------------------------
set {
	reference rhf
	basis cc-pvtz
}

set_num_threads( 4 )
memory 2 gb

molecule MOL {
0 1

H	 -3.258660	 -0.290394	 1.471450
C	 -3.307964	 -0.275695	 0.374072
C	 -2.653809	 0.914422	 -0.273689
O	 -3.855140	 -1.148880	 -0.205112
C	 -1.267437	 1.215818	 0.303208
H	 -2.613533	 0.746239	 -1.342064
H	 -3.308282	 1.764426	 -0.093517
C	 -0.225560	 0.145453	 -0.014585
H	 -0.933696	 2.170909	 -0.087633
H	 -1.345442	 1.341344	 1.380405
C	 1.153072	 0.464908	 0.557345
H	 -0.152150	 0.030972	 -1.092830
H	 -0.557766	 -0.816459	 0.367242
C	 2.195876	 -0.601450	 0.227668
H	 1.475563	 1.430003	 0.179275
H	 1.077939	 0.569167	 1.637522
C	 3.573811	 -0.365820	 0.848695
H	 2.299273	 -0.680304	 -0.852089
H	 1.825827	 -1.565008	 0.566673
C	 4.311354	 0.861832	 0.319557
H	 4.185618	 -1.243789	 0.666340
H	 3.471971	 -0.287734	 1.927971
H	 4.422161	 0.814496	 -0.759089
H	 3.792150	 1.782162	 0.558526
H	 5.304106	 0.928305	 0.749661

	symmetry c1
}
set optking {
	frozen_dihedral = ("
		6 3 2 4
	")
}

ee,wfn = optimize('scf', return_wfn=True)
oeprop( wfn, 'DIPOLE', 'QUADRUPOLE', 'MULLIKEN_CHARGES')
f=open( 'psi4out.xyz', 'w' )
f.write( "25  " )
f.write( str(ee) + "\n" )
f.write( MOL.save_string_xyz() )
f.close()
--------------------------------------------------------------------------

    Molecular point group: c1
  Charge       = 0
  Multiplicity = 1
  Basis Set: CC-PVTZ
  Basis Set:
  @DF-RHF Final Energy:  -387.26037025855464
    Total Energy =                       -387.2603702585544170
    Molecular point group: c1
  Basis Set: CC-PVTZ
  Basis Set:
  Basis Set: CC-PVTZ
  Basis Set:
  @DF-RHF Final Energy:  -387.26021787280860
    Total Energy =                       -387.2602178728084255
  Basis Set: CC-PVTZ
  Basis Set:
  Basis Set: CC-PVTZ
  Basis Set:
  @DF-RHF Final Energy:  -387.26037778732479
    Total Energy =                       -387.2603777873245008
  Basis Set: CC-PVTZ
  Basis Set:
  Basis Set: CC-PVTZ
  Basis Set:
  @DF-RHF Final Energy:  -387.26037516597518
    Total Energy =                       -387.2603751659752334
  Basis Set: CC-PVTZ
  Basis Set:
  Charge       = 0
  Multiplicity = 1
  Basis Set: CC-PVTZ
  Basis Set:

    Orbital Energies (a.u.)
    -----------------------

    Doubly Occupied:

       1A    -20.551219     2A    -11.321081     3A    -11.233818
       4A    -11.232566     5A    -11.222353     6A    -11.218102
       7A    -11.216558     8A    -11.215416     9A    -11.209087
      10A     -1.406358    11A     -1.105716    12A     -1.071278
      13A     -1.014811    14A     -0.943637    15A     -0.876075
      16A     -0.821489    17A     -0.789111    18A     -0.782284
      19A     -0.667553    20A     -0.662787    21A     -0.635355
      22A     -0.628579    23A     -0.604198    24A     -0.596494
      25A     -0.576335    26A     -0.550296    27A     -0.537054
      28A     -0.528893    29A     -0.508399    30A     -0.498001
      31A     -0.492326    32A     -0.480172    33A     -0.465553
      34A     -0.459746    35A     -0.443050    36A     -0.411842

  @DF-RHF Final Energy:  -387.26037881009205

   => Energetics <=

    Nuclear Repulsion Energy =            439.3547622465724203
    One-Electron Energy =               -1395.2751010749061606
    Two-Electron Energy =                 568.6599600182414633
    DFT Exchange-Correlation Energy =       0.0000000000000000
    Empirical Dispersion Energy =           0.0000000000000000
    PCM Polarization Energy =               0.0000000000000000
    EFP Energy =                            0.0000000000000000
    Total Energy =                       -387.2603788100923339
    Molecular point group: c1
  Basis Set: CC-PVTZ
  Basis Set:

  -Total Gradient:
     Atom            X                  Y                   Z
    ------   -----------------  -----------------  -----------------
       1        0.000011408834     0.000012667680     0.000069779743
       2        0.000586396050    -0.000382269996     0.000005754837
       3       -0.000569783930     0.000294837119    -0.000102865230
       4       -0.000341582052     0.000241041862    -0.000015375945
       5        0.000006821788    -0.000032720642     0.000041362463
       6        0.000358337072    -0.000169742495    -0.000021511863
       7       -0.000034093162     0.000026205440     0.000019743803
       8       -0.000018258569    -0.000001101731    -0.000006244090
       9       -0.000019051659    -0.000002767436    -0.000013400378
      10        0.000017517754     0.000010218241     0.000021399212
      11        0.000002627366     0.000000071271     0.000009084494
      12        0.000003905896    -0.000001326157    -0.000004212353
      13       -0.000008419451    -0.000002933962    -0.000000838486
      14       -0.000000434275     0.000003212820    -0.000004428646
      15        0.000008687568     0.000003076651     0.000000894882
      16       -0.000002468897    -0.000000754637     0.000003913557
      17       -0.000005125178     0.000003696504    -0.000002259534
      18       -0.000001199981    -0.000002395297    -0.000003255076
      19       -0.000001266266     0.000000257075     0.000002129210
      20        0.000007141574    -0.000000260163     0.000001973809
      21        0.000001666393    -0.000003863504    -0.000001780397
      22       -0.000000921719     0.000000386712     0.000004542710
      23        0.000001554398     0.000000088555    -0.000005871071
      24       -0.000004656712     0.000002878217     0.000001757359
      25        0.000001197156     0.000001497872    -0.000000293013

  **** Optimization is complete! (in 5 steps) ****
    Final optimized geometry and variables:
    Molecular point group: c1

    Geometry (in Angstrom), charge = 0, multiplicity = 1:

    H           -3.269348533507    -0.419832835136     1.226640762483
    C           -3.305446789612    -0.405758324449     0.128643171707
    C           -2.646371067987     0.785247938963    -0.514066472878
    O           -3.851983444083    -1.275203744035    -0.456568617880
    C           -1.262666611918     1.088151127427     0.065695511456
    H           -2.603380848694     0.618773966236    -1.582761039285
    H           -3.304690603530     1.632894050599    -0.335817163561
    C           -0.220899307559     0.016490716731    -0.248175059459
    H           -0.926975589050     2.042425474767    -0.325512221726
    H           -1.343111928058     1.215042334567     1.142569024443
    C            1.157114379303     0.334835810540     0.325760797368
    H           -0.145629990448    -0.099971537702    -1.326136703803
    H           -0.554828453966    -0.944641170884     0.134882209534
    C            2.199033395885    -0.733555198134    -0.000026384299
    H            1.481548069140     1.298786994177    -0.053540518558
    H            1.080074062199     0.441229523307     1.405580766782
    C            3.575806136178    -0.498986145778     0.623897904984
    H            2.304911617996    -0.814052347844    -1.079424400238
    H            1.826818922325    -1.696130195555     0.339491694081
    C            4.315992669134     0.727228339003     0.095089236487
    H            4.186920628220    -1.377923250761     0.443871058814
    H            3.471531783889    -0.419615369574     1.702845454603
    H            4.428519220481     0.678914874413    -0.983338782238
    H            3.797759829408     1.648508682551     0.332534906508
    H            5.308122240522     0.792543342571     0.526791603626

  Mulliken Charges: (a.u.)
   Center  Symbol    Alpha    Beta     Spin     Total
       1     H     0.46379  0.46379  0.00000  0.07242
       2     C     2.90586  2.90586  0.00000  0.18829
       3     C     3.08917  3.08917  0.00000 -0.17833
       4     O     4.16596  4.16596  0.00000 -0.33193
       5     C     3.11612  3.11612  0.00000 -0.23224
       6     H     0.44249  0.44249  0.00000  0.11503
       7     H     0.44008  0.44008  0.00000  0.11983
       8     C     3.08997  3.08997  0.00000 -0.17995
       9     H     0.44298  0.44298  0.00000  0.11405
      10     H     0.44995  0.44995  0.00000  0.10010
      11     C     3.09301  3.09301  0.00000 -0.18602
      12     H     0.44975  0.44975  0.00000  0.10051
      13     H     0.44841  0.44841  0.00000  0.10318
      14     C     3.09564  3.09564  0.00000 -0.19127
      15     H     0.45134  0.45134  0.00000  0.09733
      16     H     0.45416  0.45416  0.00000  0.09168
      17     C     3.09076  3.09076  0.00000 -0.18152
      18     H     0.45293  0.45293  0.00000  0.09413
      19     H     0.44794  0.44794  0.00000  0.10411
      20     C     3.15269  3.15269  0.00000 -0.30538
      21     H     0.44762  0.44762  0.00000  0.10477
      22     H     0.45468  0.45468  0.00000  0.09065
      23     H     0.45451  0.45451  0.00000  0.09099
      24     H     0.45437  0.45437  0.00000  0.09127
      25     H     0.44584  0.44584  0.00000  0.10832

   Total alpha = 36.00000, Total beta = 36.00000, Total charge = -0.00000

*** Psi4 exiting successfully. Buy a developer a beer!
