  ==> Input File <==

--------------------------------------------------------------------------
set {
	reference rhf
	basis 6-31G*
}

set_num_threads( 1 )
memory 2 gb

molecule MOL {
0 1

O	 0.398782	 0.250070	 0.934403
C	 1.122059	 0.121804	 -0.000188
C	 0.983542	 0.836322	 -1.322372
O	 2.172624	 -0.688929	 0.000216
C	 -0.211538	 1.782931	 -1.377674
H	 1.914473	 1.366569	 -1.503922
H	 0.920345	 0.076773	 -2.096869
C	 -0.328723	 2.493115	 -2.727219
H	 -0.124857	 2.516415	 -0.582066
H	 -1.120427	 1.224811	 -1.175369
C	 -1.524272	 3.442589	 -2.791753
H	 0.584821	 3.050126	 -2.925343
H	 -0.412694	 1.753585	 -3.521017
H	 -1.452159	 4.215063	 -2.031662
H	 -1.584218	 3.933135	 -3.758214
H	 -2.456821	 2.909168	 -2.632213
C	 3.452279	 -0.082609	 0.000533
H	 3.583069	 0.529321	 -0.880332
H	 4.163299	 -0.894027	 0.001117
H	 3.582335	 0.529955	 0.881077

	symmetry c1
}
set optking {
	frozen_dihedral = ("
		9 5 8 12,
		1 2 3 6,
		9 5 3 6
	")
}

ee = energy('scf')
oeprop('DIPOLE', 'QUADRUPOLE', 'MULLIKEN_CHARGES')
f=open( 'psi4out.xyz', 'w' )
f.write( "20  " )
f.write( str(ee) + "\n" )
f.write( MOL.save_string_xyz() )
f.close()
--------------------------------------------------------------------------

    Molecular point group: c1

    Geometry (in Angstrom), charge = 0, multiplicity = 1:

       Center              X                  Y                   Z               Mass
    ------------   -----------------  -----------------  -----------------  -----------------
           O         -0.382603968418    -0.762019998067     1.830807673080    15.994914619560
           C          0.340673031582    -0.890285998067     0.896216673080    12.000000000000
           C          0.202156031582    -0.175767998067    -0.425967326920    12.000000000000
           O          1.391238031582    -1.701018998067     0.896620673080    15.994914619560
           C         -0.992923968418     0.770841001933    -0.481269326920    12.000000000000
           H          1.133087031582     0.354479001933    -0.607517326920     1.007825032070
           H          0.138959031582    -0.935316998067    -1.200464326920     1.007825032070
           C         -1.110108968418     1.481025001933    -1.830814326920    12.000000000000
           H         -0.906242968418     1.504325001933     0.314338673080     1.007825032070
           H         -1.901812968418     0.212721001933    -0.278964326920     1.007825032070
           C         -2.305657968418     2.430499001933    -1.895348326920    12.000000000000
           H         -0.196564968418     2.038036001933    -2.028938326920     1.007825032070
           H         -1.194079968418     0.741495001933    -2.624612326920     1.007825032070
           H         -2.233544968418     3.202973001933    -1.135257326920     1.007825032070
           H         -2.365603968418     2.921045001933    -2.861809326920     1.007825032070
           H         -3.238206968418     1.897078001933    -1.735808326920     1.007825032070
           C          2.670893031582    -1.094698998067     0.896937673080    12.000000000000
           H          2.801683031582    -0.482768998067     0.016072673080     1.007825032070
           H          3.381913031582    -1.906116998067     0.897521673080     1.007825032070
           H          2.800949031582    -0.482134998067     1.777481673080     1.007825032070

  Charge       = 0
  Multiplicity = 1
  Basis Set: 6-31G*
  Basis Set:

    Orbital Energies (a.u.)
    -----------------------

    Doubly Occupied:

       1A    -20.590348     2A    -20.554388     3A    -11.374099
       4A    -11.297155     5A    -11.238124     6A    -11.222445
       7A    -11.221283     8A    -11.212278     9A     -1.464543
      10A     -1.368918    11A     -1.089751    12A     -1.018252
      13A     -0.981132    14A     -0.899443    15A     -0.808684
      16A     -0.768602    17A     -0.695955    18A     -0.682648
      19A     -0.679318    20A     -0.646560    21A     -0.619072
      22A     -0.589836    23A     -0.586778    24A     -0.556405
      25A     -0.538885    26A     -0.516964    27A     -0.493479
      28A     -0.484940    29A     -0.479553    30A     -0.472590
      31A     -0.454050    32A     -0.431861

  @DF-RHF Final Energy:  -383.91722782311729

   => Energetics <=

    Nuclear Repulsion Energy =            383.8928830360611073
    One-Electron Energy =               -1283.5436019153821690
    Two-Electron Energy =                 515.7334910562052528
    DFT Exchange-Correlation Energy =       0.0000000000000000
    Empirical Dispersion Energy =           0.0000000000000000
    PCM Polarization Energy =               0.0000000000000000
    EFP Energy =                            0.0000000000000000
    Total Energy =                       -383.9172278231158089

  Mulliken Charges: (a.u.)
   Center  Symbol    Alpha    Beta     Spin     Total
       1     O     4.25826  4.25826  0.00000 -0.51652
       2     C     2.61165  2.61165  0.00000  0.77669
       3     C     3.21990  3.21990  0.00000 -0.43980
       4     O     4.30714  4.30714  0.00000 -0.61428
       5     C     3.15043  3.15043  0.00000 -0.30087
       6     H     0.40811  0.40811  0.00000  0.18378
       7     H     0.39863  0.39863  0.00000  0.20273
       8     C     3.15393  3.15393  0.00000 -0.30785
       9     H     0.41288  0.41288  0.00000  0.17423
      10     H     0.41020  0.41020  0.00000  0.17960
      11     C     3.23939  3.23939  0.00000 -0.47878
      12     H     0.42456  0.42456  0.00000  0.15087
      13     H     0.42281  0.42281  0.00000  0.15438
      14     H     0.42005  0.42005  0.00000  0.15990
      15     H     0.41872  0.41872  0.00000  0.16257
      16     H     0.41931  0.41931  0.00000  0.16138
      17     C     3.09558  3.09558  0.00000 -0.19116
      18     H     0.41936  0.41936  0.00000  0.16128
      19     H     0.39925  0.39925  0.00000  0.20150
      20     H     0.40983  0.40983  0.00000  0.18035

   Total alpha = 32.00000, Total beta = 32.00000, Total charge =  0.00000
