  ==> Input File <==

--------------------------------------------------------------------------
set {
	reference rhf
	basis 6-31G*
}

set_num_threads( 4 )
memory 2 gb

molecule MOL {
0 1

H	 -3.892951	 0.981613	 -0.358725
C	 -3.196921	 0.361773	 0.172313
C	 -2.076860	 -0.007332	 -0.404944
H	 -3.439953	 0.057760	 1.173024
O	 -1.241145	 0.887938	 -0.993954
H	 -1.745422	 -1.030435	 -0.429525
C	 -0.172597	 0.402160	 -1.731567
C	 -0.565798	 0.114299	 -3.162938
H	 0.243245	 -0.504665	 -1.306784
H	 0.592079	 1.164768	 -1.745215
F	 0.494441	 -0.311140	 -3.834280
F	 -1.492458	 -0.826746	 -3.237548
F	 -1.030223	 1.184775	 -3.773496

	symmetry c1
}
set optking {
	frozen_dihedral = ("
		6 3 2 1
	")
}

ee = optimize('scf')
oeprop('DIPOLE', 'QUADRUPOLE', 'MULLIKEN_CHARGES')
f=open( 'psi4out.xyz', 'w' )
f.write( "13  " )
f.write( str(ee) + "\n" )
f.write( MOL.save_string_xyz() )
f.close()
--------------------------------------------------------------------------

    Molecular point group: c1
  Charge       = 0
  Multiplicity = 1
  Basis Set: 6-31G*
  Basis Set:
  @DF-RHF Final Energy:  -527.48226529595286
    Total Energy =                       -527.4822652959535390
    Molecular point group: c1
  Basis Set: 6-31G*
  Basis Set:
  Basis Set: 6-31G*
  Basis Set:
  @DF-RHF Final Energy:  -527.50355369511590
    Total Energy =                       -527.5035536951162385
  Basis Set: 6-31G*
  Basis Set:
  Basis Set: 6-31G*
  Basis Set:
  @DF-RHF Final Energy:  -527.51371995297382
    Total Energy =                       -527.5137199529734744
  Basis Set: 6-31G*
  Basis Set:
  Basis Set: 6-31G*
  Basis Set:
  @DF-RHF Final Energy:  -527.51421501494565
    Total Energy =                       -527.5142150149451936
  Basis Set: 6-31G*
  Basis Set:
  @DF-RHF Final Energy:  -527.51428532330135
    Total Energy =                       -527.5142853233015785
  @DF-RHF Final Energy:  -527.49458234176245
    Total Energy =                       -527.4945823417619977
  @DF-RHF Final Energy:  -527.50882065133430
    Total Energy =                       -527.5088206513341902
  @DF-RHF Final Energy:  -527.46454425535194
    Total Energy =                       -527.4645442553523935
  @DF-RHF Final Energy:  -527.50537432135809
    Total Energy =                       -527.5053743213577491
  @DF-RHF Final Energy:  -527.51393806319743
    Total Energy =                       -527.5139380631972017
  @DF-RHF Final Energy:  -527.51427958263798
    Total Energy =                       -527.5142795826379825
  Basis Set: 6-31G*
  Basis Set:
  @DF-RHF Final Energy:  -527.51430509873967
    Total Energy =                       -527.5143050987395554
  Basis Set: 6-31G*
  Basis Set:
  Basis Set: 6-31G*
  Basis Set:
  @DF-RHF Final Energy:  -527.51430991620805
    Total Energy =                       -527.5143099162078215
  Basis Set: 6-31G*
  Basis Set:
  Basis Set: 6-31G*
  Basis Set:
  @DF-RHF Final Energy:  -527.51431121807718
    Total Energy =                       -527.5143112180769549
  Basis Set: 6-31G*
  Basis Set:
  Charge       = 0
  Multiplicity = 1
  Basis Set: 6-31G*
  Basis Set:

    Orbital Energies (a.u.)
    -----------------------

    Doubly Occupied:

       1A    -26.345971     2A    -26.345908     3A    -26.342021
       4A    -20.607130     5A    -11.504360     6A    -11.318530
       7A    -11.304292     8A    -11.216591     9A     -1.743246
      10A     -1.641476    11A     -1.639803    12A     -1.436833
      13A     -1.084847    14A     -1.017099    15A     -0.926179
      16A     -0.838004    17A     -0.832548    18A     -0.822762
      19A     -0.791135    20A     -0.723409    21A     -0.712355
      22A     -0.696966    23A     -0.675896    24A     -0.661075
      25A     -0.655918    26A     -0.644797    27A     -0.633532
      28A     -0.586764    29A     -0.561027    30A     -0.526412
      31A     -0.506953    32A     -0.345065

  @DF-RHF Final Energy:  -527.51431173205901

   => Energetics <=

    Nuclear Repulsion Energy =            414.1382975843491181
    One-Electron Energy =               -1551.9274062591232450
    Two-Electron Energy =                 610.2747969427150565
    DFT Exchange-Correlation Energy =       0.0000000000000000
    Empirical Dispersion Energy =           0.0000000000000000
    PCM Polarization Energy =               0.0000000000000000
    EFP Energy =                            0.0000000000000000
    Total Energy =                       -527.5143117320590136
    Molecular point group: c1
  Basis Set: 6-31G*
  Basis Set:

  -Total Gradient:
     Atom            X                  Y                   Z
    ------   -----------------  -----------------  -----------------
       1       -0.013566906492    -0.019187615962    -0.016273897378
       2        0.014836192907     0.028811057627     0.011362210747
       3        0.009367765002    -0.012409005423     0.031433035060
       4       -0.000044546761     0.000034852352     0.000008048199
       5        0.000124218879     0.000195634776    -0.000042344683
       6       -0.010731603474     0.002531463146    -0.026494453894
       7        0.000029001892     0.000033124476     0.000007854056
       8       -0.000024798489     0.000001884801     0.000018608286
       9        0.000001443596     0.000002612883    -0.000019908396
      10        0.000041419873    -0.000005333628    -0.000007711200
      11       -0.000053506025     0.000013933037     0.000035381757
      12        0.000005656286    -0.000043788056    -0.000006591788
      13        0.000015662809     0.000021179972    -0.000020230771

  **** Optimization is complete! (in 15 steps) ****
    Final optimized geometry and variables:
    Molecular point group: c1

    Geometry (in Angstrom), charge = 0, multiplicity = 1:

    H           -2.612139590808     1.031225509566     2.021328741706
    C           -2.019412571425     0.246131762604     2.452120993908
    C           -0.863770423653    -0.142978244568     1.950927560451
    H           -2.588048397773    -0.497604578931     2.982790921544
    O           -0.089686175057     0.741427408575     1.258380782129
    H           -0.610152406301    -1.169041171912     1.749227372421
    C            0.956162305579     0.246660842876     0.495568629643
    C            0.503710069743    -0.124987108161    -0.898362798079
    H            1.414732424332    -0.627588275433     0.944508063630
    H            1.699388981066     1.025294176383     0.406331034268
    F            1.538971739626    -0.561063136394    -1.599902299870
    F           -0.401537548623    -1.091499892721    -0.876288013609
    F           -0.019889369531     0.898951238782    -1.539849695278

  Mulliken Charges: (a.u.)
   Center  Symbol    Alpha    Beta     Spin     Total
       1     H     0.39869  0.39869  0.00000  0.20262
       2     C     3.22729  3.22729  0.00000 -0.45458
       3     C     2.90581  2.90581  0.00000  0.18837
       4     H     0.41435  0.41435  0.00000  0.17130
       5     O     4.29723  4.29723  0.00000 -0.59446
       6     H     0.40264  0.40264  0.00000  0.19471
       7     C     3.06459  3.06459  0.00000 -0.12918
       8     C     2.45609  2.45609  0.00000  1.08783
       9     H     0.40563  0.40563  0.00000  0.18875
      10     H     0.39003  0.39003  0.00000  0.21994
      11     F     4.68224  4.68224  0.00000 -0.36448
      12     F     4.68105  4.68105  0.00000 -0.36210
      13     F     4.67436  4.67436  0.00000 -0.34871

   Total alpha = 32.00000, Total beta = 32.00000, Total charge = -0.00000
