  ==> Input File <==

--------------------------------------------------------------------------
set {
	reference rhf
	basis 6-31G*
}

set_num_threads( 1 )
memory 2 gb

molecule MOL {
0 1

H	 4.733570	 2.713882	 -1.260835
C	 3.913632	 2.497869	 -1.938745
C	 2.793217	 1.740816	 -1.226904
H	 3.554281	 3.442995	 -2.334908
H	 4.313502	 1.921325	 -2.768505
C	 1.622829	 1.413920	 -2.157036
H	 2.436096	 2.332655	 -0.390368
H	 3.191485	 0.816464	 -0.811396
C	 0.493392	 0.640080	 -1.476735
H	 1.220953	 2.331415	 -2.572178
H	 1.988039	 0.821326	 -2.992796
C	 -0.317344	 1.458773	 -0.482908
H	 -0.208765	 0.279516	 -2.226894
H	 0.875526	 -0.249241	 -0.980492
C	 -1.181045	 0.701995	 0.511084
O	 -0.294741	 2.652860	 -0.490152
C	 -2.285934	 -0.139295	 -0.145128
H	 -1.616067	 1.437488	 1.177058
H	 -0.538713	 0.053477	 1.103974
C	 -3.651768	 0.085446	 0.506485
H	 -2.346596	 0.110469	 -1.202272
H	 -2.034737	 -1.195320	 -0.088721
C	 -4.759797	 -0.746382	 -0.137905
H	 -3.908762	 1.140117	 0.445781
H	 -3.588286	 -0.154158	 1.565709
H	 -4.868882	 -0.505166	 -1.191300
H	 -4.548009	 -1.809175	 -0.062213
H	 -5.715422	 -0.564821	 0.343442

	symmetry c1
}
set optking {
	frozen_dihedral = ("
		10 6 3 2,
		16 12 15 17
	")
}

ee = energy('scf')
oeprop('DIPOLE', 'QUADRUPOLE', 'MULLIKEN_CHARGES')
f=open( 'psi4out.xyz', 'w' )
f.write( "28  " )
f.write( str(ee) + "\n" )
f.write( MOL.save_string_xyz() )
f.close()
--------------------------------------------------------------------------

    Molecular point group: c1

    Geometry (in Angstrom), charge = 0, multiplicity = 1:

       Center              X                  Y                   Z               Mass
    ------------   -----------------  -----------------  -----------------  -----------------
           H          5.101557683763     1.677581911674    -0.551852008914     1.007825032070
           C          4.281619683763     1.461568911674    -1.229762008914    12.000000000000
           C          3.161204683763     0.704515911674    -0.517921008914    12.000000000000
           H          3.922268683763     2.406694911674    -1.625925008914     1.007825032070
           H          4.681489683763     0.885024911674    -2.059522008914     1.007825032070
           C          1.990816683763     0.377619911674    -1.448053008914    12.000000000000
           H          2.804083683763     1.296354911674     0.318614991086     1.007825032070
           H          3.559472683763    -0.219836088326    -0.102413008914     1.007825032070
           C          0.861379683763    -0.396220088326    -0.767752008914    12.000000000000
           H          1.588940683763     1.295114911674    -1.863195008914     1.007825032070
           H          2.356026683763    -0.214974088326    -2.283813008914     1.007825032070
           C          0.050643683763     0.422472911674     0.226074991086    12.000000000000
           H          0.159222683763    -0.756784088326    -1.517911008914     1.007825032070
           H          1.243513683763    -1.285541088326    -0.271509008914     1.007825032070
           C         -0.813057316237    -0.334305088326     1.220066991086    12.000000000000
           O          0.073246683763     1.616559911674     0.218830991086    15.994914619560
           C         -1.917946316237    -1.175595088326     0.563854991086    12.000000000000
           H         -1.248079316237     0.401187911674     1.886040991086     1.007825032070
           H         -0.170725316237    -0.982823088326     1.812956991086     1.007825032070
           C         -3.283780316237    -0.950854088326     1.215467991086    12.000000000000
           H         -1.978608316237    -0.925831088326    -0.493289008914     1.007825032070
           H         -1.666749316237    -2.231620088326     0.620261991086     1.007825032070
           C         -4.391809316237    -1.782682088326     0.571077991086    12.000000000000
           H         -3.540774316237     0.103816911674     1.154763991086     1.007825032070
           H         -3.220298316237    -1.190458088326     2.274691991086     1.007825032070
           H         -4.500894316237    -1.541466088326    -0.482317008914     1.007825032070
           H         -4.180021316237    -2.845475088326     0.646769991086     1.007825032070
           H         -5.347434316237    -1.601121088326     1.052424991086     1.007825032070

  Charge       = 0
  Multiplicity = 1
  Basis Set: 6-31G*
  Basis Set:

    Orbital Energies (a.u.)
    -----------------------

    Doubly Occupied:

       1A    -20.547967     2A    -11.322091     3A    -11.231463
       4A    -11.229934     5A    -11.227262     6A    -11.224739
       7A    -11.216565     8A    -11.214905     9A    -11.212366
      10A    -11.205756    11A     -1.393161    12A     -1.094782
      13A     -1.077287    14A     -1.022005    15A     -0.990332
      16A     -0.906754    17A     -0.872840    18A     -0.809297
      19A     -0.799771    20A     -0.723760    21A     -0.671394
      22A     -0.645845    23A     -0.629321    24A     -0.617864
      25A     -0.609316    26A     -0.585608    27A     -0.583452
      28A     -0.573976    29A     -0.539273    30A     -0.529487
      31A     -0.523509    32A     -0.509670    33A     -0.502172
      34A     -0.480730    35A     -0.480208    36A     -0.471912
      37A     -0.468166    38A     -0.464318    39A     -0.455217
      40A     -0.392499

  @DF-RHF Final Energy:  -426.16421188486413

   => Energetics <=

    Nuclear Repulsion Energy =            532.4836380313862492
    One-Electron Energy =               -1633.1819751055732013
    Two-Electron Energy =                 674.5341251893228218
    DFT Exchange-Correlation Energy =       0.0000000000000000
    Empirical Dispersion Energy =           0.0000000000000000
    PCM Polarization Energy =               0.0000000000000000
    EFP Energy =                            0.0000000000000000
    Total Energy =                       -426.1642118848640166

  Mulliken Charges: (a.u.)
   Center  Symbol    Alpha    Beta     Spin     Total
       1     H     0.41934  0.41934  0.00000  0.16133
       2     C     3.24012  3.24012  0.00000 -0.48025
       3     C     3.15635  3.15635  0.00000 -0.31271
       4     H     0.41831  0.41831  0.00000  0.16338
       5     H     0.42360  0.42360  0.00000  0.15279
       6     C     3.14906  3.14906  0.00000 -0.29813
       7     H     0.41049  0.41049  0.00000  0.17903
       8     H     0.42766  0.42766  0.00000  0.14467
       9     C     3.21091  3.21091  0.00000 -0.42182
      10     H     0.40668  0.40668  0.00000  0.18665
      11     H     0.42192  0.42192  0.00000  0.15615
      12     C     2.73681  2.73681  0.00000  0.52638
      13     H     0.40281  0.40281  0.00000  0.19439
      14     H     0.41309  0.41309  0.00000  0.17381
      15     C     3.20218  3.20218  0.00000 -0.40435
      16     O     4.26613  4.26613  0.00000 -0.53227
      17     C     3.16197  3.16197  0.00000 -0.32394
      18     H     0.39794  0.39794  0.00000  0.20412
      19     H     0.41052  0.41052  0.00000  0.17897
      20     C     3.15443  3.15443  0.00000 -0.30886
      21     H     0.41733  0.41733  0.00000  0.16535
      22     H     0.41685  0.41685  0.00000  0.16629
      23     C     3.24094  3.24094  0.00000 -0.48187
      24     H     0.41591  0.41591  0.00000  0.16818
      25     H     0.42018  0.42018  0.00000  0.15963
      26     H     0.42024  0.42024  0.00000  0.15951
      27     H     0.42142  0.42142  0.00000  0.15716
      28     H     0.41680  0.41680  0.00000  0.16641

   Total alpha = 40.00000, Total beta = 40.00000, Total charge =  0.00000
