  ==> Input File <==

--------------------------------------------------------------------------
set {
	reference rhf
	basis 6-31G*
}

set_num_threads( 4 )
memory 2 gb

molecule MOL {
0 1

H	 -1.502771	 -1.326448	 -0.502599
O	 -2.310168	 -0.871793	 -0.309793
C	 -2.026376	 0.340750	 0.341611
C	 -0.673256	 0.843270	 -0.132153
H	 -2.792215	 1.080697	 0.115987
H	 -2.013526	 0.200402	 1.421792
C	 0.486613	 -0.083066	 0.235839
H	 -0.715586	 0.970948	 -1.210718
H	 -0.508072	 1.829858	 0.297090
C	 1.840406	 0.433480	 -0.254303
H	 0.300215	 -1.068318	 -0.178947
H	 0.519509	 -0.203625	 1.318070
C	 3.000220	 -0.489290	 0.118523
H	 1.809207	 0.553576	 -1.335192
H	 2.021860	 1.424500	 0.157276
H	 2.864959	 -1.479103	 -0.307933
H	 3.946603	 -0.099227	 -0.243630
H	 3.080049	 -0.602997	 1.196117

	symmetry c1
}
set optking {
	frozen_dihedral = ("
		1 2 3 4
	")
}

ee = optimize('scf')
oeprop('DIPOLE', 'QUADRUPOLE', 'MULLIKEN_CHARGES')
f=open( 'psi4out.xyz', 'w' )
f.write( "18  " )
f.write( str(ee) + "\n" )
f.write( MOL.save_string_xyz() )
f.close()
--------------------------------------------------------------------------

    Molecular point group: c1
  Charge       = 0
  Multiplicity = 1
  Basis Set: 6-31G*
  Basis Set:
  @DF-RHF Final Energy:  -271.17441392813919
    Total Energy =                       -271.1744139281391881
    Molecular point group: c1
  Basis Set: 6-31G*
  Basis Set:
  Basis Set: 6-31G*
  Basis Set:
  @DF-RHF Final Energy:  -271.17608869509058
    Total Energy =                       -271.1760886950905842
  Basis Set: 6-31G*
  Basis Set:
  Basis Set: 6-31G*
  Basis Set:
  @DF-RHF Final Energy:  -271.17721969836657
    Total Energy =                       -271.1772196983664003
  Basis Set: 6-31G*
  Basis Set:
  Basis Set: 6-31G*
  Basis Set:
  @DF-RHF Final Energy:  -271.17730380630462
    Total Energy =                       -271.1773038063043941
  Basis Set: 6-31G*
  Basis Set:
  Basis Set: 6-31G*
  Basis Set:
  @DF-RHF Final Energy:  -271.17731392703843
    Total Energy =                       -271.1773139270386537
  Basis Set: 6-31G*
  Basis Set:
  Basis Set: 6-31G*
  Basis Set:
  @DF-RHF Final Energy:  -271.17731504919857
    Total Energy =                       -271.1773150491986826
  Basis Set: 6-31G*
  Basis Set:
  Charge       = 0
  Multiplicity = 1
  Basis Set: 6-31G*
  Basis Set:

    Orbital Energies (a.u.)
    -----------------------

    Doubly Occupied:

       1A    -20.549206     2A    -11.266505     3A    -11.226769
       4A    -11.223580     5A    -11.222678     6A    -11.214777
       7A     -1.356895     8A     -1.087274     9A     -1.015204
      10A     -0.924072    11A     -0.834716    12A     -0.798621
      13A     -0.676190    14A     -0.657263    15A     -0.621825
      16A     -0.613820    17A     -0.577905    18A     -0.562745
      19A     -0.536478    20A     -0.507245    21A     -0.497548
      22A     -0.479769    23A     -0.473686    24A     -0.449769
      25A     -0.429152

  @DF-RHF Final Energy:  -271.17731526420619

   => Energetics <=

    Nuclear Repulsion Energy =            248.6369721590188817
    One-Electron Energy =                -860.0211904855194689
    Two-Electron Energy =                 340.2069030622945434
    DFT Exchange-Correlation Energy =       0.0000000000000000
    Empirical Dispersion Energy =           0.0000000000000000
    PCM Polarization Energy =               0.0000000000000000
    EFP Energy =                            0.0000000000000000
    Total Energy =                       -271.1773152642060154
    Molecular point group: c1
  Basis Set: 6-31G*
  Basis Set:

  -Total Gradient:
     Atom            X                  Y                   Z
    ------   -----------------  -----------------  -----------------
       1        0.000061643674     0.000997528706    -0.001993220680
       2        0.000208771063    -0.001553974873     0.002917121298
       3       -0.000899476769     0.001323409842    -0.001929399654
       4        0.000638151982    -0.000763448109     0.001012005332
       5        0.000000610315     0.000004537010    -0.000001504091
       6       -0.000001902784    -0.000008523826    -0.000005889636
       7       -0.000005597003    -0.000012276844    -0.000012763549
       8        0.000005391201    -0.000002901369     0.000004446852
       9       -0.000007478469     0.000003717059     0.000005525360
      10       -0.000003996075    -0.000002579015    -0.000008719744
      11        0.000004436640    -0.000002404578     0.000004305507
      12       -0.000007445189     0.000007709261     0.000003388343
      13       -0.000001046074     0.000003836826     0.000004296090
      14        0.000000126006     0.000006728715    -0.000002283011
      15        0.000008089283    -0.000001725695     0.000002012886
      16       -0.000001947400     0.000002354189    -0.000000327173
      17       -0.000000508375    -0.000000040624    -0.000000065296
      18        0.000002177973    -0.000001946675     0.000001071166

  **** Optimization is complete! (in 7 steps) ****
    Final optimized geometry and variables:
    Molecular point group: c1

    Geometry (in Angstrom), charge = 0, multiplicity = 1:

    H           -1.730293195935    -1.388375398354    -0.505628803513
    O           -2.467837418213    -0.849437501701    -0.262425612313
    C           -2.024867482599     0.339887350180     0.340997170233
    C           -0.664455427553     0.817816876474    -0.156425952740
    H           -2.777706175171     1.088375958046     0.127006360773
    H           -1.990979390977     0.212872142132     1.422031962741
    C            0.504289519431    -0.098464840755     0.219459038849
    H           -0.707509427706     0.938702509846    -1.236846207615
    H           -0.484459180414     1.806268914952     0.260596939987
    C            1.858883253603     0.442189371526    -0.242881998693
    H            0.365463654339    -1.090176051250    -0.210206443134
    H            0.519525274761    -0.236292240369     1.299037967698
    C            3.025431644512    -0.471801948650     0.129614461400
    H            1.840214912063     0.584229508912    -1.321094668996
    H            2.017958059998     1.426469279544     0.191783783731
    H            2.913889229728    -1.454257576796    -0.320441149388
    H            3.970532074225    -0.059124158292    -0.208907351334
    H            3.089852379990    -0.607093334980     1.205490630706

  Mulliken Charges: (a.u.)
   Center  Symbol    Alpha    Beta     Spin     Total
       1     H     0.27815  0.27815  0.00000  0.44370
       2     O     4.37755  4.37755  0.00000 -0.75509
       3     C     2.98056  2.98056  0.00000  0.03888
       4     C     3.18017  3.18017  0.00000 -0.36034
       5     H     0.41764  0.41764  0.00000  0.16473
       6     H     0.43104  0.43104  0.00000  0.13791
       7     C     3.15772  3.15772  0.00000 -0.31543
       8     H     0.41590  0.41590  0.00000  0.16820
       9     H     0.41889  0.41889  0.00000  0.16222
      10     C     3.15078  3.15078  0.00000 -0.30156
      11     H     0.43116  0.43116  0.00000  0.13769
      12     H     0.41903  0.41903  0.00000  0.16194
      13     C     3.23993  3.23993  0.00000 -0.47986
      14     H     0.42099  0.42099  0.00000  0.15802
      15     H     0.42102  0.42102  0.00000  0.15795
      16     H     0.42132  0.42132  0.00000  0.15737
      17     H     0.41755  0.41755  0.00000  0.16490
      18     H     0.42061  0.42061  0.00000  0.15879

   Total alpha = 25.00000, Total beta = 25.00000, Total charge =  0.00000
