                              Psi4 1.0.54 Driver

  ==> Input File <==

--------------------------------------------------------------------------
set {
	reference rhf
	basis cc-pvtz
}

set_num_threads( 4 )
memory 2 gb

molecule MOL {
0 1

H	 2.614283	 2.028610	 0.296620
O	 3.358864	 1.662087	 -0.142800
C	 3.565468	 0.338079	 0.273842
C	 2.533667	 -0.637565	 -0.272227
H	 4.548038	 0.064914	 -0.086598
H	 3.593945	 0.282242	 1.360360
C	 1.114816	 -0.402372	 0.240993
H	 2.544552	 -0.580764	 -1.356576
H	 2.850574	 -1.642962	 -0.005497
C	 0.113298	 -1.420414	 -0.302504
H	 0.796373	 0.598427	 -0.031033
H	 1.113377	 -0.446476	 1.328807
C	 0.620717	 -2.264853	 -1.472847
H	 -0.200969	 -2.077790	 0.504541
H	 -0.778496	 -0.889394	 -0.623736
C	 1.748548	 -3.235964	 -1.128343
H	 -0.215297	 -2.833653	 -1.870434
H	 0.945663	 -1.606585	 -2.275498
C	 2.151462	 -4.124257	 -2.302654
H	 1.438519	 -3.863491	 -0.295541
H	 2.622207	 -2.688396	 -0.787914
C	 3.279844	 -5.092464	 -1.963208
H	 1.285190	 -4.685914	 -2.641316
H	 2.453429	 -3.498670	 -3.138429
H	 2.996724	 -5.754223	 -1.151324
H	 3.538984	 -5.708788	 -2.816494
H	 4.174155	 -4.559899	 -1.656723

	symmetry c1
}
set optking {
	frozen_dihedral = ("
		14 10 7 4
	")
}

ee,wfn = optimize('scf', return_wfn=True)
oeprop( wfn, 'DIPOLE', 'QUADRUPOLE', 'MULLIKEN_CHARGES')
f=open( 'psi4out.xyz', 'w' )
f.write( "27  " )
f.write( str(ee) + "\n" )
f.write( MOL.save_string_xyz() )
f.close()
--------------------------------------------------------------------------

    Molecular point group: c1
  Charge       = 0
  Multiplicity = 1
  Basis Set: CC-PVTZ
  Basis Set:
  @DF-RHF Final Energy:  -388.38916615471777
    Total Energy =                       -388.3891661547174863
    Molecular point group: c1
  Basis Set: CC-PVTZ
  Basis Set:
  Basis Set: CC-PVTZ
  Basis Set:
  @DF-RHF Final Energy:  -388.40932481984191
    Total Energy =                       -388.4093248198417996
  Basis Set: CC-PVTZ
  Basis Set:
  Basis Set: CC-PVTZ
  Basis Set:
  @DF-RHF Final Energy:  -388.41387589082564
    Total Energy =                       -388.4138758908256932
  Basis Set: CC-PVTZ
  Basis Set:
  Basis Set: CC-PVTZ
  Basis Set:
  @DF-RHF Final Energy:  -388.41511406037341
    Total Energy =                       -388.4151140603738668
  Basis Set: CC-PVTZ
  Basis Set:
  @DF-RHF Final Energy:  -388.41576251543631
    Total Energy =                       -388.4157625154364268
  @DF-RHF Final Energy:  -388.41580837978483
    Total Energy =                       -388.4158083797843801
  Basis Set: CC-PVTZ
  Basis Set:
  @DF-RHF Final Energy:  -388.41593277882822
    Total Energy =                       -388.4159327788286191
  Basis Set: CC-PVTZ
  Basis Set:
  Basis Set: CC-PVTZ
  Basis Set:
  @DF-RHF Final Energy:  -388.41594133113529
    Total Energy =                       -388.4159413311343769
  Basis Set: CC-PVTZ
  Basis Set:
  Basis Set: CC-PVTZ
  Basis Set:
  @DF-RHF Final Energy:  -388.41594288767004
    Total Energy =                       -388.4159428876705533
  Basis Set: CC-PVTZ
  Basis Set:
  Charge       = 0
  Multiplicity = 1
  Basis Set: CC-PVTZ
  Basis Set:

    Orbital Energies (a.u.)
    -----------------------

    Doubly Occupied:

       1A    -20.545471     2A    -11.265216     3A    -11.218262
       4A    -11.215345     5A    -11.212886     6A    -11.212565
       7A    -11.212473     8A    -11.209984     9A    -11.206371
      10A     -1.363427    11A     -1.092192    12A     -1.059236
      13A     -1.010193    14A     -0.951776    15A     -0.887915
      16A     -0.833662    17A     -0.794930    18A     -0.767369
      19A     -0.698487    20A     -0.649716    21A     -0.640306
      22A     -0.613366    23A     -0.603684    24A     -0.587189
      25A     -0.567600    26A     -0.554769    27A     -0.551384
      28A     -0.521985    29A     -0.514854    30A     -0.497634
      31A     -0.481996    32A     -0.474638    33A     -0.467003
      34A     -0.456386    35A     -0.449394    36A     -0.434780
      37A     -0.426465

  @DF-RHF Final Energy:  -388.41594351391836

   => Energetics <=

    Nuclear Repulsion Energy =            468.2212825933875138
    One-Electron Energy =               -1454.7726374843537087
    Two-Electron Energy =                 598.1354113770478307
    DFT Exchange-Correlation Energy =       0.0000000000000000
    Empirical Dispersion Energy =           0.0000000000000000
    PCM Polarization Energy =               0.0000000000000000
    EFP Energy =                            0.0000000000000000
    Total Energy =                       -388.4159435139183643
    Molecular point group: c1
  Basis Set: CC-PVTZ
  Basis Set:

  -Total Gradient:
     Atom            X                  Y                   Z
    ------   -----------------  -----------------  -----------------
       1       -0.000014881496     0.000001540648     0.000011862125
       2        0.000002933128    -0.000004680797    -0.000021916312
       3        0.000012712993     0.000051363789     0.000009694440
       4       -0.000807895900     0.001707115823    -0.002326298444
       5        0.000015423913    -0.000018040282     0.000002140074
       6       -0.000001162709    -0.000010405524     0.000010902180
       7        0.000455153336    -0.001974666250     0.003665820369
       8       -0.000015122537    -0.000016855370    -0.000018791163
       9        0.000007645905    -0.000044008154    -0.000019233626
      10        0.003362225090    -0.001955678856    -0.002280309008
      11       -0.000003771007     0.000000782200    -0.000009831041
      12        0.000009032440    -0.000009187663     0.000020135386
      13        0.000021713626     0.000002173144    -0.000020365849
      14       -0.003020272417     0.002266666586     0.000972644646
      15       -0.000020736878     0.000009880088     0.000001795227
      16       -0.000036601500    -0.000079270702    -0.000018698166
      17       -0.000023652851    -0.000008684718    -0.000021231535
      18        0.000014723964    -0.000002575067     0.000001121950
      19        0.000017515967     0.000011901656    -0.000026292938
      20       -0.000006279503     0.000015598094     0.000024006546
      21        0.000046268741     0.000039977570     0.000034692970
      22       -0.000018834549     0.000021145313     0.000027526550
      23       -0.000014534334    -0.000008618309    -0.000002051746
      24        0.000005768600     0.000013726788    -0.000015853072
      25       -0.000009648608    -0.000015983082     0.000018570059
      26       -0.000006257741    -0.000004008945    -0.000029892228
      27        0.000028534330     0.000010792024     0.000009852609

  **** Optimization is complete! (in 10 steps) ****
    Final optimized geometry and variables:
    Molecular point group: c1

    Geometry (in Angstrom), charge = 0, multiplicity = 1:

    H            0.308156976035     3.941450664668     0.889534597459
    O            1.106523123789     3.662459660015     0.482098479292
    C            1.534657421783     2.444193439490     1.030990008107
    C            0.716781714928     1.244761186190     0.569618632378
    H            2.560789172472     2.321576974660     0.711430876861
    H            1.540308934404     2.498234954316     2.117838930555
    C           -0.724466662812     1.270781428266     1.079769479471
    H            0.738845673824     1.219439394833    -0.513171049226
    H            1.226090254718     0.353846798741     0.922166866927
    C           -1.702004053847     0.157260788717     0.613627798752
    H           -1.155231816465     2.220551339413     0.778776270903
    H           -0.706858678330     1.283774282007     2.165383916014
    C           -1.345914945249    -0.696826502141    -0.610050148975
    H           -1.925826752704    -0.495928839711     1.451554351842
    H           -2.645800378419     0.646892375790     0.398354860285
    C           -0.425645152624    -1.886516547657    -0.338457032641
    H           -2.275427866371    -1.086387270558    -1.015417278997
    H           -0.924140613534    -0.074649435996    -1.393024649073
    C           -0.150965811009    -2.723823070267    -1.584915966294
    H           -0.883514354904    -2.516472732423     0.420834399700
    H            0.518696609288    -1.552451322800     0.075673576279
    C            0.746703771234    -3.926548101115    -1.313658669562
    H           -1.093878856667    -3.065776002093    -2.003023514115
    H            0.308168650591    -2.096612964878    -2.344311341049
    H            0.299407113910    -4.591853180721    -0.582467962467
    H            0.921034186824    -4.498796649169    -2.217682080538
    H            1.712240578890    -3.615682406806    -0.928323512317

  Mulliken Charges: (a.u.)
   Center  Symbol    Alpha    Beta     Spin     Total
       1     H     0.39246  0.39246  0.00000  0.21508
       2     O     4.20554  4.20554  0.00000 -0.41109
       3     C     2.97823  2.97823  0.00000  0.04354
       4     C     3.10088  3.10088  0.00000 -0.20175
       5     H     0.44771  0.44771  0.00000  0.10458
       6     H     0.46899  0.46899  0.00000  0.06203
       7     C     3.10043  3.10043  0.00000 -0.20085
       8     H     0.44739  0.44739  0.00000  0.10522
       9     H     0.45483  0.45483  0.00000  0.09033
      10     C     3.10506  3.10506  0.00000 -0.21012
      11     H     0.45813  0.45813  0.00000  0.08374
      12     H     0.44929  0.44929  0.00000  0.10143
      13     C     3.10918  3.10918  0.00000 -0.21836
      14     H     0.45153  0.45153  0.00000  0.09693
      15     H     0.44543  0.44543  0.00000  0.10914
      16     C     3.08623  3.08623  0.00000 -0.17246
      17     H     0.44364  0.44364  0.00000  0.11273
      18     H     0.44805  0.44805  0.00000  0.10390
      19     C     3.08535  3.08535  0.00000 -0.17070
      20     H     0.45413  0.45413  0.00000  0.09174
      21     H     0.45063  0.45063  0.00000  0.09873
      22     C     3.14996  3.14996  0.00000 -0.29992
      23     H     0.45388  0.45388  0.00000  0.09224
      24     H     0.45418  0.45418  0.00000  0.09164
      25     H     0.45534  0.45534  0.00000  0.08931
      26     H     0.44806  0.44806  0.00000  0.10389
      27     H     0.45547  0.45547  0.00000  0.08906

   Total alpha = 37.00000, Total beta = 37.00000, Total charge = -0.00000

*** Psi4 exiting successfully. Buy a developer a beer!
