                              Psi4 1.0.54 Driver

  ==> Input File <==

--------------------------------------------------------------------------
set {
	reference rhf
	basis cc-pvtz
}

set_num_threads( 4 )
memory 2 gb

molecule MOL {
0 1

H	 2.416719	 5.803578	 -1.268457
C	 1.420105	 5.577937	 -1.630001
C	 1.014074	 4.151976	 -1.273492
H	 0.737994	 6.297407	 -1.190339
H	 1.415348	 5.731263	 -2.704370
C	 -0.382496	 3.794390	 -1.777173
H	 1.053095	 4.027503	 -0.197423
H	 1.735967	 3.456941	 -1.696127
C	 -0.813608	 2.370473	 -1.440291
H	 -1.104871	 4.488228	 -1.365357
H	 -0.410502	 3.912416	 -2.856557
C	 -1.132888	 2.134415	 0.026276
H	 -1.716999	 2.118989	 -1.990206
H	 -0.065097	 1.651554	 -1.760300
C	 -1.180025	 0.697761	 0.509157
O	 -1.358915	 3.035029	 0.768625
C	 -2.285431	 -0.137488	 -0.145671
H	 -1.321194	 0.728216	 1.581063
H	 -0.215542	 0.237529	 0.311279
C	 -3.646545	 0.082747	 0.508954
H	 -2.348635	 0.118247	 -1.199806
H	 -2.034895	 -1.192387	 -0.096473
C	 -4.757412	 -0.737227	 -0.138149
H	 -3.900211	 1.137405	 0.459735
H	 -3.580878	 -0.166775	 1.564416
H	 -4.867876	 -0.486707	 -1.187777
H	 -4.549650	 -1.800049	 -0.072540
H	 -5.709585	 -0.556397	 0.346597

	symmetry c1
}
set optking {
	frozen_dihedral = ("
		12 15 17 21
	")
}

ee,wfn = optimize('scf', return_wfn=True)
oeprop( wfn, 'DIPOLE', 'QUADRUPOLE', 'MULLIKEN_CHARGES')
f=open( 'psi4out.xyz', 'w' )
f.write( "28  " )
f.write( str(ee) + "\n" )
f.write( MOL.save_string_xyz() )
f.close()
--------------------------------------------------------------------------

    Molecular point group: c1
  Charge       = 0
  Multiplicity = 1
  Basis Set: CC-PVTZ
  Basis Set:
  @DF-RHF Final Energy:  -426.31740045881611
    Total Energy =                       -426.3174004588165644
    Molecular point group: c1
  Basis Set: CC-PVTZ
  Basis Set:
  Basis Set: CC-PVTZ
  Basis Set:
  @DF-RHF Final Energy:  -426.31630040562209
    Total Energy =                       -426.3163004056218597
  Basis Set: CC-PVTZ
  Basis Set:
  Basis Set: CC-PVTZ
  Basis Set:
  @DF-RHF Final Energy:  -426.31679877025522
    Total Energy =                       -426.3167987702553319
  Basis Set: CC-PVTZ
  Basis Set:
  Basis Set: CC-PVTZ
  Basis Set:
  @DF-RHF Final Energy:  -426.31772343703233
    Total Energy =                       -426.3177234370330098
  Basis Set: CC-PVTZ
  Basis Set:
  @DF-RHF Final Energy:  -426.31774685868481
    Total Energy =                       -426.3177468586845862
  Basis Set: CC-PVTZ
  Basis Set:
  @DF-RHF Final Energy:  -426.31776312436068
    Total Energy =                       -426.3177631243601127
  Basis Set: CC-PVTZ
  Basis Set:
  Basis Set: CC-PVTZ
  Basis Set:
  @DF-RHF Final Energy:  -426.31777202325156
    Total Energy =                       -426.3177720232513366
  Basis Set: CC-PVTZ
  Basis Set:
  Basis Set: CC-PVTZ
  Basis Set:
  @DF-RHF Final Energy:  -426.31777764478807
    Total Energy =                       -426.3177776447885208
  Basis Set: CC-PVTZ
  Basis Set:
  Charge       = 0
  Multiplicity = 1
  Basis Set: CC-PVTZ
  Basis Set:

    Orbital Energies (a.u.)
    -----------------------

    Doubly Occupied:

       1A    -20.536371     2A    -11.316909     3A    -11.229184
       4A    -11.228582     5A    -11.227247     6A    -11.220405
       7A    -11.215392     8A    -11.212550     9A    -11.212162
      10A    -11.204830    11A     -1.396407    12A     -1.095277
      13A     -1.078779    14A     -1.022014    15A     -0.991760
      16A     -0.907160    17A     -0.875255    18A     -0.811163
      19A     -0.800046    20A     -0.723098    21A     -0.669900
      22A     -0.649876    23A     -0.632222    24A     -0.613284
      25A     -0.610982    26A     -0.589161    27A     -0.585612
      28A     -0.575081    29A     -0.541011    30A     -0.536203
      31A     -0.521437    32A     -0.513508    33A     -0.504754
      34A     -0.483265    35A     -0.478282    36A     -0.473736
      37A     -0.468028    38A     -0.462655    39A     -0.457250
      40A     -0.395052

  @DF-RHF Final Energy:  -426.31777847094475

   => Energetics <=

    Nuclear Repulsion Energy =            538.8931177614128956
    One-Electron Energy =               -1646.2900039000301149
    Two-Electron Energy =                 681.0791076676732700
    DFT Exchange-Correlation Energy =       0.0000000000000000
    Empirical Dispersion Energy =           0.0000000000000000
    PCM Polarization Energy =               0.0000000000000000
    EFP Energy =                            0.0000000000000000
    Total Energy =                       -426.3177784709439493
    Molecular point group: c1
  Basis Set: CC-PVTZ
  Basis Set:

  -Total Gradient:
     Atom            X                  Y                   Z
    ------   -----------------  -----------------  -----------------
       1       -0.000011491405     0.000007213028    -0.000006253091
       2        0.000015079392     0.000003081510     0.000016241491
       3        0.000014874213    -0.000002410143    -0.000034114905
       4        0.000006223017    -0.000004260688    -0.000006400146
       5       -0.000001058270    -0.000008817344     0.000018963126
       6       -0.000001320057     0.000025643073     0.000017908661
       7        0.000004667939     0.000012254587    -0.000015066169
       8        0.000001875480     0.000004359097     0.000007268161
       9        0.000004979521    -0.000063470589    -0.000077611959
      10       -0.000001753971    -0.000014415509    -0.000009209573
      11        0.000005351702    -0.000006533097     0.000018285875
      12        0.001554932029    -0.000809762400    -0.001856846824
      13        0.000020454982     0.000013719411     0.000042404769
      14       -0.000006490512     0.000031691945    -0.000005476507
      15       -0.002854709013     0.001796184567     0.002882242950
      16        0.000003857092    -0.000027850329    -0.000011581275
      17        0.003531708473    -0.003540862668    -0.001649028423
      18        0.000010413231    -0.000003496051     0.000008011237
      19        0.000005123696     0.000004559448    -0.000012965025
      20        0.000020501705     0.000007476661     0.000007114694
      21       -0.002320050762     0.002580783731     0.000665369693
      22        0.000010226782    -0.000009388279     0.000007943699
      23       -0.000007457409     0.000001954990    -0.000004736354
      24       -0.000006140618     0.000011380186     0.000004690819
      25       -0.000000629003    -0.000001444439    -0.000010736105
      26       -0.000000484986     0.000001839940     0.000003151192
      27        0.000000518262    -0.000007125637     0.000001173819
      28        0.000000798493    -0.000002305002    -0.000000743831

  **** Optimization is complete! (in 9 steps) ****
    Final optimized geometry and variables:
    Molecular point group: c1

    Geometry (in Angstrom), charge = 0, multiplicity = 1:

    H            4.118746928611     3.173927843113    -1.011641194912
    C            3.078583168899     3.116956635169    -1.310948117117
    C            2.468361795380     1.772101228023    -0.931201013346
    H            2.550554578590     3.932804544428    -0.829604263960
    H            3.033304147521     3.280230281565    -2.382819517133
    C            1.003626871657     1.651986795045    -1.345899811317
    H            2.553607397924     1.631690550011     0.140612756622
    H            3.040156202356     0.973590361958    -1.398207763526
    C            0.369674905848     0.311128376652    -0.986236777327
    H            0.430014638679     2.446998088724    -0.886359255120
    H            0.927606065258     1.787062965165    -2.420859765788
    C            0.132922174095     0.110438067043     0.502802304681
    H           -0.604506286569     0.230176765962    -1.461303118257
    H            0.959425259329    -0.513357095630    -1.373989153835
    C            0.046375503805    -1.313785841396     1.016846117490
    O            0.018785146581     1.036542957389     1.239701220465
    C           -1.075648943599    -2.159760652072     0.395016090935
    H           -0.058557874156    -1.269776168242     2.092103959566
    H            1.004585585923    -1.778036044096     0.798029960296
    C           -2.438058099616    -1.902476830451     1.038845470805
    H           -1.156205043841    -1.953518885566    -0.666737886782
    H           -0.824241926728    -3.209723607021     0.494021539135
    C           -3.558711736142    -2.714631247258     0.399170869745
    H           -2.675705853329    -0.844481414210     0.975973739221
    H           -2.380553584269    -2.135754522311     2.097688809652
    H           -3.668196332616    -2.472814257373    -0.652913111112
    H           -3.362737661602    -3.779256721243     0.473600081673
    H           -4.508410501687    -2.519031283618     0.882886038557

  Mulliken Charges: (a.u.)
   Center  Symbol    Alpha    Beta     Spin     Total
       1     H     0.44856  0.44856  0.00000  0.10288
       2     C     3.15190  3.15190  0.00000 -0.30380
       3     C     3.08512  3.08512  0.00000 -0.17024
       4     H     0.45167  0.45167  0.00000  0.09665
       5     H     0.45657  0.45657  0.00000  0.08687
       6     C     3.08870  3.08870  0.00000 -0.17741
       7     H     0.44699  0.44699  0.00000  0.10601
       8     H     0.45814  0.45814  0.00000  0.08372
       9     C     3.12695  3.12695  0.00000 -0.25390
      10     H     0.44330  0.44330  0.00000  0.11340
      11     H     0.44739  0.44739  0.00000  0.10522
      12     C     2.86195  2.86195  0.00000  0.27609
      13     H     0.43625  0.43625  0.00000  0.12751
      14     H     0.44271  0.44271  0.00000  0.11458
      15     C     3.10421  3.10421  0.00000 -0.20842
      16     O     4.17885  4.17885  0.00000 -0.35770
      17     C     3.11139  3.11139  0.00000 -0.22278
      18     H     0.43853  0.43853  0.00000  0.12293
      19     H     0.44152  0.44152  0.00000  0.11696
      20     C     3.08091  3.08091  0.00000 -0.16182
      21     H     0.44975  0.44975  0.00000  0.10049
      22     H     0.44213  0.44213  0.00000  0.11575
      23     C     3.15019  3.15019  0.00000 -0.30038
      24     H     0.44874  0.44874  0.00000  0.10251
      25     H     0.45120  0.45120  0.00000  0.09761
      26     H     0.45537  0.45537  0.00000  0.08927
      27     H     0.45489  0.45489  0.00000  0.09023
      28     H     0.44611  0.44611  0.00000  0.10779

   Total alpha = 40.00000, Total beta = 40.00000, Total charge = -0.00000

*** Psi4 exiting successfully. Buy a developer a beer!
