                              Psi4 1.0.54 Driver

  ==> Input File <==

--------------------------------------------------------------------------
set {
	reference rhf
	basis cc-pvtz
}

set_num_threads( 4 )
memory 2 gb

molecule MOL {
0 1

H	 2.614283	 2.028610	 0.296620
O	 3.358864	 1.662087	 -0.142800
C	 3.565468	 0.338079	 0.273842
C	 2.533667	 -0.637565	 -0.272227
H	 4.548038	 0.064914	 -0.086598
H	 3.593945	 0.282242	 1.360360
C	 1.114816	 -0.402372	 0.240993
H	 2.544552	 -0.580764	 -1.356576
H	 2.850574	 -1.642962	 -0.005497
C	 0.113298	 -1.420414	 -0.302504
H	 0.796373	 0.598427	 -0.031033
H	 1.113377	 -0.446476	 1.328807
C	 0.256290	 -1.735625	 -1.792621
H	 0.195552	 -2.341949	 0.268666
H	 -0.890761	 -1.044657	 -0.126035
C	 1.539347	 -2.469785	 -2.177998
H	 -0.592820	 -2.341963	 -2.095760
H	 0.185394	 -0.812040	 -2.362815
C	 1.589609	 -2.849108	 -3.655834
H	 1.631338	 -3.370317	 -1.574634
H	 2.404934	 -1.857282	 -1.944325
C	 2.870985	 -3.578953	 -4.044799
H	 0.733170	 -3.473428	 -3.895241
H	 1.489320	 -1.951397	 -4.260085
H	 2.984292	 -4.498615	 -3.480334
H	 2.872972	 -3.835564	 -5.098010
H	 3.745068	 -2.965408	 -3.852725

	symmetry c1
}
set optking {
	frozen_dihedral = ("
		14 10 7 4
	")
}

ee,wfn = optimize('scf', return_wfn=True)
oeprop( wfn, 'DIPOLE', 'QUADRUPOLE', 'MULLIKEN_CHARGES')
f=open( 'psi4out.xyz', 'w' )
f.write( "27  " )
f.write( str(ee) + "\n" )
f.write( MOL.save_string_xyz() )
f.close()
--------------------------------------------------------------------------

    Molecular point group: c1
  Charge       = 0
  Multiplicity = 1
  Basis Set: CC-PVTZ
  Basis Set:
  @DF-RHF Final Energy:  -388.39784884437125
    Total Energy =                       -388.3978488443717652
    Molecular point group: c1
  Basis Set: CC-PVTZ
  Basis Set:
  Basis Set: CC-PVTZ
  Basis Set:
  @DF-RHF Final Energy:  -388.41459443860668
    Total Energy =                       -388.4145944386064002
  Basis Set: CC-PVTZ
  Basis Set:
  Basis Set: CC-PVTZ
  Basis Set:
  @DF-RHF Final Energy:  -388.41933110878813
    Total Energy =                       -388.4193311087879010
  Basis Set: CC-PVTZ
  Basis Set:
  Basis Set: CC-PVTZ
  Basis Set:
  @DF-RHF Final Energy:  -388.42067903330400
    Total Energy =                       -388.4206790333035997
  Basis Set: CC-PVTZ
  Basis Set:
  @DF-RHF Final Energy:  -388.42077864265036
    Total Energy =                       -388.4207786426500206
  @DF-RHF Final Energy:  -388.42151740693163
    Total Energy =                       -388.4215174069327077
  @DF-RHF Final Energy:  -388.42158352464179
    Total Energy =                       -388.4215835246417328
  Basis Set: CC-PVTZ
  Basis Set:
  @DF-RHF Final Energy:  -388.42160768784083
    Total Energy =                       -388.4216076878411741
  Basis Set: CC-PVTZ
  Basis Set:
  Basis Set: CC-PVTZ
  Basis Set:
  @DF-RHF Final Energy:  -388.42163245294648
    Total Energy =                       -388.4216324529473923
  Basis Set: CC-PVTZ
  Basis Set:
  Basis Set: CC-PVTZ
  Basis Set:
  @DF-RHF Final Energy:  -388.42163451372136
    Total Energy =                       -388.4216345137210737
  Basis Set: CC-PVTZ
  Basis Set:
  Charge       = 0
  Multiplicity = 1
  Basis Set: CC-PVTZ
  Basis Set:

    Orbital Energies (a.u.)
    -----------------------

    Doubly Occupied:

       1A    -20.545525     2A    -11.265169     3A    -11.218272
       4A    -11.215166     5A    -11.213015     6A    -11.212602
       7A    -11.212115     8A    -11.209805     9A    -11.205940
      10A     -1.363442    11A     -1.093957    12A     -1.060214
      13A     -1.009973    14A     -0.952639    15A     -0.886540
      16A     -0.832372    17A     -0.792914    18A     -0.772447
      19A     -0.698700    20A     -0.648328    21A     -0.637330
      22A     -0.615558    23A     -0.606149    24A     -0.587418
      25A     -0.568018    26A     -0.554125    27A     -0.550437
      28A     -0.518470    29A     -0.517533    30A     -0.498054
      31A     -0.483325    32A     -0.471878    33A     -0.466034
      34A     -0.457518    35A     -0.455643    36A     -0.435602
      37A     -0.425654

  @DF-RHF Final Energy:  -388.42163511157247

   => Energetics <=

    Nuclear Repulsion Energy =            469.2067816383271861
    One-Electron Energy =               -1456.7410650370084113
    Two-Electron Energy =                 599.1126482871084136
    DFT Exchange-Correlation Energy =       0.0000000000000000
    Empirical Dispersion Energy =           0.0000000000000000
    PCM Polarization Energy =               0.0000000000000000
    EFP Energy =                            0.0000000000000000
    Total Energy =                       -388.4216351115728685
    Molecular point group: c1
  Basis Set: CC-PVTZ
  Basis Set:

  -Total Gradient:
     Atom            X                  Y                   Z
    ------   -----------------  -----------------  -----------------
       1       -0.000013566236     0.000017708667    -0.000001290369
       2       -0.000035977187     0.000009917156     0.000009987787
       3        0.000050876531     0.000008180833    -0.000019461937
       4       -0.000959895521     0.001988445638    -0.002698592324
       5        0.000011553125    -0.000022937839     0.000007874517
       6       -0.000006600482    -0.000001105484    -0.000004952521
       7        0.000606135607    -0.002619844796     0.004699577761
       8        0.000000809502     0.000012400033    -0.000013308788
       9       -0.000002551446    -0.000010126873    -0.000005750598
      10        0.003689272039    -0.000601973342    -0.005048275044
      11       -0.000004540590     0.000000583859    -0.000003883942
      12        0.000003228845    -0.000001001495    -0.000001332163
      13        0.000023358517     0.000022102044    -0.000014719882
      14       -0.003323435330     0.001207988512     0.003076466861
      15       -0.000006892134    -0.000002223747    -0.000021006918
      16       -0.000051185223    -0.000062875369     0.000014430970
      17        0.000002702902    -0.000015917790     0.000019830507
      18        0.000003147271     0.000014428901    -0.000007601712
      19       -0.000005156840     0.000019539104    -0.000001811373
      20       -0.000005762362    -0.000012100431     0.000003521213
      21        0.000019841668     0.000024910405     0.000005584267
      22        0.000006267407     0.000018684047     0.000012626632
      23       -0.000002880520    -0.000003134124     0.000005904019
      24       -0.000000166513     0.000010167525    -0.000021119552
      25       -0.000006097044    -0.000006974057     0.000004926658
      26       -0.000006051024     0.000005839633    -0.000000871800
      27        0.000013565038    -0.000000681007     0.000003247729

  **** Optimization is complete! (in 11 steps) ****
    Final optimized geometry and variables:
    Molecular point group: c1

    Geometry (in Angstrom), charge = 0, multiplicity = 1:

    H            0.433748814629     3.476015127771     1.714311414382
    O            1.243236786955     3.259425429592     1.290766901117
    C            1.667510644866     1.979032054463     1.677590265672
    C            0.842018563070     0.855115816938     1.066368278473
    H            2.693331830534     1.895190106548     1.344929136554
    H            1.672389825508     1.892313982092     2.762319862757
    C           -0.606292980355     0.832493378110     1.550950409362
    H            0.876481779235     0.958295109876    -0.011644149128
    H            1.329812201917    -0.084284426678     1.314687959903
    C           -1.501585109905    -0.301350065894     1.027351582706
    H           -1.071651852075     1.773300067056     1.267148735392
    H           -0.620211326856     0.800769805256     2.637466669140
    C           -1.471652261052    -0.584526321876    -0.481115146702
    H           -1.308381560435    -1.211026869343     1.590173252840
    H           -2.518036784629    -0.029908851305     1.296762496721
    C           -0.456691321509    -1.635254143603    -0.931441572600
    H           -2.456806609291    -0.928319814532    -0.781542044617
    H           -1.305257344230     0.343002135357    -1.022960426791
    C           -0.483211540867    -1.882532618703    -2.437392415782
    H           -0.666078874763    -2.568179984955    -0.413181025002
    H            0.546179393749    -1.345727911720    -0.638530264305
    C            0.508885187730    -2.949948058954    -2.887186441702
    H           -1.486299186681    -2.174920307585    -2.736065297810
    H           -0.270686543482    -0.952382194850    -2.957536387222
    H            0.301353339189    -3.902633232093    -2.411125845857
    H            0.465124410742    -3.100375364888    -3.959797100769
    H            1.526292400440    -2.670454580452    -2.634149676430

  Mulliken Charges: (a.u.)
   Center  Symbol    Alpha    Beta     Spin     Total
       1     H     0.39228  0.39228  0.00000  0.21544
       2     O     4.20576  4.20576  0.00000 -0.41151
       3     C     2.98128  2.98128  0.00000  0.03745
       4     C     3.09782  3.09782  0.00000 -0.19564
       5     H     0.44809  0.44809  0.00000  0.10382
       6     H     0.46843  0.46843  0.00000  0.06314
       7     C     3.10379  3.10379  0.00000 -0.20758
       8     H     0.44804  0.44804  0.00000  0.10392
       9     H     0.45392  0.45392  0.00000  0.09217
      10     C     3.10381  3.10381  0.00000 -0.20762
      11     H     0.45666  0.45666  0.00000  0.08667
      12     H     0.44778  0.44778  0.00000  0.10443
      13     C     3.10795  3.10795  0.00000 -0.21590
      14     H     0.45230  0.45230  0.00000  0.09540
      15     H     0.44502  0.44502  0.00000  0.10996
      16     C     3.08810  3.08810  0.00000 -0.17619
      17     H     0.44434  0.44434  0.00000  0.11132
      18     H     0.44931  0.44931  0.00000  0.10139
      19     C     3.08516  3.08516  0.00000 -0.17033
      20     H     0.45353  0.45353  0.00000  0.09293
      21     H     0.44991  0.44991  0.00000  0.10018
      22     C     3.14985  3.14985  0.00000 -0.29970
      23     H     0.45395  0.45395  0.00000  0.09211
      24     H     0.45402  0.45402  0.00000  0.09196
      25     H     0.45547  0.45547  0.00000  0.08906
      26     H     0.44822  0.44822  0.00000  0.10356
      27     H     0.45522  0.45522  0.00000  0.08956

   Total alpha = 37.00000, Total beta = 37.00000, Total charge = -0.00000

*** Psi4 exiting successfully. Buy a developer a beer!
