  ==> Input File <==

--------------------------------------------------------------------------
set {
	reference rhf
	basis 6-31G*
}

set_num_threads( 1 )
memory 2 gb

molecule MOL {
0 1

O	 0.749854	 1.307668	 -0.000040
C	 0.576249	 0.131685	 -0.000108
C	 -0.766779	 -0.556801	 -0.000461
O	 1.568443	 -0.749345	 -0.000005
C	 -1.945214	 0.412366	 0.000161
H	 -0.796911	 -1.211249	 -0.867467
H	 -0.796854	 -1.212390	 0.865687
C	 -3.287791	 -0.317055	 0.000105
H	 -1.876087	 1.060580	 -0.866812
H	 -1.875822	 1.059691	 0.867761
H	 -3.394745	 -0.949193	 -0.877058
H	 -4.111778	 0.388953	 0.000015
H	 -3.394954	 -0.949187	 0.877259
C	 2.194660	 -1.012176	 -1.242575
H	 1.481341	 -1.407394	 -1.951462
H	 2.961981	 -1.742295	 -1.037605
H	 2.633448	 -0.110607	 -1.645250

	symmetry c1
}
set optking {
	frozen_dihedral = ("
		1 2 3 6,
		9 5 3 6
	")
}

ee = energy('scf')
oeprop('DIPOLE', 'QUADRUPOLE', 'MULLIKEN_CHARGES')
f=open( 'psi4out.xyz', 'w' )
f.write( "17  " )
f.write( str(ee) + "\n" )
f.write( MOL.save_string_xyz() )
f.close()
--------------------------------------------------------------------------

    Molecular point group: c1

    Geometry (in Angstrom), charge = 0, multiplicity = 1:

       Center              X                  Y                   Z               Mass
    ------------   -----------------  -----------------  -----------------  -----------------
           O          0.856720681480     1.428040906374     0.191856000661    15.994914619560
           C          0.683115681480     0.252057906374     0.191788000661    12.000000000000
           C         -0.659912318520    -0.436428093626     0.191435000661    12.000000000000
           O          1.675309681480    -0.628972093626     0.191891000661    15.994914619560
           C         -1.838347318520     0.532738906374     0.192057000661    12.000000000000
           H         -0.690044318520    -1.090876093626    -0.675570999339     1.007825032070
           H         -0.689987318520    -1.092017093626     1.057583000661     1.007825032070
           C         -3.180924318520    -0.196682093626     0.192001000661    12.000000000000
           H         -1.769220318520     1.180952906374    -0.674915999339     1.007825032070
           H         -1.768955318520     1.180063906374     1.059657000661     1.007825032070
           H         -3.287878318520    -0.828820093626    -0.685161999339     1.007825032070
           H         -4.004911318520     0.509325906374     0.191911000661     1.007825032070
           H         -3.288087318520    -0.828814093626     1.069155000661     1.007825032070
           C          2.301526681480    -0.891803093626    -1.050678999339    12.000000000000
           H          1.588207681480    -1.287021093626    -1.759565999339     1.007825032070
           H          3.068847681480    -1.621922093626    -0.845708999339     1.007825032070
           H          2.740314681480     0.009765906374    -1.453353999339     1.007825032070

  Charge       = 0
  Multiplicity = 1
  Basis Set: 6-31G*
  Basis Set:

    Orbital Energies (a.u.)
    -----------------------

    Doubly Occupied:

       1A    -20.587608     2A    -20.554845     3A    -11.373957
       4A    -11.294243     5A    -11.237344     6A    -11.222497
       7A    -11.215527     8A     -1.464637     9A     -1.366945
      10A     -1.080049    11A     -0.996767    12A     -0.952091
      13A     -0.832520    14A     -0.768550    15A     -0.699090
      16A     -0.681605    17A     -0.675282    18A     -0.633796
      19A     -0.616581    20A     -0.577707    21A     -0.565894
      22A     -0.541417    23A     -0.517988    24A     -0.491769
      25A     -0.490692    26A     -0.480392    27A     -0.454637
      28A     -0.434413

  @DF-RHF Final Energy:  -344.88684616350207

   => Energetics <=

    Nuclear Repulsion Energy =            313.3723382801038611
    One-Electron Energy =               -1090.9006170318959903
    Two-Electron Energy =                 432.6414325882897742
    DFT Exchange-Correlation Energy =       0.0000000000000000
    Empirical Dispersion Energy =           0.0000000000000000
    PCM Polarization Energy =               0.0000000000000000
    EFP Energy =                            0.0000000000000000
    Total Energy =                       -344.8868461635024119

  Mulliken Charges: (a.u.)
   Center  Symbol    Alpha    Beta     Spin     Total
       1     O     4.26082  4.26082  0.00000 -0.52164
       2     C     2.61437  2.61437  0.00000  0.77126
       3     C     3.20909  3.20909  0.00000 -0.41818
       4     O     4.31084  4.31084  0.00000 -0.62169
       5     C     3.15288  3.15288  0.00000 -0.30575
       6     H     0.40817  0.40817  0.00000  0.18366
       7     H     0.39895  0.39895  0.00000  0.20209
       8     C     3.24247  3.24247  0.00000 -0.48494
       9     H     0.41227  0.41227  0.00000  0.17547
      10     H     0.40965  0.40965  0.00000  0.18071
      11     H     0.42253  0.42253  0.00000  0.15493
      12     H     0.41507  0.41507  0.00000  0.16986
      13     H     0.42103  0.42103  0.00000  0.15794
      14     C     3.09332  3.09332  0.00000 -0.18665
      15     H     0.42087  0.42087  0.00000  0.15826
      16     H     0.40187  0.40187  0.00000  0.19626
      17     H     0.40580  0.40580  0.00000  0.18840

   Total alpha = 28.00000, Total beta = 28.00000, Total charge =  0.00000
