                              Psi4 1.0.54 Driver

  ==> Input File <==

--------------------------------------------------------------------------
set {
	reference rhf
	basis cc-pvtz
}

set_num_threads( 4 )
memory 2 gb

molecule MOL {
0 1

H	 0.819153	 -1.186842	 -0.052137
C	 0.773196	 -0.384631	 -0.801259
C	 0.062554	 0.862911	 -0.350953
O	 1.267767	 -0.538269	 -1.863779
C	 -1.339253	 0.577611	 0.196911
H	 0.031424	 1.559650	 -1.178649
H	 0.671417	 1.302782	 0.435733
C	 -1.813142	 -0.849710	 -0.061612
H	 -2.032833	 1.276441	 -0.256032
H	 -1.357249	 0.782269	 1.263793
H	 -1.839268	 -1.063526	 -1.124230
H	 -2.810118	 -1.001930	 0.334000
H	 -1.159274	 -1.579980	 0.402282

	symmetry c1
}
set optking {
	frozen_dihedral = ("
		6 3 5 9
	")
}

ee,wfn = optimize('scf', return_wfn=True)
oeprop( wfn, 'DIPOLE', 'QUADRUPOLE', 'MULLIKEN_CHARGES')
f=open( 'psi4out.xyz', 'w' )
f.write( "13  " )
f.write( str(ee) + "\n" )
f.write( MOL.save_string_xyz() )
f.close()
--------------------------------------------------------------------------

    Molecular point group: c1
  Charge       = 0
  Multiplicity = 1
  Basis Set: CC-PVTZ
  Basis Set:
  @DF-RHF Final Energy:  -231.06023541744335
    Total Energy =                       -231.0602354174432946
    Molecular point group: c1
  Basis Set: CC-PVTZ
  Basis Set:
  Basis Set: CC-PVTZ
  Basis Set:
  @DF-RHF Final Energy:  -231.06030766171236
    Total Energy =                       -231.0603076617124998
  Basis Set: CC-PVTZ
  Basis Set:
  Basis Set: CC-PVTZ
  Basis Set:
  @DF-RHF Final Energy:  -231.06245333607544
    Total Energy =                       -231.0624533360753503
  Basis Set: CC-PVTZ
  Basis Set:
  Basis Set: CC-PVTZ
  Basis Set:
  @DF-RHF Final Energy:  -231.06268731705370
    Total Energy =                       -231.0626873170537010
  Basis Set: CC-PVTZ
  Basis Set:
  @DF-RHF Final Energy:  -231.06260173474200
    Total Energy =                       -231.0626017347420316
  Basis Set: CC-PVTZ
  Basis Set:
  @DF-RHF Final Energy:  -231.06288877236824
    Total Energy =                       -231.0628887723683249
  Basis Set: CC-PVTZ
  Basis Set:
  Basis Set: CC-PVTZ
  Basis Set:
  @DF-RHF Final Energy:  -231.06289408173748
    Total Energy =                       -231.0628940817373689
  Basis Set: CC-PVTZ
  Basis Set:
  Basis Set: CC-PVTZ
  Basis Set:
  @DF-RHF Final Energy:  -231.06289603350069
    Total Energy =                       -231.0628960335006639
  Basis Set: CC-PVTZ
  Basis Set:
  Charge       = 0
  Multiplicity = 1
  Basis Set: CC-PVTZ
  Basis Set:

    Orbital Energies (a.u.)
    -----------------------

    Doubly Occupied:

       1A    -20.551310     2A    -11.321291     3A    -11.237253
       4A    -11.234278     5A    -11.221519     6A     -1.406222
       7A     -1.082498     8A     -0.974461     9A     -0.857148
      10A     -0.779530    11A     -0.674717    12A     -0.636336
      13A     -0.635211    14A     -0.603444    15A     -0.557948
      16A     -0.531534    17A     -0.516460    18A     -0.488200
      19A     -0.478857    20A     -0.411728

  @DF-RHF Final Energy:  -231.06289637622803

   => Energetics <=

    Nuclear Repulsion Energy =            174.3511362088104875
    One-Electron Energy =                -658.4281743945224434
    Two-Electron Energy =                 253.0141418094839878
    DFT Exchange-Correlation Energy =       0.0000000000000000
    Empirical Dispersion Energy =           0.0000000000000000
    PCM Polarization Energy =               0.0000000000000000
    EFP Energy =                            0.0000000000000000
    Total Energy =                       -231.0628963762279682
    Molecular point group: c1
  Basis Set: CC-PVTZ
  Basis Set:

  -Total Gradient:
     Atom            X                  Y                   Z
    ------   -----------------  -----------------  -----------------
       1       -0.000014747832    -0.000010360444     0.000001673320
       2       -0.000001942103     0.000015450834     0.000026842918
       3       -0.000046527906    -0.003700278711    -0.003191641825
       4        0.000012959568     0.000009541272    -0.000007859378
       5        0.000273483539     0.003284303540     0.003506938523
       6       -0.000004479238     0.002586888079     0.002126626040
       7        0.000018113908     0.000005435718    -0.000010486092
       8       -0.000017667933    -0.000025394173    -0.000002287315
       9       -0.000232075157    -0.002165148371    -0.002442269539
      10        0.000012915879    -0.000012155840    -0.000006777573
      11        0.000008593747     0.000004030092     0.000002273295
      12       -0.000002788206    -0.000000991685    -0.000007605506
      13       -0.000005838265     0.000008679689     0.000004573131

  **** Optimization is complete! (in 9 steps) ****
    Final optimized geometry and variables:
    Molecular point group: c1

    Geometry (in Angstrom), charge = 0, multiplicity = 1:

    H            1.288679572862    -0.933490334398     0.672413151701
    C            1.094638798980    -0.209008696562    -0.126867807995
    C            0.205902446922     0.946608364757     0.243103945805
    O            1.594583940058    -0.355870937179    -1.188551401176
    C           -1.226353468508     0.568539488837     0.707952440154
    H            0.174176810988     1.633295242231    -0.590971654777
    H            0.713576034921     1.467475656871     1.051347926510
    C           -1.660459430418    -0.869280787581     0.414275270052
    H           -1.919085389727     1.224284826741     0.196074318985
    H           -1.333066628674     0.761248880678     1.767750553780
    H           -1.561199791210    -1.105529539470    -0.639260927926
    H           -2.700113666497    -1.005364654968     0.686045164301
    H           -1.082706414074    -1.595587819578     0.973597845332

  Mulliken Charges: (a.u.)
   Center  Symbol    Alpha    Beta     Spin     Total
       1     H     0.46197  0.46197  0.00000  0.07606
       2     C     2.90427  2.90427  0.00000  0.19146
       3     C     3.08823  3.08823  0.00000 -0.17647
       4     O     4.16708  4.16708  0.00000 -0.33415
       5     C     3.09504  3.09504  0.00000 -0.19008
       6     H     0.44149  0.44149  0.00000  0.11701
       7     H     0.44837  0.44837  0.00000  0.10326
       8     C     3.15523  3.15523  0.00000 -0.31046
       9     H     0.44592  0.44592  0.00000  0.10816
      10     H     0.44747  0.44747  0.00000  0.10507
      11     H     0.44557  0.44557  0.00000  0.10887
      12     H     0.44508  0.44508  0.00000  0.10984
      13     H     0.45428  0.45428  0.00000  0.09144

   Total alpha = 20.00000, Total beta = 20.00000, Total charge =  0.00000

*** Psi4 exiting successfully. Buy a developer a beer!
