  ==> Input File <==

--------------------------------------------------------------------------
set {
	reference rhf
	basis 6-31G*
}

set_num_threads( 4 )
memory 2 gb

molecule MOL {
0 1

H	 -3.261111	 -0.295142	 1.469456
C	 -3.306842	 -0.277400	 0.373456
C	 -2.660244	 0.921717	 -0.272021
O	 -3.838538	 -1.161155	 -0.216482
C	 -1.220012	 1.144545	 0.209990
H	 -2.705793	 0.797307	 -1.347733
H	 -3.263782	 1.790044	 -0.010477
C	 -0.252658	 0.041456	 -0.226725
H	 -0.873521	 2.100229	 -0.171974
H	 -1.211708	 1.231594	 1.295398
C	 1.180775	 0.282413	 0.250794
H	 -0.266029	 -0.034465	 -1.312038
H	 -0.597733	 -0.921000	 0.146291
C	 2.148627	 -0.814315	 -0.201312
H	 1.516199	 1.249228	 -0.115937
H	 1.192670	 0.346017	 1.338083
C	 3.580890	 -0.659131	 0.322722
H	 2.166869	 -0.852443	 -1.289387
H	 1.762857	 -1.776509	 0.128956
C	 4.128408	 0.767860	 0.263214
H	 4.231482	 -1.305936	 -0.260648
H	 3.631201	 -1.023335	 1.346805
H	 4.075390	 1.164292	 -0.747379
H	 3.578864	 1.441522	 0.912179
H	 5.168581	 0.794322	 0.573593

	symmetry c1
}
set optking {
	frozen_dihedral = ("
		20 17 14 18
	")
}

ee = optimize('scf')
oeprop('DIPOLE', 'QUADRUPOLE', 'MULLIKEN_CHARGES')
f=open( 'psi4out.xyz', 'w' )
f.write( "25  " )
f.write( str(ee) + "\n" )
f.write( MOL.save_string_xyz() )
f.close()
--------------------------------------------------------------------------

    Molecular point group: c1
  Charge       = 0
  Multiplicity = 1
  Basis Set: 6-31G*
  Basis Set:
  @DF-RHF Final Energy:  -387.11986490716913
    Total Energy =                       -387.1198649071690170
    Molecular point group: c1
  Basis Set: 6-31G*
  Basis Set:
  Basis Set: 6-31G*
  Basis Set:
  @DF-RHF Final Energy:  -387.11984734307134
    Total Energy =                       -387.1198473430713420
  Basis Set: 6-31G*
  Basis Set:
  Basis Set: 6-31G*
  Basis Set:
  @DF-RHF Final Energy:  -387.11695306441453
    Total Energy =                       -387.1169530644144743
  Basis Set: 6-31G*
  Basis Set:
  Basis Set: 6-31G*
  Basis Set:
  @DF-RHF Final Energy:  -387.12017109002437
    Total Energy =                       -387.1201710900244279
  Basis Set: 6-31G*
  Basis Set:
  @DF-RHF Final Energy:  -387.12025066236987
    Total Energy =                       -387.1202506623696991
  @DF-RHF Final Energy:  -387.12025625769814
    Total Energy =                       -387.1202562576982018
  Basis Set: 6-31G*
  Basis Set:
  @DF-RHF Final Energy:  -387.12028506441067
    Total Energy =                       -387.1202850644103819
  Basis Set: 6-31G*
  Basis Set:
  Basis Set: 6-31G*
  Basis Set:
  @DF-RHF Final Energy:  -387.12021775099259
    Total Energy =                       -387.1202177509924240
  Basis Set: 6-31G*
  Basis Set:
  Basis Set: 6-31G*
  Basis Set:
  @DF-RHF Final Energy:  -387.12028710356003
    Total Energy =                       -387.1202871035592352
  Basis Set: 6-31G*
  Basis Set:
  Charge       = 0
  Multiplicity = 1
  Basis Set: 6-31G*
  Basis Set:

    Orbital Energies (a.u.)
    -----------------------

    Doubly Occupied:

       1A    -20.562065     2A    -11.326219     3A    -11.235427
       4A    -11.234740     5A    -11.224082     6A    -11.220278
       7A    -11.218173     8A    -11.216971     9A    -11.210643
      10A     -1.402007    11A     -1.104040    12A     -1.069187
      13A     -1.012941    14A     -0.942313    15A     -0.877646
      16A     -0.822282    17A     -0.788047    18A     -0.777337
      19A     -0.664655    20A     -0.662459    21A     -0.634917
      22A     -0.624765    23A     -0.601198    24A     -0.592865
      25A     -0.575918    26A     -0.550796    27A     -0.536009
      28A     -0.523825    29A     -0.510953    30A     -0.495367
      31A     -0.491324    32A     -0.480102    33A     -0.460455
      34A     -0.457817    35A     -0.442710    36A     -0.409602

  @DF-RHF Final Energy:  -387.12028716947543

   => Energetics <=

    Nuclear Repulsion Energy =            439.8686790282176844
    One-Electron Energy =               -1396.0576668136534408
    Two-Electron Energy =                 569.0687006159604380
    DFT Exchange-Correlation Energy =       0.0000000000000000
    Empirical Dispersion Energy =           0.0000000000000000
    PCM Polarization Energy =               0.0000000000000000
    EFP Energy =                            0.0000000000000000
    Total Energy =                       -387.1202871694753185
    Molecular point group: c1
  Basis Set: 6-31G*
  Basis Set:

  -Total Gradient:
     Atom            X                  Y                   Z
    ------   -----------------  -----------------  -----------------
       1       -0.000001584418     0.000001161410     0.000000826280
       2        0.000004499541    -0.000002330630     0.000007088254
       3        0.000000319740     0.000008621326    -0.000016994357
       4        0.000002285339     0.000003904761    -0.000001650779
       5       -0.000000113493    -0.000003967980     0.000008745992
       6       -0.000002201102     0.000000717986    -0.000003962265
       7        0.000001749034    -0.000002667595    -0.000000088724
       8       -0.000001019182    -0.000010348967     0.000007366290
       9        0.000001575847    -0.000003222670     0.000004843368
      10       -0.000005546467     0.000000430565     0.000004714680
      11        0.000001508833     0.000005813572    -0.000008936211
      12       -0.000005403680    -0.000003386687     0.000000447725
      13        0.000004852349    -0.000000010714     0.000000917021
      14       -0.000885442024     0.005919717054     0.001082487176
      15        0.000007590067     0.000004964434     0.000000435077
      16       -0.000003014839    -0.000001253295    -0.000002189309
      17        0.001837243385    -0.002003992141    -0.004375812300
      18        0.000287934040    -0.004560883331     0.000196849013
      19       -0.000001119390     0.000000522183    -0.000000692726
      20       -0.001241470255     0.000645487414     0.003096451486
      21        0.000000297616    -0.000002846857    -0.000000099662
      22        0.000000287286     0.000002447478    -0.000001244397
      23        0.000000954611    -0.000000858789    -0.000000051884
      24       -0.000003409612     0.000002638785    -0.000000561413
      25       -0.000000773223    -0.000000657314     0.000001111661

  **** Optimization is complete! (in 10 steps) ****
    Final optimized geometry and variables:
    Molecular point group: c1

    Geometry (in Angstrom), charge = 0, multiplicity = 1:

    H           -3.242511340705    -0.326181546543     1.428109505533
    C           -3.288516525459    -0.320079396002     0.331900944671
    C           -2.656842816524     0.880479567246    -0.325711147726
    O           -3.814700204801    -1.213494331156    -0.248422981694
    C           -1.216956940270     1.121923456423     0.148624009248
    H           -2.705169887206     0.746688843295    -1.400230424838
    H           -3.268294330495     1.744589420971    -0.068956302174
    C           -0.238869013648     0.028089573057    -0.287561376705
    H           -0.883127281155     2.080167719022    -0.238629503492
    H           -1.204811729743     1.213396046791     1.233492002779
    C            1.195229329382     0.291993582231     0.175654124472
    H           -0.259638416288    -0.055230975988    -1.372261114745
    H           -0.568373457521    -0.936154953586     0.094721554796
    C            2.170450299384    -0.792974251749    -0.283185244416
    H            1.513842290623     1.261952136122    -0.196813020868
    H            1.215208160048     0.359280839219     1.262685761533
    C            3.601380793122    -0.679240208250     0.265994739424
    H            2.200244018346    -0.837685922214    -1.370516892177
    H            1.777130049633    -1.761008787154     0.022479764059
    C            4.213022199389     0.722429534839     0.218370263779
    H            4.236985386341    -1.371056394820    -0.279646029730
    H            3.607117925409    -1.016982537614     1.300475937646
    H            4.198040638805     1.130807099232    -0.789028077335
    H            3.683149529466     1.414100673611     0.864024834750
    H            5.247585887853     0.697600120034     0.546451089965

  Mulliken Charges: (a.u.)
   Center  Symbol    Alpha    Beta     Spin     Total
       1     H     0.43261  0.43261  0.00000  0.13478
       2     C     2.83084  2.83084  0.00000  0.33832
       3     C     3.20816  3.20816  0.00000 -0.41633
       4     O     4.23774  4.23774  0.00000 -0.47548
       5     C     3.16659  3.16659  0.00000 -0.33319
       6     H     0.39968  0.39968  0.00000  0.20064
       7     H     0.40660  0.40660  0.00000  0.18679
       8     C     3.15489  3.15489  0.00000 -0.30978
       9     H     0.41283  0.41283  0.00000  0.17433
      10     H     0.41966  0.41966  0.00000  0.16067
      11     C     3.15517  3.15517  0.00000 -0.31034
      12     H     0.41791  0.41791  0.00000  0.16417
      13     H     0.41827  0.41827  0.00000  0.16346
      14     C     3.15394  3.15394  0.00000 -0.30789
      15     H     0.41978  0.41978  0.00000  0.16043
      16     H     0.42363  0.42363  0.00000  0.15274
      17     C     3.15177  3.15177  0.00000 -0.30353
      18     H     0.42236  0.42236  0.00000  0.15529
      19     H     0.42110  0.42110  0.00000  0.15779
      20     C     3.24266  3.24266  0.00000 -0.48532
      21     H     0.41964  0.41964  0.00000  0.16071
      22     H     0.42318  0.42318  0.00000  0.15363
      23     H     0.42239  0.42239  0.00000  0.15522
      24     H     0.41988  0.41988  0.00000  0.16023
      25     H     0.41868  0.41868  0.00000  0.16264

   Total alpha = 36.00000, Total beta = 36.00000, Total charge = -0.00000
