  ==> Input File <==

--------------------------------------------------------------------------
set {
	reference rhf
	basis 6-31G*
}

set_num_threads( 4 )
memory 2 gb

molecule MOL {
0 1

H	 1.512696	 1.312108	 0.059723
C	 0.850167	 0.441173	 0.000644
C	 -0.623425	 0.760064	 0.000248
O	 1.306853	 -0.654044	 -0.060045
C	 -1.518387	 -0.473136	 -0.000101
H	 -0.818289	 1.390622	 -0.866171
H	 -0.818694	 1.390413	 0.866696
H	 -1.333417	 -1.085530	 -0.874338
H	 -2.563510	 -0.183466	 -0.000351
H	 -1.333864	 -1.085676	 0.874123

	symmetry c1
}
set optking {
	frozen_dihedral = ("
		4 2 3 6
	")
}

ee = optimize('scf')
oeprop('DIPOLE', 'QUADRUPOLE', 'MULLIKEN_CHARGES')
f=open( 'psi4out.xyz', 'w' )
f.write( "10  " )
f.write( str(ee) + "\n" )
f.write( MOL.save_string_xyz() )
f.close()
--------------------------------------------------------------------------

    Molecular point group: c1
  Charge       = 0
  Multiplicity = 1
  Basis Set: 6-31G*
  Basis Set:
  @DF-RHF Final Energy:  -191.95200992444995
    Total Energy =                       -191.9520099244499534
    Molecular point group: c1
  Basis Set: 6-31G*
  Basis Set:
  Basis Set: 6-31G*
  Basis Set:
  @DF-RHF Final Energy:  -191.95198182505197
    Total Energy =                       -191.9519818250519734
  Basis Set: 6-31G*
  Basis Set:
  Basis Set: 6-31G*
  Basis Set:
  @DF-RHF Final Energy:  -191.95201179961839
    Total Energy =                       -191.9520117996184467
  Basis Set: 6-31G*
  Basis Set:
  Charge       = 0
  Multiplicity = 1
  Basis Set: 6-31G*
  Basis Set:

    Orbital Energies (a.u.)
    -----------------------

    Doubly Occupied:

       1A    -20.564971     2A    -11.329151     3A    -11.240695
       4A    -11.219166     5A     -1.405204     6A     -1.060253
       7A     -0.910170     8A     -0.773705     9A     -0.683118
      10A     -0.635368    11A     -0.630070    12A     -0.541079
      13A     -0.531819    14A     -0.518979    15A     -0.493038
      16A     -0.414982

  @DF-RHF Final Energy:  -191.95201598539759

   => Energetics <=

    Nuclear Repulsion Energy =            119.1947098537807221
    One-Electron Energy =                -496.3899133258466350
    Two-Electron Energy =                 185.2431874866683188
    DFT Exchange-Correlation Energy =       0.0000000000000000
    Empirical Dispersion Energy =           0.0000000000000000
    PCM Polarization Energy =               0.0000000000000000
    EFP Energy =                            0.0000000000000000
    Total Energy =                       -191.9520159853976224
    Molecular point group: c1
  Basis Set: 6-31G*
  Basis Set:

  -Total Gradient:
     Atom            X                  Y                   Z
    ------   -----------------  -----------------  -----------------
       1        0.000003185736     0.000000029607    -0.000003476332
       2       -0.000022710156    -0.000091553696     0.000510070154
       3        0.000078074140     0.000349053853     0.000046388681
       4        0.000007045827     0.000023018343    -0.000379274460
       5       -0.000000089655     0.000010310541     0.000010399158
       6       -0.000055330894    -0.000283271571    -0.000195592852
       7       -0.000006801933     0.000000855706     0.000004890947
       8        0.000001646600     0.000008991341     0.000003449906
       9       -0.000000473724    -0.000003994470    -0.000001092559
      10       -0.000004545947    -0.000013439653     0.000004237357

  **** Optimization is complete! (in 4 steps) ****
    Final optimized geometry and variables:
    Molecular point group: c1

    Geometry (in Angstrom), charge = 0, multiplicity = 1:

    H            1.513436555721     1.311684208116     0.065006874478
    C            0.850201599528     0.440696693828     0.015188338326
    C           -0.623373828310     0.760046376150     0.018309980656
    O            1.306169559384    -0.654907396329    -0.043798857411
    C           -1.518151933754    -0.473494817060     0.013512661756
    H           -0.816706981947     1.388192079627    -0.850510970709
    H           -0.820961021363     1.390738182093     0.883550005766
    H           -1.330482667728    -1.084158432476    -0.861165259246
    H           -2.563390667268    -0.184091997558     0.011157174171
    H           -1.336178410304    -1.087728763492     0.887330132808

  Mulliken Charges: (a.u.)
   Center  Symbol    Alpha    Beta     Spin     Total
       1     H     0.42826  0.42826  0.00000  0.14348
       2     C     2.83501  2.83501  0.00000  0.32999
       3     C     3.21170  3.21170  0.00000 -0.42340
       4     O     4.23656  4.23656  0.00000 -0.47312
       5     C     3.23697  3.23697  0.00000 -0.47393
       6     H     0.40667  0.40667  0.00000  0.18666
       7     H     0.40782  0.40782  0.00000  0.18437
       8     H     0.40889  0.40889  0.00000  0.18223
       9     H     0.41788  0.41788  0.00000  0.16425
      10     H     0.41026  0.41026  0.00000  0.17947

   Total alpha = 16.00000, Total beta = 16.00000, Total charge = -0.00000
