  ==> Input File <==

--------------------------------------------------------------------------
set {
	reference rhf
	basis 6-31G*
}

set_num_threads( 4 )
memory 2 gb

molecule MOL {
0 1

O	 -0.116234	 -4.623725	 -2.071797
C	 0.225998	 -3.667037	 -2.697944
C	 0.284026	 -2.293852	 -2.051954
C	 0.647673	 -3.775418	 -4.146329
C	 1.557273	 -2.140247	 -1.204375
H	 -0.588529	 -2.192548	 -1.415803
H	 0.244423	 -1.514117	 -2.807249
C	 1.631333	 -0.777471	 -0.511575
H	 1.576008	 -2.941330	 -0.474101
H	 2.435276	 -2.269457	 -1.835375
C	 2.915987	 -0.544314	 0.291766
H	 0.771129	 -0.662704	 0.145390
H	 1.546637	 0.003667	 -1.264235
C	 3.373361	 0.914346	 0.347591
H	 3.708709	 -1.142521	 -0.150311
H	 2.780642	 -0.921148	 1.303579
H	 3.506512	 1.320010	 -0.651625
H	 4.322697	 0.999599	 0.867103
H	 2.660624	 1.545032	 0.868198
H	 -0.065098	 -3.247850	 -4.774735
H	 0.688144	 -4.814102	 -4.443448
H	 1.616594	 -3.309359	 -4.300553

	symmetry c1
}
set optking {
	frozen_dihedral = ("
		12 8 11 15
	")
}

ee = optimize('scf')
oeprop('DIPOLE', 'QUADRUPOLE', 'MULLIKEN_CHARGES')
f=open( 'psi4out.xyz', 'w' )
f.write( "22  " )
f.write( str(ee) + "\n" )
f.write( MOL.save_string_xyz() )
f.close()
--------------------------------------------------------------------------

    Molecular point group: c1
  Charge       = 0
  Multiplicity = 1
  Basis Set: 6-31G*
  Basis Set:
  @DF-RHF Final Energy:  -348.09648810534702
    Total Energy =                       -348.0964881053472482
    Molecular point group: c1
  Basis Set: 6-31G*
  Basis Set:
  Basis Set: 6-31G*
  Basis Set:
  @DF-RHF Final Energy:  -348.09717090292548
    Total Energy =                       -348.0971709029254271
  Basis Set: 6-31G*
  Basis Set:
  Basis Set: 6-31G*
  Basis Set:
  @DF-RHF Final Energy:  -348.09480157528839
    Total Energy =                       -348.0948015752883862
  Basis Set: 6-31G*
  Basis Set:
  Basis Set: 6-31G*
  Basis Set:
  @DF-RHF Final Energy:  -348.09725381552522
    Total Energy =                       -348.0972538155250504
  Basis Set: 6-31G*
  Basis Set:
  @DF-RHF Final Energy:  -348.09706626099512
    Total Energy =                       -348.0970662609951205
  @DF-RHF Final Energy:  -348.09714801844149
    Total Energy =                       -348.0971480184413167
  Basis Set: 6-31G*
  Basis Set:
  @DF-RHF Final Energy:  -348.09727354475274
    Total Energy =                       -348.0972735447525110
  Basis Set: 6-31G*
  Basis Set:
  Basis Set: 6-31G*
  Basis Set:
  @DF-RHF Final Energy:  -348.09729876218159
    Total Energy =                       -348.0972987621817651
  Basis Set: 6-31G*
  Basis Set:
  Basis Set: 6-31G*
  Basis Set:
  @DF-RHF Final Energy:  -348.09730809549097
    Total Energy =                       -348.0973080954910301
  Basis Set: 6-31G*
  Basis Set:
  Charge       = 0
  Multiplicity = 1
  Basis Set: 6-31G*
  Basis Set:

    Orbital Energies (a.u.)
    -----------------------

    Doubly Occupied:

       1A    -20.547294     2A    -11.324419     3A    -11.230114
       4A    -11.229011     5A    -11.228142     6A    -11.222320
       7A    -11.220280     8A    -11.213199     9A     -1.393044
      10A     -1.095367    11A     -1.045110    12A     -1.000789
      13A     -0.939160    14A     -0.845666    15A     -0.798991
      16A     -0.732515    17A     -0.664175    18A     -0.647167
      19A     -0.629509    20A     -0.609462    21A     -0.591650
      22A     -0.587061    23A     -0.561647    24A     -0.549577
      25A     -0.534632    26A     -0.513094    27A     -0.497185
      28A     -0.487562    29A     -0.474551    30A     -0.466608
      31A     -0.459022    32A     -0.395948

  @DF-RHF Final Energy:  -348.09730804290791

   => Energetics <=

    Nuclear Repulsion Energy =            368.6191325669182106
    One-Electron Energy =               -1201.9643374175154804
    Two-Electron Energy =                 485.2478968076895853
    DFT Exchange-Correlation Energy =       0.0000000000000000
    Empirical Dispersion Energy =           0.0000000000000000
    PCM Polarization Energy =               0.0000000000000000
    EFP Energy =                            0.0000000000000000
    Total Energy =                       -348.0973080429076845
    Molecular point group: c1
  Basis Set: 6-31G*
  Basis Set:

  -Total Gradient:
     Atom            X                  Y                   Z
    ------   -----------------  -----------------  -----------------
       1        0.000050154104    -0.000013794820     0.000025620949
       2       -0.000097500096     0.000007708682    -0.000048811412
       3        0.000024649754    -0.000015726262     0.000016448283
       4       -0.000028018134    -0.000012713442    -0.000002394640
       5        0.000005131636     0.000027518242     0.000002389078
       6       -0.000012851729    -0.000000839636    -0.000006022437
       7        0.000010977016    -0.000001315571     0.000009526228
       8       -0.000272574026     0.004410141551    -0.000420211698
       9        0.000027564783    -0.000002798882    -0.000012685217
      10       -0.000013532446    -0.000009621622    -0.000023093114
      11        0.001414355798     0.003097318464    -0.002762023145
      12        0.000013706483    -0.004169396332     0.000801238560
      13        0.000027411397     0.000001316153    -0.000011928046
      14        0.000032899060    -0.000000250211    -0.000031093759
      15       -0.001202097685    -0.003306937182     0.002449869338
      16        0.000003453407    -0.000022148745    -0.000002692396
      17       -0.000029728450     0.000014811396    -0.000001216270
      18        0.000021881051     0.000007785577    -0.000013347078
      19       -0.000015180649    -0.000019066855     0.000011759326
      20        0.000015622277     0.000003762998     0.000009946645
      21        0.000003937805    -0.000000154599     0.000005476465
      22        0.000019738643     0.000004401101     0.000003244344

  **** Optimization is complete! (in 10 steps) ****
    Final optimized geometry and variables:
    Molecular point group: c1

    Geometry (in Angstrom), charge = 0, multiplicity = 1:

    O           -1.416147527539    -2.528776580856    -0.519158896689
    C           -1.104621407950    -1.574753278038    -1.164919245404
    C           -1.055843552108    -0.192154062308    -0.538678080530
    C           -0.719771799404    -1.694088248296    -2.622896237299
    C            0.251987994647     0.011005263597     0.242217542221
    H           -1.899451029823    -0.107605800470     0.137473239701
    H           -1.154473229075     0.575713364350    -1.301010535051
    C            0.333554883542     1.386861789339     0.908965594614
    H            0.329843963757    -0.768268559468     0.994691951862
    H            1.102241584509    -0.114719004311    -0.425591216637
    C            1.597940441907     1.555522038001     1.765712164194
    H           -0.545326858421     1.505436292263     1.538229053298
    H            0.290170141109     2.159766628256     0.144875132899
    C            2.038565110970     3.009027441053     1.923230524039
    H            2.406364034797     0.957194602788     1.351755748684
    H            1.411428084865     1.130222622715     2.749221573944
    H            2.294308320122     3.447135868779     0.962656830619
    H            2.908558776417     3.089665858347     2.567319808853
    H            1.246784411405     3.611536024369     2.359722687545
    H           -1.461416724568    -1.191735591189    -3.238342106837
    H           -0.664184845973    -2.735785169687    -2.906661795497
    H            0.233720606287    -1.209028348849    -2.810643286683

  Mulliken Charges: (a.u.)
   Center  Symbol    Alpha    Beta     Spin     Total
       1     O     4.26222  4.26222  0.00000 -0.52445
       2     C     2.73710  2.73710  0.00000  0.52580
       3     C     3.20022  3.20022  0.00000 -0.40045
       4     C     3.28954  3.28954  0.00000 -0.57908
       5     C     3.16393  3.16393  0.00000 -0.32785
       6     H     0.40122  0.40122  0.00000  0.19755
       7     H     0.41693  0.41693  0.00000  0.16615
       8     C     3.15167  3.15167  0.00000 -0.30335
       9     H     0.40611  0.40611  0.00000  0.18777
      10     H     0.42062  0.42062  0.00000  0.15876
      11     C     3.15441  3.15441  0.00000 -0.30882
      12     H     0.41901  0.41901  0.00000  0.16198
      13     H     0.42228  0.42228  0.00000  0.15544
      14     C     3.23979  3.23979  0.00000 -0.47958
      15     H     0.42116  0.42116  0.00000  0.15768
      16     H     0.41922  0.41922  0.00000  0.16157
      17     H     0.42177  0.42177  0.00000  0.15646
      18     H     0.41838  0.41838  0.00000  0.16323
      19     H     0.42068  0.42068  0.00000  0.15864
      20     H     0.40683  0.40683  0.00000  0.18633
      21     H     0.39707  0.39707  0.00000  0.20586
      22     H     0.40983  0.40983  0.00000  0.18034

   Total alpha = 32.00000, Total beta = 32.00000, Total charge = -0.00000
