                              Psi4 1.0.54 Driver

  ==> Input File <==

--------------------------------------------------------------------------
set {
	reference rhf
	basis cc-pvtz
}

set_num_threads( 4 )
memory 2 gb

molecule MOL {
0 1

H	 3.721907	 -0.933076	 -0.066039
O	 2.824271	 -1.154299	 0.131461
C	 2.076458	 -0.067370	 -0.038225
C	 0.626018	 -0.337582	 0.258241
O	 2.538288	 0.965419	 -0.381593
C	 -0.267326	 0.883135	 0.076490
H	 0.325620	 -1.161483	 -0.378003
H	 0.574537	 -0.713685	 1.275261
C	 -1.726822	 0.642622	 0.463839
H	 -0.210803	 1.217591	 -0.953497
H	 0.129920	 1.693110	 0.675679
C	 -2.480891	 -0.340606	 -0.429852
H	 -2.243098	 1.597649	 0.438609
H	 -1.776542	 0.301208	 1.495542
C	 -3.394225	 0.356583	 -1.432959
H	 -1.764040	 -0.958175	 -0.964425
H	 -3.075760	 -1.017039	 0.175562
H	 -3.914997	 -0.362016	 -2.055128
H	 -2.828925	 1.012342	 -2.086498
H	 -4.141600	 0.959511	 -0.927921

	symmetry c1
}
set optking {
	frozen_dihedral = ("
		16 12 9 6
	")
}

ee,wfn = optimize('scf', return_wfn=True)
oeprop( wfn, 'DIPOLE', 'QUADRUPOLE', 'MULLIKEN_CHARGES')
f=open( 'psi4out.xyz', 'w' )
f.write( "20  " )
f.write( str(ee) + "\n" )
f.write( MOL.save_string_xyz() )
f.close()
--------------------------------------------------------------------------

    Molecular point group: c1
  Charge       = 0
  Multiplicity = 1
  Basis Set: CC-PVTZ
  Basis Set:
  @DF-RHF Final Energy:  -384.08987183969492
    Total Energy =                       -384.0898718396947515
    Molecular point group: c1
  Basis Set: CC-PVTZ
  Basis Set:
  Basis Set: CC-PVTZ
  Basis Set:
  @DF-RHF Final Energy:  -384.08658780181827
    Total Energy =                       -384.0865878018180410
  Basis Set: CC-PVTZ
  Basis Set:
  Basis Set: CC-PVTZ
  Basis Set:
  @DF-RHF Final Energy:  -384.09024663716167
    Total Energy =                       -384.0902466371624087
  Basis Set: CC-PVTZ
  Basis Set:
  Basis Set: CC-PVTZ
  Basis Set:
  @DF-RHF Final Energy:  -384.09044796616985
    Total Energy =                       -384.0904479661700179
  Basis Set: CC-PVTZ
  Basis Set:
  @DF-RHF Final Energy:  -384.09047503002637
    Total Energy =                       -384.0904750300264823
  Basis Set: CC-PVTZ
  Basis Set:
  @DF-RHF Final Energy:  -384.09034541555837
    Total Energy =                       -384.0903454155585450
  Basis Set: CC-PVTZ
  Basis Set:
  Basis Set: CC-PVTZ
  Basis Set:
  @DF-RHF Final Energy:  -384.09050057895257
    Total Energy =                       -384.0905005789527422
  Basis Set: CC-PVTZ
  Basis Set:
  Basis Set: CC-PVTZ
  Basis Set:
  @DF-RHF Final Energy:  -384.09050325260773
    Total Energy =                       -384.0905032526078458
  Basis Set: CC-PVTZ
  Basis Set:
  Charge       = 0
  Multiplicity = 1
  Basis Set: CC-PVTZ
  Basis Set:

    Orbital Energies (a.u.)
    -----------------------

    Doubly Occupied:

       1A    -20.603970     2A    -20.540611     3A    -11.373557
       4A    -11.238799     5A    -11.221515     6A    -11.218617
       7A    -11.218031     8A    -11.209910     9A     -1.477564
      10A     -1.369073    11A     -1.096874    12A     -1.040529
      13A     -0.960755    14A     -0.873035    15A     -0.817726
      16A     -0.775724    17A     -0.703767    18A     -0.693004
      19A     -0.669108    20A     -0.630284    21A     -0.613053
      22A     -0.590705    23A     -0.577753    24A     -0.566799
      25A     -0.523362    26A     -0.513988    27A     -0.508130
      28A     -0.484621    29A     -0.469625    30A     -0.461910
      31A     -0.458712    32A     -0.446322

  @DF-RHF Final Energy:  -384.09050335009221

   => Energetics <=

    Nuclear Repulsion Energy =            378.4245850926478738
    One-Electron Energy =               -1273.1353093468715088
    Two-Electron Energy =                 510.6202209041312585
    DFT Exchange-Correlation Energy =       0.0000000000000000
    Empirical Dispersion Energy =           0.0000000000000000
    PCM Polarization Energy =               0.0000000000000000
    EFP Energy =                            0.0000000000000000
    Total Energy =                       -384.0905033500923196
    Molecular point group: c1
  Basis Set: CC-PVTZ
  Basis Set:

  -Total Gradient:
     Atom            X                  Y                   Z
    ------   -----------------  -----------------  -----------------
       1        0.000009479123    -0.000010973764     0.000003686285
       2        0.000035167410     0.000006510514    -0.000020521506
       3       -0.000032403965     0.000039699066     0.000014054559
       4       -0.000005916556     0.000000265730    -0.000037214607
       5        0.000005378951    -0.000046317552     0.000012469707
       6        0.000445977322    -0.001640806880     0.000886756065
       7        0.000001884875     0.000002930102     0.000013824945
       8        0.000004273346     0.000009040063     0.000006369051
       9       -0.000612468848     0.002827054164    -0.001589669555
      10       -0.000003992607    -0.000002595697    -0.000001078355
      11        0.000001709596    -0.000003805066    -0.000003719094
      12       -0.000016674396    -0.003240547176     0.002297738083
      13       -0.000001878332     0.000001060259     0.000009269374
      14        0.000011649408     0.000009115735    -0.000000493012
      15       -0.000006357953    -0.000012618323    -0.000006171986
      16        0.000159507943     0.002060865686    -0.001578474638
      17       -0.000000114477    -0.000000940831    -0.000008480218
      18       -0.000004062140     0.000003389063     0.000001207544
      19        0.000001681968    -0.000003185289    -0.000000989822
      20        0.000007159343     0.000001860196     0.000001437177

  **** Optimization is complete! (in 9 steps) ****
    Final optimized geometry and variables:
    Molecular point group: c1

    Geometry (in Angstrom), charge = 0, multiplicity = 1:

    H            3.613898968180    -1.161610883792     0.177286371678
    O            2.711127931157    -1.367141776589     0.368326258966
    C            1.986151679207    -0.262937993411     0.211479936022
    C            0.529384283022    -0.507591239066     0.498448592267
    O            2.469822026231     0.765205188624    -0.115586462741
    C           -0.337822609941     0.735988130594     0.350636408465
    H            0.209901216000    -1.308889963298    -0.157872761678
    H            0.466261982738    -0.908592343944     1.504922163074
    C           -1.819694790570     0.470331185811     0.627403146717
    H           -0.211956538767     1.146893416459    -0.644950337124
    H            0.027413096068     1.493206767680     1.033879459684
    C           -2.549356894631    -0.314664325301    -0.480000106982
    H           -2.320775643725     1.420420303704     0.776525352699
    H           -1.904513093974    -0.059757531594     1.571666865818
    C           -3.377829217727     0.583980740612    -1.396397205180
    H           -1.829727508642    -0.844292716635    -1.095338552606
    H           -3.196118801461    -1.066408739134    -0.042408642862
    H           -3.844452771490     0.012446522135    -2.190692345761
    H           -2.760603635129     1.347839236783    -1.857905107458
    H           -4.163638880027     1.086334107048    -0.842681895289

  Mulliken Charges: (a.u.)
   Center  Symbol    Alpha    Beta     Spin     Total
       1     H     0.38242  0.38242  0.00000  0.23515
       2     O     4.16047  4.16047  0.00000 -0.32094
       3     C     2.80328  2.80328  0.00000  0.39344
       4     C     3.11181  3.11181  0.00000 -0.22363
       5     O     4.19110  4.19110  0.00000 -0.38219
       6     C     3.09227  3.09227  0.00000 -0.18455
       7     H     0.43700  0.43700  0.00000  0.12601
       8     H     0.43726  0.43726  0.00000  0.12548
       9     C     3.10789  3.10789  0.00000 -0.21577
      10     H     0.44457  0.44457  0.00000  0.11086
      11     H     0.44064  0.44064  0.00000  0.11871
      12     C     3.09087  3.09087  0.00000 -0.18174
      13     H     0.44538  0.44538  0.00000  0.10924
      14     H     0.44841  0.44841  0.00000  0.10318
      15     C     3.14697  3.14697  0.00000 -0.29394
      16     H     0.45601  0.45601  0.00000  0.08798
      17     H     0.44702  0.44702  0.00000  0.10595
      18     H     0.44914  0.44914  0.00000  0.10173
      19     H     0.45354  0.45354  0.00000  0.09291
      20     H     0.45394  0.45394  0.00000  0.09212

   Total alpha = 32.00000, Total beta = 32.00000, Total charge =  0.00000

*** Psi4 exiting successfully. Buy a developer a beer!
