  ==> Input File <==

--------------------------------------------------------------------------
set {
	reference rhf
	basis 6-31G*
}

set_num_threads( 4 )
memory 2 gb

molecule MOL {
0 1

H	 -2.601358	 -0.494692	 -0.035179
N	 -1.852874	 0.170977	 -0.023598
C	 -0.563778	 -0.502042	 0.037919
H	 -1.988433	 0.745178	 0.786755
C	 0.575259	 0.508231	 -0.048326
H	 -0.504488	 -1.180569	 -0.807825
H	 -0.438919	 -1.111083	 0.936932
C	 1.954651	 -0.143624	 0.035137
H	 0.475158	 1.060484	 -0.977307
H	 0.469181	 1.234488	 0.755973
H	 2.103292	 -0.853109	 -0.774172
H	 2.742821	 0.599562	 -0.030094
H	 2.083613	 -0.679371	 0.971560

	symmetry c1
}
set optking {
	frozen_dihedral = ("
		6 3 5 9
	")
}

ee = optimize('scf')
oeprop('DIPOLE', 'QUADRUPOLE', 'MULLIKEN_CHARGES')
f=open( 'psi4out.xyz', 'w' )
f.write( "13  " )
f.write( str(ee) + "\n" )
f.write( MOL.save_string_xyz() )
f.close()
--------------------------------------------------------------------------

    Molecular point group: c1
  Charge       = 0
  Multiplicity = 1
  Basis Set: 6-31G*
  Basis Set:
  @DF-RHF Final Energy:  -173.28240324647598
    Total Energy =                       -173.2824032464758943
    Molecular point group: c1
  Basis Set: 6-31G*
  Basis Set:
  Basis Set: 6-31G*
  Basis Set:
  @DF-RHF Final Energy:  -173.28240527558276
    Total Energy =                       -173.2824052755828177
  Basis Set: 6-31G*
  Basis Set:
  Basis Set: 6-31G*
  Basis Set:
  @DF-RHF Final Energy:  -173.28240644144500
    Total Energy =                       -173.2824064414449197
  Basis Set: 6-31G*
  Basis Set:
  Charge       = 0
  Multiplicity = 1
  Basis Set: 6-31G*
  Basis Set:

    Orbital Energies (a.u.)
    -----------------------

    Doubly Occupied:

       1A    -15.532819     2A    -11.240163     3A    -11.212010
       4A    -11.209095     5A     -1.176894     6A     -1.035008
       7A     -0.898536     8A     -0.799663     9A     -0.662467
      10A     -0.628593    11A     -0.603022    12A     -0.566153
      13A     -0.530576    14A     -0.491469    15A     -0.477106
      16A     -0.468748    17A     -0.381606

  @DF-RHF Final Energy:  -173.28240648206560

   => Energetics <=

    Nuclear Repulsion Energy =            131.7799209402813858
    One-Electron Energy =                -494.2967977996102036
    Two-Electron Energy =                 189.2344703772633068
    DFT Exchange-Correlation Energy =       0.0000000000000000
    Empirical Dispersion Energy =           0.0000000000000000
    PCM Polarization Energy =               0.0000000000000000
    EFP Energy =                            0.0000000000000000
    Total Energy =                       -173.2824064820655110
    Molecular point group: c1
  Basis Set: 6-31G*
  Basis Set:

  -Total Gradient:
     Atom            X                  Y                   Z
    ------   -----------------  -----------------  -----------------
       1       -0.000001961915     0.000004645756     0.000000850363
       2       -0.000001515966    -0.000004563519     0.000013284854
       3        0.000402425862    -0.000435411287     0.000238479905
       4       -0.000007339468     0.000002950615    -0.000001511810
       5       -0.000399188384     0.000467093474     0.000220200011
       6       -0.000272402406     0.000287904005    -0.000254851493
       7        0.000000703809     0.000010938771    -0.000001545204
       8        0.000004720401     0.000002265476     0.000003207763
       9        0.000264497939    -0.000327321558    -0.000220839582
      10        0.000001978077    -0.000004668746     0.000000692636
      11       -0.000002348992    -0.000000488325     0.000002230099
      12        0.000003144737    -0.000001984263    -0.000002601068
      13        0.000007286304    -0.000001360400     0.000002403525

  **** Optimization is complete! (in 4 steps) ****
    Final optimized geometry and variables:
    Molecular point group: c1

    Geometry (in Angstrom), charge = 0, multiplicity = 1:

    H           -2.601064784933    -0.495699593478    -0.056486538682
    N           -1.852613494260     0.169863403488    -0.039575687286
    C           -0.563618818697    -0.503296098512     0.026665348576
    H           -1.992330855605     0.742518671896     0.771190627170
    C            0.574868499003     0.507761125833    -0.058927444954
    H           -0.503382350838    -1.181159623060    -0.819477327885
    H           -0.441551962328    -1.111194452663     0.926706628648
    C            1.954399106665    -0.144755718959     0.019787992129
    H            0.474732303574     1.060451968981    -0.987662155155
    H            0.470648324347     1.232310652254     0.746927165173
    H            2.098749813989    -0.856628313922    -0.788240762741
    H            2.742722904514     0.597706786355    -0.051543466487
    H            2.087694049587    -0.678030490945     0.956991313488

  Mulliken Charges: (a.u.)
   Center  Symbol    Alpha    Beta     Spin     Total
       1     H     0.33241  0.33241  0.00000  0.33518
       2     N     3.92173  3.92173  0.00000 -0.84347
       3     C     3.05960  3.05960  0.00000 -0.11919
       4     H     0.33530  0.33530  0.00000  0.32940
       5     C     3.15049  3.15049  0.00000 -0.30099
       6     H     0.42094  0.42094  0.00000  0.15811
       7     H     0.43503  0.43503  0.00000  0.12994
       8     C     3.24393  3.24393  0.00000 -0.48786
       9     H     0.41269  0.41269  0.00000  0.17462
      10     H     0.42670  0.42670  0.00000  0.14660
      11     H     0.42116  0.42116  0.00000  0.15769
      12     H     0.41768  0.41768  0.00000  0.16464
      13     H     0.42233  0.42233  0.00000  0.15534

   Total alpha = 17.00000, Total beta = 17.00000, Total charge = -0.00000
