                              Psi4 1.0.54 Driver

  ==> Input File <==

--------------------------------------------------------------------------
set {
	reference rhf
	basis cc-pvtz
}

set_num_threads( 4 )
memory 2 gb

molecule MOL {
0 1

H	 -4.340537	 -0.784487	 0.000000
O	 -3.958786	 0.074640	 0.000000
C	 -2.613554	 0.009900	 0.000000
C	 -1.915312	 1.186835	 0.213204
C	 -1.925042	 -1.170774	 -0.202108
H	 -2.459684	 2.096937	 0.368880
C	 -0.538172	 1.178055	 0.223330
H	 -2.459763	 -2.087870	 -0.368162
C	 -0.542089	 -1.177836	 -0.191630
H	 0.000162	 2.089489	 0.388418
C	 0.145714	 -0.005519	 0.020672
H	 -0.012415	 -2.095686	 -0.348795
Br	 2.044031	 -0.012285	 0.035571

	symmetry c1
}
set optking {
	frozen_dihedral = ("
		4 3 2 1
	")
}

ee,wfn = optimize('scf', return_wfn=True)
oeprop( wfn, 'DIPOLE', 'QUADRUPOLE', 'MULLIKEN_CHARGES')
f=open( 'psi4out.xyz', 'w' )
f.write( "13  " )
f.write( str(ee) + "\n" )
f.write( MOL.save_string_xyz() )
f.close()
--------------------------------------------------------------------------

    Molecular point group: c1
  Charge       = 0
  Multiplicity = 1
  Basis Set: CC-PVTZ
  Basis Set:
  @DF-RHF Final Energy: -2877.54689236738523
    Total Energy =                      -2877.5468923673847712
    Molecular point group: c1
  Basis Set: CC-PVTZ
  Basis Set:
  Basis Set: CC-PVTZ
  Basis Set:
  @DF-RHF Final Energy: -2877.54689513861376
    Total Energy =                      -2877.5468951386146728
  Basis Set: CC-PVTZ
  Basis Set:
  Charge       = 0
  Multiplicity = 1
  Basis Set: CC-PVTZ
  Basis Set:

    Orbital Energies (a.u.)
    -----------------------

    Doubly Occupied:

       1A   -490.018434     2A    -65.158755     3A    -58.513981
       4A    -58.512613     5A    -58.512609     6A    -20.596621
       7A    -11.311916     8A    -11.287743     9A    -11.254033
      10A    -11.252292    11A    -11.242795    12A    -11.237461
      13A     -9.832548    14A     -7.444168    15A     -7.437420
      16A     -7.437347    17A     -3.187857    18A     -3.184300
      19A     -3.184206    20A     -3.175552    21A     -3.175548
      22A     -1.428168    23A     -1.179885    24A     -1.066732
      25A     -1.042219    26A     -0.970518    27A     -0.869869
      28A     -0.828169    29A     -0.758368    30A     -0.689883
      31A     -0.654002    32A     -0.627744    33A     -0.610264
      34A     -0.608569    35A     -0.580713    36A     -0.522551
      37A     -0.513667    38A     -0.501429    39A     -0.427829
      40A     -0.413607    41A     -0.360412    42A     -0.317458

  @DF-RHF Final Energy: -2877.54689587762459

   => Energetics <=

    Nuclear Repulsion Energy =            525.5125480167043861
    One-Electron Energy =               -5042.2583837466445402
    Two-Electron Energy =                1639.1989398523132877
    DFT Exchange-Correlation Energy =       0.0000000000000000
    Empirical Dispersion Energy =           0.0000000000000000
    PCM Polarization Energy =               0.0000000000000000
    EFP Energy =                            0.0000000000000000
    Total Energy =                      -2877.5468958776268664
    Molecular point group: c1
  Basis Set: CC-PVTZ
  Basis Set:

  -Total Gradient:
     Atom            X                  Y                   Z
    ------   -----------------  -----------------  -----------------
       1       -0.000006400752    -0.000002580429     0.001011878603
       2        0.000021418569    -0.000056999088    -0.000929310428
       3       -0.000026979121     0.000114891897    -0.000828981841
       4        0.000069179151    -0.000088374137     0.000707901009
       5       -0.000058766071     0.000025221950     0.000054071354
       6       -0.000007202413    -0.000005299908     0.000008170793
       7       -0.000052310030     0.000039021444     0.000018781431
       8        0.000003342091     0.000002634179    -0.000011253234
       9        0.000060934278     0.000040251276    -0.000012654647
      10        0.000004902057    -0.000000281945    -0.000002527346
      11       -0.000037399786    -0.000068184020    -0.000021271788
      12       -0.000002814848    -0.000003500274     0.000001545713
      13        0.000032096330     0.000003199052     0.000003650382

  **** Optimization is complete! (in 3 steps) ****
    Final optimized geometry and variables:
    Molecular point group: c1

    Geometry (in Angstrom), charge = 0, multiplicity = 1:

    H           -4.340194172803    -0.783242624728    -0.022903617283
    O           -3.959009834241     0.076200538626    -0.022375597583
    C           -2.613443065484     0.011804718833    -0.019191782502
    C           -1.915098670712     1.188295069671     0.195030342082
    C           -1.924951611872    -1.169086183212    -0.220463800860
    H           -2.459279612434     2.098016879484     0.353756856435
    C           -0.537742686800     1.180201847470     0.201384842229
    H           -2.459978878903    -2.085391338399    -0.389686438208
    C           -0.542079604974    -1.176431803040    -0.209472112904
    H            0.000544262271     2.091717797017     0.366229540163
    C            0.145917795832    -0.003528422338    -0.000210543060
    H           -0.012576345674    -2.094542096177    -0.365742456003
    BR           2.044098225739    -0.010319404609     0.013327385586

  Mulliken Charges: (a.u.)
   Center  Symbol    Alpha    Beta     Spin     Total
       1     H     0.38628  0.38628  0.00000  0.22743
       2     O     4.17110  4.17110  0.00000 -0.34220
       3     C     2.85904  2.85904  0.00000  0.28192
       4     C     3.09353  3.09353  0.00000 -0.18706
       5     C     3.11850  3.11850  0.00000 -0.23700
       6     H     0.41590  0.41590  0.00000  0.16820
       7     C     3.07690  3.07690  0.00000 -0.15380
       8     H     0.43035  0.43035  0.00000  0.13930
       9     C     3.08436  3.08436  0.00000 -0.16872
      10     H     0.41065  0.41065  0.00000  0.17871
      11     C     2.97588  2.97588  0.00000  0.04823
      12     H     0.41057  0.41057  0.00000  0.17886
      13    BR    17.56694 17.56694  0.00000 -0.13388

   Total alpha = 42.00000, Total beta = 42.00000, Total charge = -0.00000

*** Psi4 exiting successfully. Buy a developer a beer!
