  ==> Input File <==

--------------------------------------------------------------------------
set {
	reference rhf
	basis 6-31G*
}

set_num_threads( 4 )
memory 2 gb

molecule MOL {
0 1

H	 -2.499100	 -0.730091	 -0.745082
O	 -2.347518	 -0.290803	 0.079804
C	 -1.184022	 0.487508	 -0.006784
C	 0.062599	 -0.378592	 0.031606
H	 -1.176523	 1.099369	 -0.904519
H	 -1.187323	 1.153111	 0.844927
O	 1.171513	 0.459272	 -0.058250
H	 0.050699	 -1.089204	 -0.797170
H	 0.078739	 -0.954914	 0.954740
C	 1.608762	 0.700852	 -1.358094
H	 0.837138	 1.184751	 -1.953970
H	 2.466923	 1.355693	 -1.297720
H	 1.902207	 -0.220890	 -1.856163

	symmetry c1
}
set optking {
	frozen_dihedral = ("
		10 7 4 8
	")
}

ee = optimize('scf')
oeprop('DIPOLE', 'QUADRUPOLE', 'MULLIKEN_CHARGES')
f=open( 'psi4out.xyz', 'w' )
f.write( "13  " )
f.write( str(ee) + "\n" )
f.write( MOL.save_string_xyz() )
f.close()
--------------------------------------------------------------------------

    Molecular point group: c1
  Charge       = 0
  Multiplicity = 1
  Basis Set: 6-31G*
  Basis Set:
  @DF-RHF Final Energy:  -267.94604249597143
    Total Energy =                       -267.9460424959715397
    Molecular point group: c1
  Basis Set: 6-31G*
  Basis Set:
  Basis Set: 6-31G*
  Basis Set:
  @DF-RHF Final Energy:  -267.94698219027202
    Total Energy =                       -267.9469821902718536
  Basis Set: 6-31G*
  Basis Set:
  Basis Set: 6-31G*
  Basis Set:
  @DF-RHF Final Energy:  -267.94738533994564
    Total Energy =                       -267.9473853399456402
  Basis Set: 6-31G*
  Basis Set:
  Basis Set: 6-31G*
  Basis Set:
  @DF-RHF Final Energy:  -267.94739178671068
    Total Energy =                       -267.9473917867104547
  Basis Set: 6-31G*
  Basis Set:
  Charge       = 0
  Multiplicity = 1
  Basis Set: 6-31G*
  Basis Set:

    Orbital Energies (a.u.)
    -----------------------

    Doubly Occupied:

       1A    -20.561868     2A    -20.561612     3A    -11.272289
       4A    -11.271419     5A    -11.270176     6A     -1.386231
       7A     -1.366268     8A     -1.015241     9A     -0.925074
      10A     -0.838827    11A     -0.710655    12A     -0.670418
      13A     -0.662073    14A     -0.639271    15A     -0.593516
      16A     -0.576505    17A     -0.541857    18A     -0.491139
      19A     -0.479291    20A     -0.463840    21A     -0.405422

  @DF-RHF Final Energy:  -267.94739204097732

   => Energetics <=

    Nuclear Repulsion Energy =            191.5852741660407901
    One-Electron Energy =                -745.6593439950867150
    Two-Electron Energy =                 286.1266777880687187
    DFT Exchange-Correlation Energy =       0.0000000000000000
    Empirical Dispersion Energy =           0.0000000000000000
    PCM Polarization Energy =               0.0000000000000000
    EFP Energy =                            0.0000000000000000
    Total Energy =                       -267.9473920409772063
    Molecular point group: c1
  Basis Set: 6-31G*
  Basis Set:

  -Total Gradient:
     Atom            X                  Y                   Z
    ------   -----------------  -----------------  -----------------
       1        0.000007710554     0.000012902264     0.000005006360
       2        0.000007421814     0.000000296727     0.000016957405
       3       -0.000002388677    -0.000023270623    -0.000023780560
       4        0.000378019924    -0.000525282711     0.000272883990
       5        0.000010355100     0.000004927671     0.000004813196
       6       -0.000012098598     0.000007274462     0.000002276289
       7       -0.000333692768     0.000507422931    -0.000067650140
       8       -0.000240910100     0.000277004472    -0.000236844654
       9       -0.000005881138     0.000014780652     0.000002431194
      10        0.000193910989    -0.000273029647     0.000036510043
      11       -0.000000135762    -0.000000507885    -0.000007559930
      12        0.000000215081    -0.000001564911    -0.000007729454
      13       -0.000002526418    -0.000000953403     0.000002686260

  **** Optimization is complete! (in 5 steps) ****
    Final optimized geometry and variables:
    Molecular point group: c1

    Geometry (in Angstrom), charge = 0, multiplicity = 1:

    H           -2.360912380534    -0.960052021406    -0.403739201654
    O           -2.203757868946    -0.501462245728     0.409614006395
    C           -1.062248006170     0.304865475505     0.287038929421
    C            0.208786999392    -0.535047401593     0.276682691954
    H           -1.116343599065     0.930790816506    -0.600796558111
    H           -1.048994739318     0.960609950680     1.146322757078
    O            1.349820338734     0.269218663405     0.200166733880
    H            0.179641185869    -1.247524496893    -0.547840992300
    H            0.265240588151    -1.101223344813     1.197460605234
    C            1.835500257270     0.511608365299    -1.084165341886
    H            1.102003960584     1.008300885823    -1.715069821141
    H            2.698028384168     1.156125251226    -0.986271250956
    H            2.140971775540    -0.412049253400    -1.570894173661

  Mulliken Charges: (a.u.)
   Center  Symbol    Alpha    Beta     Spin     Total
       1     H     0.28172  0.28172  0.00000  0.43657
       2     O     4.36956  4.36956  0.00000 -0.73912
       3     C     3.00565  3.00565  0.00000 -0.01130
       4     C     3.00483  3.00483  0.00000 -0.00967
       5     H     0.42940  0.42940  0.00000  0.14120
       6     H     0.40779  0.40779  0.00000  0.18442
       7     O     4.30671  4.30671  0.00000 -0.61341
       8     H     0.43680  0.43680  0.00000  0.12639
       9     H     0.40769  0.40769  0.00000  0.18461
      10     C     3.08139  3.08139  0.00000 -0.16277
      11     H     0.43123  0.43123  0.00000  0.13755
      12     H     0.40981  0.40981  0.00000  0.18039
      13     H     0.42742  0.42742  0.00000  0.14515

   Total alpha = 21.00000, Total beta = 21.00000, Total charge =  0.00000
