  ==> Input File <==

--------------------------------------------------------------------------
set {
	reference rhf
	basis cc-pvtz
}

set_num_threads( 4 )
memory 2 gb

molecule MOL {
0 1

H	 1.712927	 -2.948106	 -0.111545
C	 1.457916	 -1.950959	 -0.454261
C	 0.408423	 -1.332983	 0.459618
H	 1.079150	 -2.021410	 -1.466433
H	 2.371976	 -1.370848	 -0.480673
N	 0.000297	 0.000045	 0.046090
H	 -0.461912	 -1.974515	 0.451294
H	 0.770681	 -1.328432	 1.491451
C	 -1.359159	 0.315706	 0.454404
C	 0.952328	 1.022265	 0.450103
C	 -2.416729	 -0.286720	 -0.460525
H	 -1.478729	 1.390261	 0.442008
H	 -1.539692	 0.003361	 1.486761
C	 0.956895	 2.236161	 -0.469068
H	 1.943326	 0.590003	 0.438613
H	 0.772303	 1.338209	 1.481453
H	 -2.285276	 0.073129	 -1.473515
H	 -2.371743	 -1.368476	 -0.483209
H	 -3.408658	 -0.007405	 -0.121593
H	 1.202945	 1.939301	 -1.481116
H	 -0.003346	 2.736293	 -0.493153
H	 1.693569	 2.958050	 -0.132914

	symmetry c1
}
set optking {
	frozen_dihedral = ("
		3 6 9 11
	")
}

ee = optimize('scf')
oeprop('DIPOLE', 'QUADRUPOLE', 'MULLIKEN_CHARGES')
f=open( 'psi4out.xyz', 'w' )
f.write( "22  " )
f.write( str(ee) + "\n" )
f.write( MOL.save_string_xyz() )
f.close()
--------------------------------------------------------------------------

    Molecular point group: c1
  Charge       = 0
  Multiplicity = 1
  Basis Set: CC-PVTZ
  Basis Set:
  @DF-RHF Final Energy:  -290.47669520120098
    Total Energy =                       -290.4766952012012098
    Molecular point group: c1
  Basis Set: CC-PVTZ
  Basis Set:
  Charge       = 0
  Multiplicity = 1
  Basis Set: CC-PVTZ
  Basis Set:

    Orbital Energies (a.u.)
    -----------------------

    Doubly Occupied:

       1A    -15.533115     2A    -11.238728     3A    -11.238718
       4A    -11.238698     5A    -11.203748     6A    -11.203738
       7A    -11.203720     8A     -1.226325     9A     -1.024663
      10A     -1.024634    11A     -0.956941    12A     -0.846957
      13A     -0.846858    14A     -0.772891    15A     -0.647032
      16A     -0.646968    17A     -0.621791    18A     -0.592271
      19A     -0.592211    20A     -0.550831    21A     -0.533117
      22A     -0.519236    23A     -0.519175    24A     -0.494147
      25A     -0.494081    26A     -0.491167    27A     -0.462105
      28A     -0.462062    29A     -0.343975

  @DF-RHF Final Energy:  -290.47669519014084

   => Energetics <=

    Nuclear Repulsion Energy =            337.8347967963852625
    One-Electron Energy =               -1061.5631585469641323
    Two-Electron Energy =                 433.2516665604379114
    DFT Exchange-Correlation Energy =       0.0000000000000000
    Empirical Dispersion Energy =           0.0000000000000000
    PCM Polarization Energy =               0.0000000000000000
    EFP Energy =                            0.0000000000000000
    Total Energy =                       -290.4766951901409584
    Molecular point group: c1
  Basis Set: CC-PVTZ
  Basis Set:

  -Total Gradient:
     Atom            X                  Y                   Z
    ------   -----------------  -----------------  -----------------
       1        0.000001455478    -0.000004317595     0.000003168544
       2        0.000001802773     0.000015546067     0.000009038365
       3        0.000002374468     0.000031728371     0.000027120737
       4       -0.000002863855     0.000002628115     0.000002966087
       5        0.000005428238     0.000018944386     0.000003034466
       6       -0.000006414149    -0.000025184468    -0.000072510420
       7       -0.000017953208    -0.000001938807     0.000006150917
       8        0.000004254552     0.000005561389    -0.000012704264
       9        0.000009530817    -0.000032629536     0.000041754455
      10       -0.000052184933     0.000015475917     0.000014971918
      11        0.000015548343     0.000041948011    -0.000016588377
      12       -0.000022040671    -0.000035921423     0.000008038174
      13       -0.000006332020    -0.000005804373     0.000000085724
      14        0.000019532230    -0.000004097596    -0.000009038786
      15        0.000006186255    -0.000026189527    -0.000019621904
      16        0.000009611516     0.000003015904     0.000019110271
      17       -0.000000874199     0.000001977459    -0.000002821569
      18        0.000007586791    -0.000007781558     0.000003811410
      19       -0.000003417183     0.000002150760     0.000005490894
      20        0.000000059414     0.000005491459    -0.000006380351
      21        0.000027048821     0.000000058750    -0.000001596010
      22        0.000001660522    -0.000000661707    -0.000003480281

  **** Optimization is complete! (in 2 steps) ****
    Final optimized geometry and variables:
    Molecular point group: c1

    Geometry (in Angstrom), charge = 0, multiplicity = 1:

    H            1.714222640943    -2.947161901477    -0.110999484687
    C            1.458701161404    -1.950059568455    -0.453573518721
    C            0.407749551481    -1.333275177980     0.459402291040
    H            1.080992843662    -2.020335333870    -1.466162928986
    H            2.372299459937    -1.369121358480    -0.478737897245
    N           -0.000379753064    -0.000209138302     0.046290713923
    H           -0.462301292820    -1.975244334340     0.449677850995
    H            0.768939650946    -1.329114172050     1.491603127291
    C           -1.359692426950     0.314926268597     0.455496618004
    C            0.952035206179     1.021491813069     0.450583918294
    C           -2.417280569295    -0.287682081230    -0.459263355378
    H           -1.480013795763     1.389382492833     0.443590129089
    H           -1.539565186771     0.002060936370     1.487782999863
    C            0.958740141812     2.234848121906    -0.469319902598
    H            1.942654532775     0.588265534031     0.439795798031
    H            0.771734014304     1.338056314056     1.481713004967
    H           -2.286895720879     0.073393848885    -1.471963364762
    H           -2.370758653710    -1.369394341990    -0.483098976685
    H           -3.409380805953    -0.010080604405    -0.119327992318
    H            1.204401804816     1.936906337714    -1.481165201007
    H           -0.000645379882     2.736573272912    -0.493815299852
    H            1.696579113279     2.955749874436    -0.133537299620

  Mulliken Charges: (a.u.)
   Center  Symbol    Alpha    Beta     Spin     Total
       1     H     0.45319  0.45319  0.00000  0.09362
       2     C     3.14109  3.14109  0.00000 -0.28219
       3     C     3.04468  3.04468  0.00000 -0.08936
       4     H     0.45168  0.45168  0.00000  0.09663
       5     H     0.45627  0.45627  0.00000  0.08746
       6     N     3.62374  3.62374  0.00000 -0.24748
       7     H     0.44920  0.44920  0.00000  0.10159
       8     H     0.46265  0.46265  0.00000  0.07470
       9     C     3.04481  3.04481  0.00000 -0.08962
      10     C     3.04474  3.04474  0.00000 -0.08948
      11     C     3.14092  3.14092  0.00000 -0.28184
      12     H     0.44918  0.44918  0.00000  0.10163
      13     H     0.46257  0.46257  0.00000  0.07486
      14     C     3.14105  3.14105  0.00000 -0.28211
      15     H     0.44921  0.44921  0.00000  0.10158
      16     H     0.46262  0.46262  0.00000  0.07476
      17     H     0.45171  0.45171  0.00000  0.09659
      18     H     0.45629  0.45629  0.00000  0.08743
      19     H     0.45325  0.45325  0.00000  0.09350
      20     H     0.45169  0.45169  0.00000  0.09662
      21     H     0.45625  0.45625  0.00000  0.08749
      22     H     0.45320  0.45320  0.00000  0.09360

   Total alpha = 29.00000, Total beta = 29.00000, Total charge = -0.00000
