  ==> Input File <==

--------------------------------------------------------------------------
set {
	reference rhf
	basis 6-31G*
}

set_num_threads( 4 )
memory 2 gb

molecule MOL {
0 1

H	 -3.892951	 0.981613	 -0.358725
C	 -3.196921	 0.361773	 0.172313
C	 -2.076860	 -0.007332	 -0.404944
H	 -3.439953	 0.057760	 1.173024
O	 -1.176441	 -0.811945	 0.218517
H	 -1.814774	 0.286366	 -1.406068
C	 0.055148	 -1.011328	 -0.385870
C	 1.044412	 0.068407	 -0.009277
H	 -0.016389	 -1.041365	 -1.467385
H	 0.445504	 -1.955145	 -0.034705
F	 2.212860	 -0.185707	 -0.580208
F	 0.648116	 1.261879	 -0.419649
F	 1.234209	 0.133678	 1.292302

	symmetry c1
}
set optking {
	frozen_dihedral = ("
		6 3 2 1
	")
}

ee = optimize('scf')
oeprop('DIPOLE', 'QUADRUPOLE', 'MULLIKEN_CHARGES')
f=open( 'psi4out.xyz', 'w' )
f.write( "13  " )
f.write( str(ee) + "\n" )
f.write( MOL.save_string_xyz() )
f.close()
--------------------------------------------------------------------------

    Molecular point group: c1
  Charge       = 0
  Multiplicity = 1
  Basis Set: 6-31G*
  Basis Set:
  @DF-RHF Final Energy:  -527.53591189367467
    Total Energy =                       -527.5359118936748928
    Molecular point group: c1
  Basis Set: 6-31G*
  Basis Set:
  Basis Set: 6-31G*
  Basis Set:
  @DF-RHF Final Energy:  -527.53591360301766
    Total Energy =                       -527.5359136030181162
  Basis Set: 6-31G*
  Basis Set:
  Charge       = 0
  Multiplicity = 1
  Basis Set: 6-31G*
  Basis Set:

    Orbital Energies (a.u.)
    -----------------------

    Doubly Occupied:

       1A    -26.344670     2A    -26.343740     3A    -26.340599
       4A    -20.608425     5A    -11.503182     6A    -11.318978
       7A    -11.299443     8A    -11.215752     9A     -1.741789
      10A     -1.639918    11A     -1.638298    12A     -1.438299
      13A     -1.084260    14A     -1.016478    15A     -0.925369
      16A     -0.836599    17A     -0.831023    18A     -0.821307
      19A     -0.791859    20A     -0.721891    21A     -0.711372
      22A     -0.696492    23A     -0.675887    24A     -0.660423
      25A     -0.654681    26A     -0.643152    27A     -0.634257
      28A     -0.584708    29A     -0.563076    30A     -0.523999
      31A     -0.514148    32A     -0.351439

  @DF-RHF Final Energy:  -527.53591454106993

   => Energetics <=

    Nuclear Repulsion Energy =            413.5172252000604658
    One-Electron Energy =               -1550.7552548909184225
    Two-Electron Energy =                 609.7021151497883693
    DFT Exchange-Correlation Energy =       0.0000000000000000
    Empirical Dispersion Energy =           0.0000000000000000
    PCM Polarization Energy =               0.0000000000000000
    EFP Energy =                            0.0000000000000000
    Total Energy =                       -527.5359145410695874
    Molecular point group: c1
  Basis Set: 6-31G*
  Basis Set:

  -Total Gradient:
     Atom            X                  Y                   Z
    ------   -----------------  -----------------  -----------------
       1        0.000120284737     0.000216749936     0.000093962873
       2       -0.000226115752    -0.000414529724    -0.000186404253
       3        0.000153526757     0.000273788930     0.000113179526
       4        0.000022426738     0.000043397173     0.000026341758
       5        0.000008396257     0.000017986990     0.000009013822
       6       -0.000082163791    -0.000145226118    -0.000059611028
       7        0.000005617631     0.000009338563     0.000006219131
       8       -0.000001401537     0.000000339592     0.000005443417
       9       -0.000001702510     0.000000059640     0.000000343542
      10       -0.000003973335     0.000003300957     0.000000590946
      11        0.000010777776    -0.000000222864    -0.000005638564
      12       -0.000001282068    -0.000006808838     0.000005446519
      13       -0.000004390898     0.000001825766    -0.000008887693

  **** Optimization is complete! (in 3 steps) ****
    Final optimized geometry and variables:
    Molecular point group: c1

    Geometry (in Angstrom), charge = 0, multiplicity = 1:

    H           -3.895871337752     0.968764814450    -0.355504729008
    C           -3.198968718676     0.350448510607     0.176174342104
    C           -2.077720286713    -0.016381406258    -0.400185719687
    H           -3.439124996147     0.051458048503     1.179184086865
    O           -1.177363015952    -0.821244818459     0.223090213221
    H           -1.815538222183     0.277733751021    -1.401097152411
    C            0.054109760469    -1.020811380139    -0.381427619351
    C            1.043782566820     0.058413563257    -0.004503718041
    H           -0.017447909889    -1.050374001135    -1.462963768995
    H            0.444167854816    -1.964843686308    -0.030640216863
    F            2.212117148956    -0.195825667792    -0.575544808296
    F            0.647814121675     1.252197430522    -0.414262506129
    F            1.233542211161     0.123011985244     1.297108469696

  Mulliken Charges: (a.u.)
   Center  Symbol    Alpha    Beta     Spin     Total
       1     H     0.40707  0.40707  0.00000  0.18587
       2     C     3.23569  3.23569  0.00000 -0.47139
       3     C     2.89521  2.89521  0.00000  0.20957
       4     H     0.40181  0.40181  0.00000  0.19637
       5     O     4.30166  4.30166  0.00000 -0.60332
       6     H     0.40677  0.40677  0.00000  0.18646
       7     C     3.06397  3.06397  0.00000 -0.12794
       8     C     2.45566  2.45566  0.00000  1.08869
       9     H     0.40554  0.40554  0.00000  0.18892
      10     H     0.38974  0.38974  0.00000  0.22052
      11     F     4.68280  4.68280  0.00000 -0.36560
      12     F     4.67960  4.67960  0.00000 -0.35921
      13     F     4.67447  4.67447  0.00000 -0.34894

   Total alpha = 32.00000, Total beta = 32.00000, Total charge =  0.00000
