  ==> Input File <==

--------------------------------------------------------------------------
set {
	reference rhf
	basis cc-pvtz
}

set_num_threads( 4 )
memory 2 gb

molecule MOL {
0 1

H	 0.114685	 -0.025620	 0.151368
N	 -0.625934	 -0.663929	 -0.000707
C	 -1.978635	 -0.158664	 0.001017
C	 -0.313361	 -1.963467	 -0.200909
H	 -2.519057	 -0.493535	 -0.876362
H	 -1.938890	 0.917202	 -0.004137
H	 -2.514266	 -0.485137	 0.884506
C	 1.168155	 -2.267865	 -0.165238
O	 -1.131899	 -2.812219	 -0.397611
H	 1.585721	 -2.002060	 0.798912
H	 1.313143	 -3.320998	 -0.341182
H	 1.690367	 -1.699315	 -0.925938

	symmetry c1
}
set optking {
	frozen_dihedral = ("
		4 2 3 5
	")
}

ee = optimize('scf')
oeprop('DIPOLE', 'QUADRUPOLE', 'MULLIKEN_CHARGES')
f=open( 'psi4out.xyz', 'w' )
f.write( "12  " )
f.write( str(ee) + "\n" )
f.write( MOL.save_string_xyz() )
f.close()
--------------------------------------------------------------------------

    Molecular point group: c1
  Charge       = 0
  Multiplicity = 1
  Basis Set: CC-PVTZ
  Basis Set:
  @DF-RHF Final Energy:  -247.10101526500983
    Total Energy =                       -247.1010152650097780
    Molecular point group: c1
  Basis Set: CC-PVTZ
  Basis Set:
  Basis Set: CC-PVTZ
  Basis Set:
  @DF-RHF Final Energy:  -247.10119961184961
    Total Energy =                       -247.1011996118496086
  Basis Set: CC-PVTZ
  Basis Set:
  Basis Set: CC-PVTZ
  Basis Set:
  @DF-RHF Final Energy:  -247.10094647302446
    Total Energy =                       -247.1009464730247487
  Basis Set: CC-PVTZ
  Basis Set:
  Basis Set: CC-PVTZ
  Basis Set:
  @DF-RHF Final Energy:  -247.10125727242621
    Total Energy =                       -247.1012572724260963
  Basis Set: CC-PVTZ
  Basis Set:
  @DF-RHF Final Energy:  -247.10126106701833
    Total Energy =                       -247.1012610670183562
  @DF-RHF Final Energy:  -247.10127982820765
    Total Energy =                       -247.1012798282076801
  @DF-RHF Final Energy:  -247.10128551633292
    Total Energy =                       -247.1012855163331210
  @DF-RHF Final Energy:  -247.10128824446511
    Total Energy =                       -247.1012882444649108
  @DF-RHF Final Energy:  -247.10129145449679
    Total Energy =                       -247.1012914544969590
  @DF-RHF Final Energy:  -247.10130475062331
    Total Energy =                       -247.1013047506232283
  @DF-RHF Final Energy:  -247.10131015617671
    Total Energy =                       -247.1013101561765666
  @DF-RHF Final Energy:  -247.10121225794205
    Total Energy =                       -247.1012122579420520
  @DF-RHF Final Energy:  -247.10045468502759
    Total Energy =                       -247.1004546850276142
  @DF-RHF Final Energy:  -247.09918595628164
    Total Energy =                       -247.0991859562816444
  @DF-RHF Final Energy:  -247.09890039990236
    Total Energy =                       -247.0989003999023339
  @DF-RHF Final Energy:  -247.10119500252489
    Total Energy =                       -247.1011950025247188
  @DF-RHF Final Energy:  -247.10127660085553
    Total Energy =                       -247.1012766008554991
  @DF-RHF Final Energy:  -247.10131033406864
    Total Energy =                       -247.1013103340686712
  @DF-RHF Final Energy:  -247.10132341939016
    Total Energy =                       -247.1013234193900985
  @DF-RHF Final Energy:  -247.10133047865691
    Total Energy =                       -247.1013304786569051
  @DF-RHF Final Energy:  -247.10133337052204
    Total Energy =                       -247.1013333705221271
  @DF-RHF Final Energy:  -247.10133680731212
    Total Energy =                       -247.1013368073121228
  @DF-RHF Final Energy:  -247.10134195762350
    Total Energy =                       -247.1013419576236743
  @DF-RHF Final Energy:  -247.10134717149091
    Total Energy =                       -247.1013471714908292
  @DF-RHF Final Energy:  -247.10135619397553
    Total Energy =                       -247.1013561939755618
  @DF-RHF Final Energy:  -247.10136788339932
    Total Energy =                       -247.1013678833993481
  @DF-RHF Final Energy:  -247.10137768854065
    Total Energy =                       -247.1013776885405377
  @DF-RHF Final Energy:  -247.10138909081084
    Total Energy =                       -247.1013890908108124
  @DF-RHF Final Energy:  -247.10139961424292
    Total Energy =                       -247.1013996142428368
  @DF-RHF Final Energy:  -247.10141058056820
    Total Energy =                       -247.1014105805681993
  @DF-RHF Final Energy:  -247.10142423820756
    Total Energy =                       -247.1014242382077555
  Basis Set: CC-PVTZ
  Basis Set:
  @DF-RHF Final Energy:  -247.10143409177411
    Total Energy =                       -247.1014340917741947
  Basis Set: CC-PVTZ
  Basis Set:
  Basis Set: CC-PVTZ
  Basis Set:
  @DF-RHF Final Energy:  -247.10144213929115
    Total Energy =                       -247.1014421392912368
  Basis Set: CC-PVTZ
  Basis Set:
  Basis Set: CC-PVTZ
  Basis Set:
  @DF-RHF Final Energy:  -247.10144779573230
    Total Energy =                       -247.1014477957321560
  Basis Set: CC-PVTZ
  Basis Set:
  Charge       = 0
  Multiplicity = 1
  Basis Set: CC-PVTZ
  Basis Set:

    Orbital Energies (a.u.)
    -----------------------

    Doubly Occupied:

       1A    -20.505359     2A    -15.576361     3A    -11.335485
       4A    -11.254019     5A    -11.228503     6A     -1.388173
       7A     -1.231367     8A     -1.016165     9A     -0.933892
      10A     -0.789529    11A     -0.690791    12A     -0.651770
      13A     -0.636051    14A     -0.585669    15A     -0.582764
      16A     -0.556290    17A     -0.547980    18A     -0.505731
      19A     -0.417343    20A     -0.391389

  @DF-RHF Final Energy:  -247.10144865565127

   => Energetics <=

    Nuclear Repulsion Energy =            181.8836911365307856
    One-Electron Energy =                -696.3210151012647202
    Two-Electron Energy =                 267.3358753090826667
    DFT Exchange-Correlation Energy =       0.0000000000000000
    Empirical Dispersion Energy =           0.0000000000000000
    PCM Polarization Energy =               0.0000000000000000
    EFP Energy =                            0.0000000000000000
    Total Energy =                       -247.1014486556512111
    Molecular point group: c1
  Basis Set: CC-PVTZ
  Basis Set:

  -Total Gradient:
     Atom            X                  Y                   Z
    ------   -----------------  -----------------  -----------------
       1        0.000031441596    -0.000012648574     0.000280125882
       2       -0.000203839160    -0.000074743984    -0.000443941084
       3       -0.000177792872     0.000162941978    -0.000040889820
       4        0.000440570008     0.000208724027     0.000142580210
       5        0.000028918609    -0.000038256632    -0.000077351194
       6        0.000033340879    -0.000084986436     0.000055917191
       7        0.000110037034     0.000042612747     0.000102564906
       8       -0.000434994061    -0.000103239919    -0.000141994188
       9       -0.000073010482    -0.000109518172     0.000008079739
      10        0.000150578233     0.000008819189     0.000072245285
      11        0.000062266828    -0.000001367876     0.000021056715
      12        0.000032483389     0.000001663651     0.000021606358

  **** Optimization is complete! (in 35 steps) ****
    Final optimized geometry and variables:
    Molecular point group: c1

    Geometry (in Angstrom), charge = 0, multiplicity = 1:

    H            0.700994568096     1.580315381545     0.082142459008
    N           -0.030944591203     0.924525144233    -0.026489944230
    C           -1.395418384836     1.385049461999     0.094698096627
    C            0.276770215186    -0.389442377508    -0.030731263693
    H           -2.022228381980     0.869501549418    -0.616601024095
    H           -1.424710720287     2.445078644204    -0.114216098602
    H           -1.794365660398     1.210888105772     1.087107376205
    C            1.751154679933    -0.721773640054    -0.029972538459
    O           -0.560021751571    -1.244026112764    -0.026835017929
    H            2.048021680614    -0.971602916897     0.981960557772
    H            1.910321687568    -1.591095289992    -0.649692438451
    H            2.368726751393     0.094347606400    -0.381513300431

  Mulliken Charges: (a.u.)
   Center  Symbol    Alpha    Beta     Spin     Total
       1     H     0.41200  0.41200  0.00000  0.17600
       2     N     3.61375  3.61375  0.00000 -0.22749
       3     C     3.07716  3.07716  0.00000 -0.15433
       4     C     2.84171  2.84171  0.00000  0.31659
       5     H     0.44129  0.44129  0.00000  0.11742
       6     H     0.45547  0.45547  0.00000  0.08906
       7     H     0.45566  0.45566  0.00000  0.08868
       8     C     3.14587  3.14587  0.00000 -0.29175
       9     O     4.21890  4.21890  0.00000 -0.43780
      10     H     0.44416  0.44416  0.00000  0.11168
      11     H     0.43660  0.43660  0.00000  0.12681
      12     H     0.45744  0.45744  0.00000  0.08513

   Total alpha = 20.00000, Total beta = 20.00000, Total charge = -0.00000
