  ==> Input File <==

--------------------------------------------------------------------------
set {
	reference rhf
	basis 6-31G*
}

set_num_threads( 4 )
memory 2 gb

molecule MOL {
0 1

H	 2.465338	 -2.224223	 0.000000
O	 2.784187	 -1.332015	 0.000000
C	 1.765313	 -0.449364	 0.000000
C	 0.473209	 -0.965514	 0.000000
C	 1.965132	 0.917460	 -0.000000
H	 0.344151	 -2.031441	 -0.000000
C	 -0.611459	 -0.113128	 -0.000000
H	 2.949466	 1.342445	 -0.000000
C	 0.853481	 1.744533	 -0.000000
H	 -1.605527	 -0.520172	 -0.000000
C	 -0.436845	 1.264316	 -0.000000
N	 1.070457	 3.189666	 -0.000000
H	 -1.268272	 1.938210	 -0.000000
O	 2.198822	 3.580592	 -0.000000
O	 0.108416	 3.894465	 -0.000000

	symmetry c1
}
set optking {
	frozen_dihedral = ("
		4 3 2 1
	")
}

ee = optimize('scf')
oeprop('DIPOLE', 'QUADRUPOLE', 'MULLIKEN_CHARGES')
f=open( 'psi4out.xyz', 'w' )
f.write( "15  " )
f.write( str(ee) + "\n" )
f.write( MOL.save_string_xyz() )
f.close()
--------------------------------------------------------------------------

    Molecular point group: c1
  Charge       = 0
  Multiplicity = 1
  Basis Set: 6-31G*
  Basis Set:
  @DF-RHF Final Energy:  -509.02429741733113
    Total Energy =                       -509.0242974173311268
    Molecular point group: c1
  Basis Set: 6-31G*
  Basis Set:
  Basis Set: 6-31G*
  Basis Set:
  @DF-RHF Final Energy:  -509.02662116154778
    Total Energy =                       -509.0266211615478369
  Basis Set: 6-31G*
  Basis Set:
  Basis Set: 6-31G*
  Basis Set:
  @DF-RHF Final Energy:  -509.02683304838735
    Total Energy =                       -509.0268330483872887
  Basis Set: 6-31G*
  Basis Set:
  Basis Set: 6-31G*
  Basis Set:
  @DF-RHF Final Energy:  -509.02686839100704
    Total Energy =                       -509.0268683910071559
  Basis Set: 6-31G*
  Basis Set:
  Basis Set: 6-31G*
  Basis Set:
  @DF-RHF Final Energy:  -509.02687379456609
    Total Energy =                       -509.0268737945659723
  Basis Set: 6-31G*
  Basis Set:
  Charge       = 0
  Multiplicity = 1
  Basis Set: 6-31G*
  Basis Set:

    Orbital Energies (a.u.)
    -----------------------

    Doubly Occupied:

       1A    -20.616003     2A    -20.602214     3A    -20.601976
       4A    -15.856615     5A    -11.330912     6A    -11.309637
       7A    -11.268625     8A    -11.265989     9A    -11.263216
      10A    -11.261973    11A     -1.635647    12A     -1.436801
      13A     -1.418985    14A     -1.199766    15A     -1.094133
      16A     -1.047540    17A     -0.964464    18A     -0.863943
      19A     -0.848535    20A     -0.795301    21A     -0.734438
      22A     -0.732693    23A     -0.718239    24A     -0.710571
      25A     -0.678248    26A     -0.635047    27A     -0.616032
      28A     -0.597384    29A     -0.565799    30A     -0.537977
      31A     -0.514949    32A     -0.489951    33A     -0.487419
      34A     -0.451833    35A     -0.378767    36A     -0.341747

  @DF-RHF Final Energy:  -509.02687443780542

   => Energetics <=

    Nuclear Repulsion Energy =            503.3879983530086974
    One-Electron Energy =               -1693.0830075193814537
    Two-Electron Energy =                 680.6681347285675656
    DFT Exchange-Correlation Energy =       0.0000000000000000
    Empirical Dispersion Energy =           0.0000000000000000
    PCM Polarization Energy =               0.0000000000000000
    EFP Energy =                            0.0000000000000000
    Total Energy =                       -509.0268744378051906
    Molecular point group: c1
  Basis Set: 6-31G*
  Basis Set:

  -Total Gradient:
     Atom            X                  Y                   Z
    ------   -----------------  -----------------  -----------------
       1        0.000000563784    -0.000027493899    -0.000000041538
       2       -0.000075915261    -0.000017277725     0.000000004099
       3        0.000039283229    -0.000043842304    -0.000000961245
       4       -0.000034292830     0.000031919969     0.000000148933
       5        0.000084017625     0.000043098524     0.000002192841
       6        0.000005196682    -0.000001558475    -0.000000012813
       7       -0.000005553013     0.000021274657    -0.000000753150
       8       -0.000018381211    -0.000004286891     0.000000184133
       9       -0.000011047456    -0.000009994637     0.000019118403
      10        0.000015089283     0.000008615469    -0.000000146086
      11        0.000024190851    -0.000016896670     0.000002178147
      12        0.000040870925    -0.000052938873    -0.000079171335
      13       -0.000012036142     0.000005559041     0.000000143185
      14       -0.000053676425     0.000012092763     0.000028562344
      15        0.000001689955     0.000051729055     0.000028554081

  **** Optimization is complete! (in 6 steps) ****
    Final optimized geometry and variables:
    Molecular point group: c1

    Geometry (in Angstrom), charge = 0, multiplicity = 1:

    H           -3.402472289122    -1.526564079543     0.000024018524
    O           -2.486553683196    -1.767677961885     0.000000334332
    C           -1.694555597624    -0.676611742156    -0.000011687422
    C           -2.194191710389     0.616315364283     0.000008790876
    C           -0.324486763949    -0.891805420684    -0.000046120818
    H           -3.258118281506     0.780649541735     0.000035513499
    C           -1.327272848769     1.698135395400    -0.000004958625
    H            0.066415528042    -1.888110879740    -0.000062113700
    C            0.508166555153     0.206474885273    -0.000059655796
    H           -1.726550050819     2.695368904992     0.000011231146
    C            0.041102756833     1.508984472539    -0.000039182185
    N            1.953113940732    -0.020995157993    -0.000096868689
    H            0.725074604860     2.331868072688    -0.000050349932
    O            2.337419047250    -1.150142084468     0.000097462696
    O            2.662454644616     0.938699933803     0.000104283065

  Mulliken Charges: (a.u.)
   Center  Symbol    Alpha    Beta     Spin     Total
       1     H     0.26853  0.26853  0.00000  0.46294
       2     O     4.37412  4.37412  0.00000 -0.74823
       3     C     2.79528  2.79528  0.00000  0.40945
       4     C     3.12913  3.12913  0.00000 -0.25827
       5     C     3.11342  3.11342  0.00000 -0.22683
       6     H     0.39401  0.39401  0.00000  0.21197
       7     C     3.09914  3.09914  0.00000 -0.19827
       8     H     0.35722  0.35722  0.00000  0.28556
       9     C     2.91252  2.91252  0.00000  0.17495
      10     H     0.38703  0.38703  0.00000  0.22594
      11     C     3.09820  3.09820  0.00000 -0.19640
      12     N     3.24118  3.24118  0.00000  0.51765
      13     H     0.36540  0.36540  0.00000  0.26920
      14     O     4.23196  4.23196  0.00000 -0.46392
      15     O     4.23287  4.23287  0.00000 -0.46575

   Total alpha = 36.00000, Total beta = 36.00000, Total charge = -0.00000
