  ==> Input File <==

--------------------------------------------------------------------------
set {
	reference rhf
	basis 6-31G*
}

set_num_threads( 1 )
memory 2 gb

molecule MOL {
0 1

H	 1.862689	 -0.046389	 -1.179436
O	 1.654024	 -0.625927	 -0.460906
C	 1.135793	 0.118896	 0.612333
C	 0.031547	 1.023609	 0.088541
H	 1.915668	 0.729681	 1.063582
H	 0.754543	 -0.542641	 1.387006
C	 -1.134819	 0.293262	 -0.585751
H	 0.474374	 1.714721	 -0.623187
H	 -0.338529	 1.620940	 0.920081
C	 -1.917817	 -0.639439	 0.339494
H	 -0.758119	 -0.268455	 -1.433105
H	 -1.813832	 1.041889	 -0.986690
H	 -2.777680	 -1.057197	 -0.174994
H	 -1.310268	 -1.471279	 0.680599
H	 -2.283753	 -0.111424	 1.216626

	symmetry c1
}
set optking {
	frozen_dihedral = ("
		8 4 7 11,
		2 3 4 8
	")
}

ee = energy('scf')
oeprop('DIPOLE', 'QUADRUPOLE', 'MULLIKEN_CHARGES')
f=open( 'psi4out.xyz', 'w' )
f.write( "15  " )
f.write( str(ee) + "\n" )
f.write( MOL.save_string_xyz() )
f.close()
--------------------------------------------------------------------------

    Molecular point group: c1

    Geometry (in Angstrom), charge = 0, multiplicity = 1:

       Center              X                  Y                   Z               Mass
    ------------   -----------------  -----------------  -----------------  -----------------
           H          1.869114236805    -0.062140050660    -1.165403191102     1.007825032070
           O          1.660449236805    -0.641678050660    -0.446873191102    15.994914619560
           C          1.142218236805     0.103144949340     0.626365808898    12.000000000000
           C          0.037972236805     1.007857949340     0.102573808898    12.000000000000
           H          1.922093236805     0.713929949340     1.077614808898     1.007825032070
           H          0.760968236805    -0.558392050660     1.401038808898     1.007825032070
           C         -1.128393763195     0.277510949340    -0.571718191102    12.000000000000
           H          0.480799236805     1.698969949340    -0.609154191102     1.007825032070
           H         -0.332103763195     1.605188949340     0.934113808898     1.007825032070
           C         -1.911391763195    -0.655190050660     0.353526808898    12.000000000000
           H         -0.751693763195    -0.284206050660    -1.419072191102     1.007825032070
           H         -1.807406763195     1.026137949340    -0.972657191102     1.007825032070
           H         -2.771254763195    -1.072948050660    -0.160961191102     1.007825032070
           H         -1.303842763195    -1.487030050660     0.694631808898     1.007825032070
           H         -2.277327763195    -0.127175050660     1.230658808898     1.007825032070

  Charge       = 0
  Multiplicity = 1
  Basis Set: 6-31G*
  Basis Set:

    Orbital Energies (a.u.)
    -----------------------

    Doubly Occupied:

       1A    -20.552222     2A    -11.268542     3A    -11.218289
       4A    -11.215725     5A    -11.208160     6A     -1.360771
       7A     -1.068107     8A     -0.972213     9A     -0.877678
      10A     -0.788453    11A     -0.674258    12A     -0.645266
      13A     -0.637224    14A     -0.582599    15A     -0.565063
      16A     -0.543908    17A     -0.502765    18A     -0.482539
      19A     -0.474083    20A     -0.454725    21A     -0.427728

  @DF-RHF Final Energy:  -232.14162700161725

   => Energetics <=

    Nuclear Repulsion Energy =            192.5669170689938881
    One-Electron Energy =                -696.3764898699031392
    Two-Electron Energy =                 271.6679457992910329
    DFT Exchange-Correlation Energy =       0.0000000000000000
    Empirical Dispersion Energy =           0.0000000000000000
    PCM Polarization Energy =               0.0000000000000000
    EFP Energy =                            0.0000000000000000
    Total Energy =                       -232.1416270016181898

  Mulliken Charges: (a.u.)
   Center  Symbol    Alpha    Beta     Spin     Total
       1     H     0.28179  0.28179  0.00000  0.43642
       2     O     4.36969  4.36969  0.00000 -0.73939
       3     C     2.99351  2.99351  0.00000  0.01297
       4     C     3.17574  3.17574  0.00000 -0.35148
       5     H     0.42739  0.42739  0.00000  0.14523
       6     H     0.41470  0.41470  0.00000  0.17060
       7     C     3.14891  3.14891  0.00000 -0.29783
       8     H     0.42678  0.42678  0.00000  0.14644
       9     H     0.42286  0.42286  0.00000  0.15429
      10     C     3.24431  3.24431  0.00000 -0.48863
      11     H     0.41520  0.41520  0.00000  0.16960
      12     H     0.42187  0.42187  0.00000  0.15627
      13     H     0.41807  0.41807  0.00000  0.16386
      14     H     0.41529  0.41529  0.00000  0.16941
      15     H     0.42388  0.42388  0.00000  0.15223

   Total alpha = 21.00000, Total beta = 21.00000, Total charge = -0.00000
