  ==> Input File <==

--------------------------------------------------------------------------
set {
	reference rhf
	basis cc-pvtz
}

set_num_threads( 4 )
memory 2 gb

molecule MOL {
0 1

O	 0.781872	 0.644638	 2.077070
C	 0.301737	 0.871054	 1.003327
C	 -0.716451	 1.981940	 0.848221
N	 0.622280	 0.144970	 -0.099307
H	 -1.659895	 1.603206	 0.475638
H	 -0.867210	 2.418984	 1.821235
H	 -0.366421	 2.745320	 0.164333
C	 1.664396	 -0.854993	 0.000772
C	 0.245789	 0.511436	 -1.443819
H	 2.462727	 -0.615153	 -0.690869
H	 1.261798	 -1.821849	 -0.240651
H	 2.081615	 -0.891605	 1.003877
H	 0.095902	 -0.386954	 -2.028683
H	 -0.675087	 1.068713	 -1.461883
H	 1.015636	 1.103110	 -1.934024

	symmetry c1
}
set optking {
	frozen_dihedral = ("
		2 4 8 10
	")
}

ee = optimize('scf')
oeprop('DIPOLE', 'QUADRUPOLE', 'MULLIKEN_CHARGES')
f=open( 'psi4out.xyz', 'w' )
f.write( "15  " )
f.write( str(ee) + "\n" )
f.write( MOL.save_string_xyz() )
f.close()
--------------------------------------------------------------------------

    Molecular point group: c1
  Charge       = 0
  Multiplicity = 1
  Basis Set: CC-PVTZ
  Basis Set:
  @DF-RHF Final Energy:  -286.13481650645451
    Total Energy =                       -286.1348165064545697
    Molecular point group: c1
  Basis Set: CC-PVTZ
  Basis Set:
  Basis Set: CC-PVTZ
  Basis Set:
  @DF-RHF Final Energy:  -286.13534218413719
    Total Energy =                       -286.1353421841371869
  Basis Set: CC-PVTZ
  Basis Set:
  Basis Set: CC-PVTZ
  Basis Set:
  @DF-RHF Final Energy:  -286.13535909068071
    Total Energy =                       -286.1353590906805948
  Basis Set: CC-PVTZ
  Basis Set:
  Basis Set: CC-PVTZ
  Basis Set:
  @DF-RHF Final Energy:  -286.13544182324506
    Total Energy =                       -286.1354418232454009
  Basis Set: CC-PVTZ
  Basis Set:
  @DF-RHF Final Energy:  -286.13550081489495
    Total Energy =                       -286.1355008148950674
  @DF-RHF Final Energy:  -286.13552774442326
    Total Energy =                       -286.1355277444231433
  @DF-RHF Final Energy:  -286.13554026545251
    Total Energy =                       -286.1355402654525619
  @DF-RHF Final Energy:  -286.13554337239225
    Total Energy =                       -286.1355433723921919
  @DF-RHF Final Energy:  -286.13554596750623
    Total Energy =                       -286.1355459675065731
  @DF-RHF Final Energy:  -286.13554835337891
    Total Energy =                       -286.1355483533787378
  @DF-RHF Final Energy:  -286.13555458689393
    Total Energy =                       -286.1355545868939316
  Basis Set: CC-PVTZ
  Basis Set:
  @DF-RHF Final Energy:  -286.13556722990330
    Total Energy =                       -286.1355672299030175
  Basis Set: CC-PVTZ
  Basis Set:
  Basis Set: CC-PVTZ
  Basis Set:
  @DF-RHF Final Energy:  -286.13557351584427
    Total Energy =                       -286.1355735158441576
  Basis Set: CC-PVTZ
  Basis Set:
  Basis Set: CC-PVTZ
  Basis Set:
  @DF-RHF Final Energy:  -286.13557551128565
    Total Energy =                       -286.1355755112854240
  Basis Set: CC-PVTZ
  Basis Set:
  Charge       = 0
  Multiplicity = 1
  Basis Set: CC-PVTZ
  Basis Set:

    Orbital Energies (a.u.)
    -----------------------

    Doubly Occupied:

       1A    -20.501788     2A    -15.579120     3A    -11.335471
       4A    -11.264208     5A    -11.246414     6A    -11.226441
       7A     -1.386145     8A     -1.246802     9A     -1.015058
      10A     -0.973667    11A     -0.922007    12A     -0.739779
      13A     -0.683439    14A     -0.662282    15A     -0.653973
      16A     -0.591265    17A     -0.577885    18A     -0.566402
      19A     -0.560888    20A     -0.548970    21A     -0.530628
      22A     -0.507700    23A     -0.412606    24A     -0.369434

  @DF-RHF Final Energy:  -286.13557639824103

   => Energetics <=

    Nuclear Repulsion Energy =            252.7532144354072159
    One-Electron Energy =                -889.5728351819221871
    Two-Electron Energy =                 350.6840443482743694
    DFT Exchange-Correlation Energy =       0.0000000000000000
    Empirical Dispersion Energy =           0.0000000000000000
    PCM Polarization Energy =               0.0000000000000000
    EFP Energy =                            0.0000000000000000
    Total Energy =                       -286.1355763982405733
    Molecular point group: c1
  Basis Set: CC-PVTZ
  Basis Set:

  -Total Gradient:
     Atom            X                  Y                   Z
    ------   -----------------  -----------------  -----------------
       1        0.000004940841    -0.000002151126     0.000018063878
       2       -0.000040167753    -0.000064295943    -0.000035760877
       3        0.000002952863     0.000020177220     0.000013657554
       4        0.000015650014     0.000072595498    -0.000010049538
       5       -0.000003231211    -0.000000579604     0.000007442051
       6       -0.000001053246    -0.000002230787     0.000000310865
       7       -0.000003379883     0.000000078854     0.000007158806
       8        0.000012421581     0.000037556206     0.000075519287
       9        0.000027839925     0.000004257128     0.000005764371
      10       -0.000033178612    -0.000038803659    -0.000070146258
      11       -0.000001913127     0.000002844667    -0.000001675399
      12       -0.000001295211     0.000002291498     0.000002064801
      13        0.000000048911    -0.000006242033     0.000003018873
      14        0.000014660077    -0.000027350659    -0.000004615827
      15        0.000005704831     0.000001852742    -0.000010752585

  **** Optimization is complete! (in 15 steps) ****
    Final optimized geometry and variables:
    Molecular point group: c1

    Geometry (in Angstrom), charge = 0, multiplicity = 1:

    O            0.245918082013     0.062164110041     1.702594945931
    C           -0.192218059207     0.322131562437     0.617730370084
    C           -1.228166663810     1.418246265293     0.468467954812
    N            0.205796669699    -0.336950639277    -0.498376006943
    H           -2.158773883720     1.030632247111     0.073032042596
    H           -1.403655306875     1.827433410771     1.449342198227
    H           -0.882413103194     2.204901041076    -0.190285619312
    C            1.208939223177    -1.374487624222    -0.399628567895
    C           -0.257621447328    -0.066280526024    -1.836581273358
    H            2.073970029908    -1.121345325127    -1.004769378303
    H            0.811321785680    -2.318744725606    -0.757740645988
    H            1.514007978985    -1.485091448392     0.624607081581
    H           -0.631331188302    -0.976780900810    -2.293230854462
    H           -1.051700078046     0.658648708069    -1.847693769308
    H            0.551364113899     0.308066558636    -2.457077474336

  Mulliken Charges: (a.u.)
   Center  Symbol    Alpha    Beta     Spin     Total
       1     O     4.22308  4.22308  0.00000 -0.44616
       2     C     2.84774  2.84774  0.00000  0.30451
       3     C     3.15994  3.15994  0.00000 -0.31988
       4     N     3.55722  3.55722  0.00000 -0.11443
       5     H     0.44979  0.44979  0.00000  0.10041
       6     H     0.42835  0.42835  0.00000  0.14329
       7     H     0.44982  0.44982  0.00000  0.10036
       8     C     3.10092  3.10092  0.00000 -0.20185
       9     C     3.09343  3.09343  0.00000 -0.18687
      10     H     0.45761  0.45761  0.00000  0.08478
      11     H     0.45663  0.45663  0.00000  0.08673
      12     H     0.42469  0.42469  0.00000  0.15061
      13     H     0.45257  0.45257  0.00000  0.09485
      14     H     0.44488  0.44488  0.00000  0.11023
      15     H     0.45330  0.45330  0.00000  0.09340

   Total alpha = 24.00000, Total beta = 24.00000, Total charge =  0.00000
