  ==> Input File <==

--------------------------------------------------------------------------
set {
	reference rhf
	basis 6-31G*
}

set_num_threads( 4 )
memory 2 gb

molecule MOL {
0 1

H	 -4.136338	 -0.051841	 0.510289
O	 -3.517110	 -0.026191	 -0.205115
C	 -2.306886	 0.532354	 0.237577
C	 -1.177863	 -0.397191	 -0.171080
H	 -2.156308	 1.517575	 -0.201710
H	 -2.315015	 0.655684	 1.319734
C	 0.198102	 0.111031	 0.262842
H	 -1.208843	 -0.518759	 -1.250427
H	 -1.368741	 -1.376554	 0.258909
C	 1.331804	 -0.827780	 -0.158768
H	 0.361943	 1.100838	 -0.156218
H	 0.217265	 0.229072	 1.345532
C	 2.723619	 -0.410569	 0.329459
H	 1.342964	 -0.912588	 -1.244120
H	 1.116806	 -1.824343	 0.220779
C	 3.243875	 0.895854	 -0.272975
H	 3.424222	 -1.207124	 0.091250
H	 2.714788	 -0.329854	 1.414619
H	 3.251977	 0.848779	 -1.358681
H	 2.637085	 1.747371	 0.016682
H	 4.259473	 1.094070	 0.055697

	symmetry c1
}
set optking {
	frozen_dihedral = ("
		1 2 3 5
	")
}

ee = optimize('scf')
oeprop('DIPOLE', 'QUADRUPOLE', 'MULLIKEN_CHARGES')
f=open( 'psi4out.xyz', 'w' )
f.write( "21  " )
f.write( str(ee) + "\n" )
f.write( MOL.save_string_xyz() )
f.close()
--------------------------------------------------------------------------

    Molecular point group: c1
  Charge       = 0
  Multiplicity = 1
  Basis Set: 6-31G*
  Basis Set:
  @DF-RHF Final Energy:  -310.21066452159965
    Total Energy =                       -310.2106645215994831
    Molecular point group: c1
  Basis Set: 6-31G*
  Basis Set:
  Basis Set: 6-31G*
  Basis Set:
  @DF-RHF Final Energy:  -310.21089568181253
    Total Energy =                       -310.2108956818121897
  Basis Set: 6-31G*
  Basis Set:
  Basis Set: 6-31G*
  Basis Set:
  @DF-RHF Final Energy:  -310.21095999817771
    Total Energy =                       -310.2109599981779411
  Basis Set: 6-31G*
  Basis Set:
  Charge       = 0
  Multiplicity = 1
  Basis Set: 6-31G*
  Basis Set:

    Orbital Energies (a.u.)
    -----------------------

    Doubly Occupied:

       1A    -20.550483     2A    -11.267417     3A    -11.215747
       4A    -11.215379     5A    -11.213895     6A    -11.210240
       7A    -11.208174     8A     -1.357005     9A     -1.086264
      10A     -1.033047    11A     -0.954404    12A     -0.876417
      13A     -0.809030    14A     -0.778883    15A     -0.698950
      16A     -0.652048    17A     -0.619066    18A     -0.609707
      19A     -0.586109    20A     -0.567707    21A     -0.541091
      22A     -0.523308    23A     -0.503576    24A     -0.494289
      25A     -0.473187    26A     -0.460395    27A     -0.459050
      28A     -0.455536    29A     -0.421850

  @DF-RHF Final Energy:  -310.21096036305124

   => Energetics <=

    Nuclear Repulsion Energy =            312.1839903714268871
    One-Electron Energy =               -1039.1053946187553265
    Two-Electron Energy =                 416.7104438842770264
    DFT Exchange-Correlation Energy =       0.0000000000000000
    Empirical Dispersion Energy =           0.0000000000000000
    PCM Polarization Energy =               0.0000000000000000
    EFP Energy =                            0.0000000000000000
    Total Energy =                       -310.2109603630513561
    Molecular point group: c1
  Basis Set: 6-31G*
  Basis Set:

  -Total Gradient:
     Atom            X                  Y                   Z
    ------   -----------------  -----------------  -----------------
       1        0.000259031379    -0.000729653756     0.000162259207
       2       -0.000198573982     0.000834425222    -0.000369312046
       3       -0.000413343864     0.000138627401     0.000721835344
       4        0.000001678777     0.000057078461    -0.000035904725
       5        0.000351112454    -0.000294831862    -0.000528737250
       6        0.000022136458     0.000009944327     0.000013326825
       7       -0.000049033135    -0.000005029092     0.000020082767
       8       -0.000003696914    -0.000029406227    -0.000016159536
       9       -0.000023960414     0.000029160916     0.000022903930
      10        0.000007796703     0.000013723504    -0.000008262087
      11        0.000001300930    -0.000005916359     0.000025020371
      12        0.000007710593    -0.000006513111     0.000012723949
      13        0.000021860358    -0.000013136849    -0.000033331250
      14       -0.000005566985    -0.000011590518     0.000000913534
      15        0.000015499544     0.000013540977     0.000007385224
      16        0.000002555858    -0.000001511430     0.000006456332
      17        0.000019010927    -0.000000159793     0.000006568071
      18       -0.000009075791     0.000003543762    -0.000009405482
      19       -0.000001199583    -0.000001166515    -0.000000190420
      20       -0.000005280042    -0.000001301519     0.000003023213
      21        0.000000036731     0.000000172460    -0.000001195971

  **** Optimization is complete! (in 4 steps) ****
    Final optimized geometry and variables:
    Molecular point group: c1

    Geometry (in Angstrom), charge = 0, multiplicity = 1:

    H           -4.171678087585    -0.007087852754     0.451455059821
    O           -3.531156865470     0.025312422204    -0.241867452650
    C           -2.307335477149     0.522248932023     0.246434567775
    C           -1.175400732820    -0.408680220772    -0.159606128520
    H           -2.137688614987     1.513074496375    -0.166800171701
    H           -2.335473898913     0.624051950888     1.328929570454
    C            0.200662847341     0.103273884692     0.269708370762
    H           -1.207653218474    -0.531568025339    -1.238965350490
    H           -1.362234505104    -1.389728033185     0.269768865403
    C            1.337211472661    -0.830531005248    -0.155595556656
    H            0.358725171191     1.093805874492    -0.149611063631
    H            0.223812507948     0.222018979243     1.352604723107
    C            2.729654159230    -0.404607237048     0.323389863464
    H            1.342431786657    -0.918073074381    -1.240739509521
    H            1.129986085874    -1.827390198138     0.227669750947
    C            3.239374450886     0.902890187978    -0.285645567400
    H            3.433222618884    -1.198054165019     0.083449614720
    H            2.726638152364    -0.320817688900     1.408382246721
    H            3.241246833577     0.852856151250    -1.371219212585
    H            2.629782415272     1.751945821643     0.005253990772
    H            4.255840974266     1.107352276718     0.036445532140

  Mulliken Charges: (a.u.)
   Center  Symbol    Alpha    Beta     Spin     Total
       1     H     0.27976  0.27976  0.00000  0.44049
       2     O     4.37422  4.37422  0.00000 -0.74844
       3     C     2.99140  2.99140  0.00000  0.01721
       4     C     3.15706  3.15706  0.00000 -0.31411
       5     H     0.42585  0.42585  0.00000  0.14831
       6     H     0.43293  0.43293  0.00000  0.13415
       7     C     3.16269  3.16269  0.00000 -0.32538
       8     H     0.41428  0.41428  0.00000  0.17144
       9     H     0.42046  0.42046  0.00000  0.15908
      10     C     3.15147  3.15147  0.00000 -0.30295
      11     H     0.42059  0.42059  0.00000  0.15882
      12     H     0.42536  0.42536  0.00000  0.14928
      13     C     3.15245  3.15245  0.00000 -0.30489
      14     H     0.42269  0.42269  0.00000  0.15461
      15     H     0.42162  0.42162  0.00000  0.15676
      16     C     3.24120  3.24120  0.00000 -0.48240
      17     H     0.42068  0.42068  0.00000  0.15864
      18     H     0.42382  0.42382  0.00000  0.15235
      19     H     0.42178  0.42178  0.00000  0.15645
      20     H     0.42043  0.42043  0.00000  0.15913
      21     H     0.41927  0.41927  0.00000  0.16147

   Total alpha = 29.00000, Total beta = 29.00000, Total charge = -0.00000
