  ==> Input File <==

--------------------------------------------------------------------------
set {
	reference rhf
	basis 6-31G*
}

set_num_threads( 1 )
memory 2 gb

molecule MOL {
0 1

H	 3.463771	 0.168298	 -0.756243
C	 2.752674	 -0.045734	 0.033351
C	 1.322923	 0.120767	 -0.479465
H	 2.934561	 -1.059086	 0.377456
H	 2.958358	 0.631174	 0.856809
C	 0.306652	 -0.176050	 0.621399
H	 1.144658	 -0.551717	 -1.312180
H	 1.166477	 1.131798	 -0.836680
N	 -1.068537	 -0.011044	 0.085269
H	 0.372515	 -1.192590	 0.973735
H	 0.391664	 0.520566	 1.441230
O	 -1.636971	 1.007764	 0.330803
O	 -1.522932	 -0.927151	 -0.529790

	symmetry c1
}
set optking {
	frozen_dihedral = ("
		7 3 6 9
	")
}

ee = energy('scf')
oeprop('DIPOLE', 'QUADRUPOLE', 'MULLIKEN_CHARGES')
f=open( 'psi4out.xyz', 'w' )
f.write( "13  " )
f.write( str(ee) + "\n" )
f.write( MOL.save_string_xyz() )
f.close()
--------------------------------------------------------------------------

    Molecular point group: c1

    Geometry (in Angstrom), charge = 0, multiplicity = 1:

       Center              X                  Y                   Z               Mass
    ------------   -----------------  -----------------  -----------------  -----------------
           H          3.468138419293     0.173146681620    -0.765952605847     1.007825032070
           C          2.757041419293    -0.040885318380     0.023641394153    12.000000000000
           C          1.327290419293     0.125615681620    -0.489174605847    12.000000000000
           H          2.938928419293    -1.054237318380     0.367746394153     1.007825032070
           H          2.962725419293     0.636022681620     0.847099394153     1.007825032070
           C          0.311019419293    -0.171201318380     0.611689394153    12.000000000000
           H          1.149025419293    -0.546868318380    -1.321889605847     1.007825032070
           H          1.170844419293     1.136646681620    -0.846389605847     1.007825032070
           N         -1.064169580707    -0.006195318380     0.075559394153    14.003074004780
           H          0.376882419293    -1.187741318380     0.964025394153     1.007825032070
           H          0.396031419293     0.525414681620     1.431520394153     1.007825032070
           O         -1.632603580707     1.012612681620     0.321093394153    15.994914619560
           O         -1.518564580707    -0.922302318380    -0.539499605847    15.994914619560

  Charge       = 0
  Multiplicity = 1
  Basis Set: 6-31G*
  Basis Set:

    Orbital Energies (a.u.)
    -----------------------

    Doubly Occupied:

       1A    -20.601473     2A    -20.599377     3A    -15.846808
       4A    -11.299061     5A    -11.257357     6A    -11.240171
       7A     -1.630393     8A     -1.415929     9A     -1.135650
      10A     -1.028490    11A     -0.883983    12A     -0.833847
      13A     -0.758283    14A     -0.734392    15A     -0.722686
      16A     -0.672519    17A     -0.604498    18A     -0.589018
      19A     -0.551628    20A     -0.521757    21A     -0.515484
      22A     -0.483274    23A     -0.473343    24A     -0.447636

  @DF-RHF Final Energy:  -321.73528832801594

   => Energetics <=

    Nuclear Repulsion Energy =            247.2793226271088827
    One-Electron Energy =                -928.3351155453631236
    Two-Electron Energy =                 359.3205045902383290
    DFT Exchange-Correlation Energy =       0.0000000000000000
    Empirical Dispersion Energy =           0.0000000000000000
    PCM Polarization Energy =               0.0000000000000000
    EFP Energy =                            0.0000000000000000
    Total Energy =                       -321.7352883280159404

  Mulliken Charges: (a.u.)
   Center  Symbol    Alpha    Beta     Spin     Total
       1     H     0.40735  0.40735  0.00000  0.18529
       2     C     3.24798  3.24798  0.00000 -0.49597
       3     C     3.17368  3.17368  0.00000 -0.34736
       4     H     0.41442  0.41442  0.00000  0.17116
       5     H     0.41475  0.41475  0.00000  0.17050
       6     C     3.08304  3.08304  0.00000 -0.16607
       7     H     0.39756  0.39756  0.00000  0.20487
       8     H     0.40089  0.40089  0.00000  0.19821
       9     N     3.22307  3.22307  0.00000  0.55386
      10     H     0.38794  0.38794  0.00000  0.22413
      11     H     0.38759  0.38759  0.00000  0.22482
      12     O     4.22992  4.22992  0.00000 -0.45984
      13     O     4.23181  4.23181  0.00000 -0.46362

   Total alpha = 24.00000, Total beta = 24.00000, Total charge = -0.00000
