  ==> Input File <==

--------------------------------------------------------------------------
set {
	reference rhf
	basis 6-31G*
}

set_num_threads( 4 )
memory 2 gb

molecule MOL {
0 1

H	 2.591676	 2.013956	 0.335017
O	 3.341076	 1.666752	 -0.126416
C	 3.569581	 0.339145	 0.272707
C	 3.252316	 -0.679182	 -0.816825
H	 4.619973	 0.285392	 0.528562
H	 3.004924	 0.110171	 1.175764
C	 1.776538	 -0.718765	 -1.221028
H	 3.863227	 -0.454511	 -1.687272
H	 3.556320	 -1.662214	 -0.461020
C	 1.481108	 -1.787681	 -2.276943
H	 1.483874	 0.256412	 -1.600163
H	 1.164573	 -0.909096	 -0.339204
C	 0.002048	 -1.927602	 -2.655287
H	 2.063180	 -1.576942	 -3.172280
H	 1.833744	 -2.747641	 -1.905696
C	 -0.596184	 -0.716321	 -3.375978
H	 -0.105652	 -2.800257	 -3.296138
H	 -0.579826	 -2.137814	 -1.759145
C	 -2.040874	 -0.944013	 -3.825940
H	 0.015972	 -0.476824	 -4.244320
H	 -0.563389	 0.157510	 -2.729724
C	 -2.642557	 0.265879	 -4.539944
H	 -2.080441	 -1.808285	 -4.485452
H	 -2.652135	 -1.192982	 -2.960920
H	 -2.072015	 0.520316	 -5.428745
H	 -3.665522	 0.072752	 -4.847971
H	 -2.651468	 1.138852	 -3.893260

	symmetry c1
}
set optking {
	frozen_dihedral = ("
		4 3 2 1
	")
}

ee = optimize('scf')
oeprop('DIPOLE', 'QUADRUPOLE', 'MULLIKEN_CHARGES')
f=open( 'psi4out.xyz', 'w' )
f.write( "27  " )
f.write( str(ee) + "\n" )
f.write( MOL.save_string_xyz() )
f.close()
--------------------------------------------------------------------------

    Molecular point group: c1
  Charge       = 0
  Multiplicity = 1
  Basis Set: 6-31G*
  Basis Set:
  @DF-RHF Final Energy:  -388.28038279968007
    Total Energy =                       -388.2803827996799555
    Molecular point group: c1
  Basis Set: 6-31G*
  Basis Set:
  Basis Set: 6-31G*
  Basis Set:
  @DF-RHF Final Energy:  -388.28067701658875
    Total Energy =                       -388.2806770165890384
  Basis Set: 6-31G*
  Basis Set:
  Basis Set: 6-31G*
  Basis Set:
  @DF-RHF Final Energy:  -388.28074801773158
    Total Energy =                       -388.2807480177314119
  Basis Set: 6-31G*
  Basis Set:
  Basis Set: 6-31G*
  Basis Set:
  @DF-RHF Final Energy:  -388.28075475905092
    Total Energy =                       -388.2807547590512058
  Basis Set: 6-31G*
  Basis Set:
  Basis Set: 6-31G*
  Basis Set:
  @DF-RHF Final Energy:  -388.28074801300113
    Total Energy =                       -388.2807480130006752
  Basis Set: 6-31G*
  Basis Set:
  Basis Set: 6-31G*
  Basis Set:
  @DF-RHF Final Energy:  -388.28076374625959
    Total Energy =                       -388.2807637462594812
  Basis Set: 6-31G*
  Basis Set:
  Charge       = 0
  Multiplicity = 1
  Basis Set: 6-31G*
  Basis Set:

    Orbital Energies (a.u.)
    -----------------------

    Doubly Occupied:

       1A    -20.552050     2A    -11.267995     3A    -11.213622
       4A    -11.212822     5A    -11.212218     6A    -11.211978
       7A    -11.211460     8A    -11.210875     9A    -11.207335
      10A     -1.358105    11A     -1.091190    12A     -1.058495
      13A     -1.009532    14A     -0.945709    15A     -0.883730
      16A     -0.815226    17A     -0.797428    18A     -0.774050
      19A     -0.702882    20A     -0.647694    21A     -0.630494
      22A     -0.619978    23A     -0.590095    24A     -0.581179
      25A     -0.578369    26A     -0.546582    27A     -0.539923
      28A     -0.525921    29A     -0.506014    30A     -0.484874
      31A     -0.481343    32A     -0.472790    33A     -0.465580
      34A     -0.457875    35A     -0.452904    36A     -0.440765
      37A     -0.418403

  @DF-RHF Final Energy:  -388.28076328163877

   => Energetics <=

    Nuclear Repulsion Energy =            459.8712497203118801
    One-Electron Energy =               -1437.9490572406566571
    Two-Electron Energy =                 589.7970442387061212
    DFT Exchange-Correlation Energy =       0.0000000000000000
    Empirical Dispersion Energy =           0.0000000000000000
    PCM Polarization Energy =               0.0000000000000000
    EFP Energy =                            0.0000000000000000
    Total Energy =                       -388.2807632816386558
    Molecular point group: c1
  Basis Set: 6-31G*
  Basis Set:

  -Total Gradient:
     Atom            X                  Y                   Z
    ------   -----------------  -----------------  -----------------
       1        0.000428141554     0.000275590111     0.000553110941
       2       -0.000292131953    -0.000343094735    -0.000738089414
       3       -0.000599696152     0.000062909431     0.000359642154
       4        0.000486128160     0.000074598489    -0.000193422556
       5       -0.000006708439    -0.000020140188    -0.000013612657
       6       -0.000013339231    -0.000013989825     0.000012420506
       7        0.000002043130     0.000020674922     0.000019620149
       8       -0.000011814144    -0.000038391985    -0.000050186225
       9        0.000005350539     0.000038557319     0.000028653752
      10        0.000017078466    -0.000019186355    -0.000014497926
      11        0.000016506841    -0.000026968106     0.000044819775
      12       -0.000014451583    -0.000013147774     0.000010474794
      13        0.000002694945     0.000014936604    -0.000007632375
      14        0.000007530540     0.000003718091    -0.000003030570
      15       -0.000012560244    -0.000011615745    -0.000020876574
      16       -0.000011447061     0.000003340777     0.000014320692
      17       -0.000005584104    -0.000007493202     0.000007123297
      18        0.000005186804     0.000015847664     0.000005697695
      19        0.000003497720    -0.000005477951    -0.000008141679
      20        0.000004712433     0.000007616942     0.000005178435
      21       -0.000013595068    -0.000013219202    -0.000002796324
      22        0.000003986078    -0.000004411861    -0.000009815032
      23       -0.000004931230    -0.000006544048     0.000003002216
      24        0.000002374931     0.000007382245     0.000000433226
      25       -0.000000215990     0.000002961814    -0.000001063857
      26        0.000000678589    -0.000001006854    -0.000002300307
      27        0.000000564463    -0.000003446580     0.000000967861

  **** Optimization is complete! (in 7 steps) ****
    Final optimized geometry and variables:
    Molecular point group: c1

    Geometry (in Angstrom), charge = 0, multiplicity = 1:

    H            1.644221063540     2.487630956800     2.237627053529
    O            2.400485808779     2.107304197578     1.818713926370
    C            2.623707589793     0.803595701559     2.304799432493
    C            2.317461732291    -0.245052871019     1.244657601879
    H            3.666581285214     0.736749185839     2.595202262605
    H            2.029426122672     0.619976264299     3.197334287432
    C            0.845365250693    -0.286954141711     0.832783968759
    H            2.935233418779    -0.039974700535     0.374123897362
    H            2.622797260260    -1.218147125846     1.626473267768
    C            0.561450454739    -1.336517994056    -0.245188468015
    H            0.555707471057     0.697362665891     0.480629489236
    H            0.231994795802    -0.500711945423     1.708638178655
    C           -0.915768460261    -1.479711829464    -0.629610917190
    H            1.142932084302    -1.102342113061    -1.135238747892
    H            0.920588514850    -2.302264276857     0.105061305085
    C           -1.520105764239    -0.258271335593    -1.327532340222
    H           -1.017064714686    -2.340518504275    -1.287505218139
    H           -1.498113144301    -1.710741344960     0.261189331116
    C           -2.962661288420    -0.485532618368    -1.784494260957
    H           -0.907842995028     0.001510082101    -2.189929953603
    H           -1.492652275528     0.602780973067    -0.664376505127
    C           -3.568850124595     0.733133322923    -2.479568451568
    H           -2.996792066079    -1.338869168004    -2.458488568876
    H           -3.574740313474    -0.751884103805    -0.925169461628
    H           -2.997588962188     1.005119292072    -3.362688228411
    H           -4.590287937241     0.540384108622    -2.793089543592
    H           -3.583097065673     1.595152333515    -1.818444766247

  Mulliken Charges: (a.u.)
   Center  Symbol    Alpha    Beta     Spin     Total
       1     H     0.27933  0.27933  0.00000  0.44134
       2     O     4.37173  4.37173  0.00000 -0.74345
       3     C     3.00046  3.00046  0.00000 -0.00092
       4     C     3.15627  3.15627  0.00000 -0.31253
       5     H     0.41842  0.41842  0.00000  0.16316
       6     H     0.43197  0.43197  0.00000  0.13605
       7     C     3.15996  3.15996  0.00000 -0.31993
       8     H     0.41510  0.41510  0.00000  0.16981
       9     H     0.42598  0.42598  0.00000  0.14804
      10     C     3.15256  3.15256  0.00000 -0.30512
      11     H     0.41389  0.41389  0.00000  0.17221
      12     H     0.42911  0.42911  0.00000  0.14179
      13     C     3.15314  3.15314  0.00000 -0.30628
      14     H     0.42226  0.42226  0.00000  0.15548
      15     H     0.42303  0.42303  0.00000  0.15394
      16     C     3.15220  3.15220  0.00000 -0.30441
      17     H     0.42215  0.42215  0.00000  0.15570
      18     H     0.42503  0.42503  0.00000  0.14994
      19     C     3.15113  3.15113  0.00000 -0.30226
      20     H     0.42372  0.42372  0.00000  0.15256
      21     H     0.42287  0.42287  0.00000  0.15425
      22     C     3.23900  3.23900  0.00000 -0.47801
      23     H     0.42326  0.42326  0.00000  0.15348
      24     H     0.42377  0.42377  0.00000  0.15246
      25     H     0.42152  0.42152  0.00000  0.15696
      26     H     0.41976  0.41976  0.00000  0.16047
      27     H     0.42236  0.42236  0.00000  0.15528

   Total alpha = 37.00000, Total beta = 37.00000, Total charge = -0.00000
