  ==> Input File <==

--------------------------------------------------------------------------
set {
	reference rhf
	basis cc-pvtz
}

set_num_threads( 4 )
memory 2 gb

molecule MOL {
0 1

H	 1.093948	 2.072765	 1.199920
O	 1.328914	 1.167248	 1.103575
C	 0.706474	 0.636793	 -0.025501
C	 -0.793473	 0.591216	 0.050087
H	 1.088450	 -0.370655	 -0.141458
H	 0.996765	 1.183084	 -0.921043
C	 -1.534243	 -0.493009	 -0.013340
H	 -1.266611	 1.552628	 0.164437
H	 -1.101195	 -1.466332	 -0.144046
H	 -2.604242	 -0.437780	 0.050785

	symmetry c1
}
set optking {
	frozen_dihedral = ("
		5 3 4 7
	")
}

ee = optimize('scf')
oeprop('DIPOLE', 'QUADRUPOLE', 'MULLIKEN_CHARGES')
f=open( 'psi4out.xyz', 'w' )
f.write( "10  " )
f.write( str(ee) + "\n" )
f.write( MOL.save_string_xyz() )
f.close()
--------------------------------------------------------------------------

    Molecular point group: c1
  Charge       = 0
  Multiplicity = 1
  Basis Set: CC-PVTZ
  Basis Set:
  @DF-RHF Final Energy:  -191.99635920364392
    Total Energy =                       -191.9963592036439195
    Molecular point group: c1
  Basis Set: CC-PVTZ
  Basis Set:
  Basis Set: CC-PVTZ
  Basis Set:
  @DF-RHF Final Energy:  -191.99669077299902
    Total Energy =                       -191.9966907729991021
  Basis Set: CC-PVTZ
  Basis Set:
  Basis Set: CC-PVTZ
  Basis Set:
  @DF-RHF Final Energy:  -191.99674476104531
    Total Energy =                       -191.9967447610452211
  Basis Set: CC-PVTZ
  Basis Set:
  Basis Set: CC-PVTZ
  Basis Set:
  @DF-RHF Final Energy:  -191.99674840514052
    Total Energy =                       -191.9967484051405791
  Basis Set: CC-PVTZ
  Basis Set:
  Charge       = 0
  Multiplicity = 1
  Basis Set: CC-PVTZ
  Basis Set:

    Orbital Energies (a.u.)
    -----------------------

    Doubly Occupied:

       1A    -20.551684     2A    -11.276016     3A    -11.230428
       4A    -11.222597     5A     -1.369716     6A     -1.066887
       7A     -0.923710     8A     -0.782398     9A     -0.690965
      10A     -0.659322    11A     -0.621868    12A     -0.572566
      13A     -0.544003    14A     -0.493970    15A     -0.445959
      16A     -0.376425

  @DF-RHF Final Energy:  -191.99674890415588

   => Energetics <=

    Nuclear Repulsion Energy =            117.5654795860676671
    One-Electron Energy =                -493.4674253573883789
    Two-Electron Energy =                 183.9051968671647899
    DFT Exchange-Correlation Energy =       0.0000000000000000
    Empirical Dispersion Energy =           0.0000000000000000
    PCM Polarization Energy =               0.0000000000000000
    EFP Energy =                            0.0000000000000000
    Total Energy =                       -191.9967489041559077
    Molecular point group: c1
  Basis Set: CC-PVTZ
  Basis Set:

  -Total Gradient:
     Atom            X                  Y                   Z
    ------   -----------------  -----------------  -----------------
       1       -0.000031513890     0.000000704709     0.000002553899
       2        0.000065700170     0.000008858627     0.000002799863
       3        0.000010450993    -0.000106467844     0.000903119738
       4       -0.000039076226     0.000115412273    -0.000895215482
       5       -0.000050737018     0.000044864057    -0.000538897577
       6        0.000012147175     0.000009831660     0.000029367119
       7        0.000030347633    -0.000038704744     0.000481188517
       8        0.000003691615    -0.000016533693    -0.000009486198
       9       -0.000006634847    -0.000003687193     0.000012189232
      10        0.000005624396    -0.000014277849     0.000012380890

  **** Optimization is complete! (in 5 steps) ****
    Final optimized geometry and variables:
    Molecular point group: c1

    Geometry (in Angstrom), charge = 0, multiplicity = 1:

    H            1.098714163656     1.548135347370     0.893716216851
    O            1.314875613786     0.638099694657     0.800719615867
    C            0.708834459292     0.110763264083    -0.349372040140
    C           -0.790255915694     0.087239252755    -0.262154076118
    H            1.087947899184    -0.894289782626    -0.464658445695
    H            1.013834128606     0.676630343517    -1.226827446782
    C           -1.524312858938    -1.001380877201    -0.318770429587
    H           -1.273044145343     1.044746172126    -0.145384312032
    H           -1.080583243182    -1.974612601286    -0.427510949362
    H           -2.595695571143    -0.962026185816    -0.260454838284

  Mulliken Charges: (a.u.)
   Center  Symbol    Alpha    Beta     Spin     Total
       1     H     0.39396  0.39396  0.00000  0.21209
       2     O     4.19839  4.19839  0.00000 -0.39678
       3     C     2.95649  2.95649  0.00000  0.08702
       4     C     3.06701  3.06701  0.00000 -0.13402
       5     H     0.45506  0.45506  0.00000  0.08987
       6     H     0.47157  0.47157  0.00000  0.05685
       7     C     3.16792  3.16792  0.00000 -0.33585
       8     H     0.43090  0.43090  0.00000  0.13821
       9     H     0.43007  0.43007  0.00000  0.13987
      10     H     0.42863  0.42863  0.00000  0.14275

   Total alpha = 16.00000, Total beta = 16.00000, Total charge =  0.00000
