  ==> Input File <==

--------------------------------------------------------------------------
set {
	reference rhf
	basis cc-pvtz
}

set_num_threads( 4 )
memory 2 gb

molecule MOL {
0 1

H	 2.339517	 -0.109606	 -0.006667
O	 1.583947	 -0.677544	 -0.001533
C	 0.489979	 0.078084	 0.002623
C	 -0.763662	 -0.754014	 0.000816
O	 0.539051	 1.259395	 -0.000088
C	 -2.038001	 0.074705	 -0.000833
H	 -0.712945	 -1.405886	 -0.864342
H	 -0.715137	 -1.405770	 0.866182
H	 -2.087267	 0.710831	 -0.874232
H	 -2.903419	 -0.576199	 -0.001922
H	 -2.089467	 0.710909	 0.872389

	symmetry c1
}
set optking {
	frozen_dihedral = ("
		1 2 3 5
	")
}

ee = optimize('scf')
oeprop('DIPOLE', 'QUADRUPOLE', 'MULLIKEN_CHARGES')
f=open( 'psi4out.xyz', 'w' )
f.write( "11  " )
f.write( str(ee) + "\n" )
f.write( MOL.save_string_xyz() )
f.close()
--------------------------------------------------------------------------

    Molecular point group: c1
  Charge       = 0
  Multiplicity = 1
  Basis Set: CC-PVTZ
  Basis Set:
  @DF-RHF Final Energy:  -266.95331679418189
    Total Energy =                       -266.9533167941818306
    Molecular point group: c1
  Basis Set: CC-PVTZ
  Basis Set:
  Basis Set: CC-PVTZ
  Basis Set:
  @DF-RHF Final Energy:  -266.95319653552696
    Total Energy =                       -266.9531965355270131
  Basis Set: CC-PVTZ
  Basis Set:
  Charge       = 0
  Multiplicity = 1
  Basis Set: CC-PVTZ
  Basis Set:

    Orbital Energies (a.u.)
    -----------------------

    Doubly Occupied:

       1A    -20.605086     2A    -20.541654     3A    -11.374397
       4A    -11.242901     5A    -11.218782     6A     -1.478685
       7A     -1.370285     8A     -1.066496     9A     -0.918851
      10A     -0.803687    11A     -0.705775    12A     -0.693621
      13A     -0.665677    14A     -0.597565    15A     -0.596720
      16A     -0.534073    17A     -0.527114    18A     -0.505849
      19A     -0.485397    20A     -0.448979

  @DF-RHF Final Energy:  -266.95332078153103

   => Energetics <=

    Nuclear Repulsion Energy =            180.1663369047481353
    One-Electron Energy =                -721.4761241576529756
    Two-Electron Energy =                 274.3564664713737216
    DFT Exchange-Correlation Energy =       0.0000000000000000
    Empirical Dispersion Energy =           0.0000000000000000
    PCM Polarization Energy =               0.0000000000000000
    EFP Energy =                            0.0000000000000000
    Total Energy =                       -266.9533207815310902
    Molecular point group: c1
  Basis Set: CC-PVTZ
  Basis Set:

  -Total Gradient:
     Atom            X                  Y                   Z
    ------   -----------------  -----------------  -----------------
       1        0.000048385592    -0.000008853852     0.000002091300
       2        0.000002526521     0.000102909911     0.000006756794
       3       -0.000046459331    -0.000101864094    -0.000027913355
       4       -0.000017668236     0.000015455493     0.000008886322
       5        0.000062866124     0.000011210112     0.000010904609
       6       -0.000030829838    -0.000005537286     0.000000497473
       7       -0.000009759412    -0.000004431015     0.000000920012
       8       -0.000008349233    -0.000003388539    -0.000001133016
       9        0.000002864928    -0.000002296199     0.000001801611
      10       -0.000007807934     0.000000559417    -0.000000036351
      11        0.000004230818    -0.000003763944    -0.000002775399

  **** Optimization is complete! (in 3 steps) ****
    Final optimized geometry and variables:
    Molecular point group: c1

    Geometry (in Angstrom), charge = 0, multiplicity = 1:

    H            2.340128126056    -0.109687231228    -0.000561469300
    O            1.584126557805    -0.677355500080    -0.000345624782
    C            0.489927184438     0.078119510288    -0.000205250849
    C           -0.764015371444    -0.753997178212     0.000428322847
    O            0.539649561688     1.259330469759    -0.000351065280
    C           -2.038477304230     0.074528674999     0.000506902364
    H           -0.714657294840    -1.406216293018    -0.864583845020
    H           -0.714122169624    -1.405534959795     0.865924354948
    H           -2.089207697387     0.710446521899    -0.873024146363
    H           -2.904036438655    -0.576314182756     0.001021657019
    H           -2.088651604292     0.711100485125     0.873588745892

  Mulliken Charges: (a.u.)
   Center  Symbol    Alpha    Beta     Spin     Total
       1     H     0.38183  0.38183  0.00000  0.23634
       2     O     4.16044  4.16044  0.00000 -0.32089
       3     C     2.80305  2.80305  0.00000  0.39390
       4     C     3.10134  3.10134  0.00000 -0.20268
       5     O     4.19054  4.19054  0.00000 -0.38108
       6     C     3.13889  3.13889  0.00000 -0.27778
       7     H     0.43929  0.43929  0.00000  0.12143
       8     H     0.43929  0.43929  0.00000  0.12142
       9     H     0.44784  0.44784  0.00000  0.10432
      10     H     0.44966  0.44966  0.00000  0.10067
      11     H     0.44783  0.44783  0.00000  0.10434

   Total alpha = 20.00000, Total beta = 20.00000, Total charge =  0.00000
