  ==> Input File <==

--------------------------------------------------------------------------
set {
	reference rhf
	basis 6-31G*
}

set_num_threads( 4 )
memory 2 gb

molecule MOL {
0 1

O	 0.302788	 0.125641	 0.861102
C	 1.122059	 0.121804	 -0.000188
C	 1.119304	 1.012298	 -1.218756
O	 2.172624	 -0.688929	 0.000216
C	 -0.070138	 1.966213	 -1.269877
H	 2.060292	 1.555662	 -1.225890
H	 1.144250	 0.366916	 -2.092607
C	 -0.048747	 2.856020	 -2.513723
H	 -0.073780	 2.582705	 -0.376328
H	 -0.991204	 1.392226	 -1.243797
C	 -1.237697	 3.814047	 -2.573592
H	 0.876512	 3.428300	 -2.535344
H	 -0.042558	 2.233272	 -3.406033
H	 -1.252345	 4.474145	 -1.711206
H	 -1.198406	 4.433224	 -3.464295
H	 -2.177936	 3.270575	 -2.588742
C	 3.452279	 -0.082609	 0.000533
H	 3.583069	 0.529321	 -0.880332
H	 4.163299	 -0.894027	 0.001117
H	 3.582335	 0.529955	 0.881077

	symmetry c1
}
set optking {
	frozen_dihedral = ("
		1 2 4 17
	")
}

ee = optimize('scf')
oeprop('DIPOLE', 'QUADRUPOLE', 'MULLIKEN_CHARGES')
f=open( 'psi4out.xyz', 'w' )
f.write( "20  " )
f.write( str(ee) + "\n" )
f.write( MOL.save_string_xyz() )
f.close()
--------------------------------------------------------------------------

    Molecular point group: c1
  Charge       = 0
  Multiplicity = 1
  Basis Set: 6-31G*
  Basis Set:
  @DF-RHF Final Energy:  -383.91611328362410
    Total Energy =                       -383.9161132836245542
    Molecular point group: c1
  Basis Set: 6-31G*
  Basis Set:
  Basis Set: 6-31G*
  Basis Set:
  @DF-RHF Final Energy:  -383.91602062435408
    Total Energy =                       -383.9160206243543030
  Basis Set: 6-31G*
  Basis Set:
  Basis Set: 6-31G*
  Basis Set:
  @DF-RHF Final Energy:  -383.91991212778260
    Total Energy =                       -383.9199121277825952
  Basis Set: 6-31G*
  Basis Set:
  Basis Set: 6-31G*
  Basis Set:
  @DF-RHF Final Energy:  -383.92084102341033
    Total Energy =                       -383.9208410234098210
  Basis Set: 6-31G*
  Basis Set:
  @DF-RHF Final Energy:  -383.92103722046693
    Total Energy =                       -383.9210372204668147
  @DF-RHF Final Energy:  -383.92107660826008
    Total Energy =                       -383.9210766082603641
  Basis Set: 6-31G*
  Basis Set:
  @DF-RHF Final Energy:  -383.92108249436365
    Total Energy =                       -383.9210824943636453
  Basis Set: 6-31G*
  Basis Set:
  Basis Set: 6-31G*
  Basis Set:
  @DF-RHF Final Energy:  -383.92108378156348
    Total Energy =                       -383.9210837815633113
  Basis Set: 6-31G*
  Basis Set:
  Basis Set: 6-31G*
  Basis Set:
  @DF-RHF Final Energy:  -383.92108588214256
    Total Energy =                       -383.9210858821421652
  Basis Set: 6-31G*
  Basis Set:
  Charge       = 0
  Multiplicity = 1
  Basis Set: 6-31G*
  Basis Set:

    Orbital Energies (a.u.)
    -----------------------

    Doubly Occupied:

       1A    -20.589252     2A    -20.553079     3A    -11.374847
       4A    -11.294669     5A    -11.242352     6A    -11.223872
       7A    -11.223245     8A    -11.213151     9A     -1.459167
      10A     -1.367665    11A     -1.090877    12A     -1.017452
      13A     -0.976575    14A     -0.899529    15A     -0.809212
      16A     -0.766175    17A     -0.696812    18A     -0.680730
      19A     -0.674655    20A     -0.647351    21A     -0.614909
      22A     -0.590674    23A     -0.590169    24A     -0.552866
      25A     -0.538503    26A     -0.517364    27A     -0.494966
      28A     -0.485296    29A     -0.480620    30A     -0.473618
      31A     -0.451657    32A     -0.433266

  @DF-RHF Final Energy:  -383.92108608364828

   => Energetics <=

    Nuclear Repulsion Energy =            381.9905881543236887
    One-Electron Energy =               -1279.7741994115813213
    Two-Electron Energy =                 513.8625251736090149
    DFT Exchange-Correlation Energy =       0.0000000000000000
    Empirical Dispersion Energy =           0.0000000000000000
    PCM Polarization Energy =               0.0000000000000000
    EFP Energy =                            0.0000000000000000
    Total Energy =                       -383.9210860836486745
    Molecular point group: c1
  Basis Set: 6-31G*
  Basis Set:

  -Total Gradient:
     Atom            X                  Y                   Z
    ------   -----------------  -----------------  -----------------
       1        0.001775912349     0.001812573839     0.001411669123
       2       -0.002595365798    -0.002546239323    -0.000822695953
       3        0.000009173347    -0.000000089000    -0.000003763117
       4        0.000812722174     0.000702785272    -0.003003624648
       5       -0.000000193036     0.000012083968     0.000005800155
       6       -0.000006974130    -0.000000196390     0.000001122620
       7       -0.000003424430     0.000001868789     0.000002840027
       8       -0.000006353368    -0.000007552694    -0.000010470374
       9        0.000005694496    -0.000003306244     0.000002091010
      10       -0.000001828138     0.000000312553    -0.000002169123
      11        0.000002473510    -0.000001309743     0.000003747706
      12       -0.000002064402     0.000000420741     0.000001417279
      13        0.000001539024    -0.000000420780    -0.000002729793
      14       -0.000001227037    -0.000001276252     0.000001425195
      15        0.000002685096    -0.000000121022     0.000001165710
      16       -0.000000123935    -0.000000404872    -0.000002307478
      17        0.000024685526     0.000042076907     0.002417004936
      18       -0.000009193931    -0.000005193750    -0.000002106700
      19       -0.000007656160    -0.000005181627     0.000001037336
      20       -0.000000481156    -0.000000830367     0.000000546089

  **** Optimization is complete! (in 10 steps) ****
    Final optimized geometry and variables:
    Molecular point group: c1

    Geometry (in Angstrom), charge = 0, multiplicity = 1:

    O           -0.479890772644    -0.866442749518     1.718530958448
    C            0.303006870678    -0.921719657335     0.835436827748
    C            0.282219676328    -0.014901913161    -0.376752690186
    O            1.275005113775    -1.857596372907     0.841849305896
    C           -0.976019685126     0.844755035048    -0.467299036267
    H            1.165548516946     0.619203282262    -0.342929203958
    H            0.397042793483    -0.640175730629    -1.258087618602
    C           -0.973116306109     1.752373795971    -1.698329602417
    H           -1.064778936130     1.443138269928     0.433315413464
    H           -1.848591041216     0.199109979123    -0.488404937695
    C           -2.231417155386     2.613695632514    -1.797608308180
    H           -0.096751984446     2.397232312135    -1.672618334886
    H           -0.879538229030     1.146487794769    -2.597294217001
    H           -2.335598770284     3.256129906492    -0.928154655751
    H           -2.203791103359     3.248472547295    -2.677640789906
    H           -3.123394097388     1.997404645903    -1.861098105780
    C            2.624098781422    -1.447694023929     0.836424311051
    H            2.911722167773    -1.020786468279    -0.117275693022
    H            3.209501341210    -2.335895481588     1.015377543200
    H            2.813830992493    -0.732600275460     1.628666717361

  Mulliken Charges: (a.u.)
   Center  Symbol    Alpha    Beta     Spin     Total
       1     O     4.25262  4.25262  0.00000 -0.50524
       2     C     2.60963  2.60963  0.00000  0.78073
       3     C     3.22309  3.22309  0.00000 -0.44618
       4     O     4.31158  4.31158  0.00000 -0.62316
       5     C     3.14983  3.14983  0.00000 -0.29966
       6     H     0.40604  0.40604  0.00000  0.18791
       7     H     0.40084  0.40084  0.00000  0.19832
       8     C     3.15444  3.15444  0.00000 -0.30888
       9     H     0.40935  0.40935  0.00000  0.18129
      10     H     0.41132  0.41132  0.00000  0.17736
      11     C     3.23954  3.23954  0.00000 -0.47908
      12     H     0.42393  0.42393  0.00000  0.15213
      13     H     0.42271  0.42271  0.00000  0.15459
      14     H     0.41950  0.41950  0.00000  0.16100
      15     H     0.41841  0.41841  0.00000  0.16318
      16     H     0.41924  0.41924  0.00000  0.16152
      17     C     3.09346  3.09346  0.00000 -0.18693
      18     H     0.41954  0.41954  0.00000  0.16092
      19     H     0.40018  0.40018  0.00000  0.19963
      20     H     0.41475  0.41475  0.00000  0.17051

   Total alpha = 32.00000, Total beta = 32.00000, Total charge =  0.00000
