  ==> Input File <==

--------------------------------------------------------------------------
set {
	reference rhf
	basis 6-31G*
}

set_num_threads( 4 )
memory 2 gb

molecule MOL {
0 1

H	 -0.367348	 2.047014	 -0.308205
C	 0.352277	 1.337084	 0.083769
N	 -0.000016	 0.000074	 -0.335546
H	 1.328359	 1.600444	 -0.307950
H	 0.381933	 1.450534	 1.172486
C	 -0.879138	 -0.648371	 0.610463
C	 -0.539315	 -0.021102	 -1.676018
H	 -1.063774	 -1.670537	 0.299918
H	 -0.411339	 -0.675917	 1.588148
H	 -1.846082	 -0.144641	 0.711254
H	 0.176473	 0.409041	 -2.367393
H	 -0.724891	 -1.044592	 -1.981745
H	 -1.477298	 0.536077	 -1.769106

	symmetry c1
}
set optking {
	frozen_dihedral = ("
		6 3 2 1
	")
}

ee = optimize('scf')
oeprop('DIPOLE', 'QUADRUPOLE', 'MULLIKEN_CHARGES')
f=open( 'psi4out.xyz', 'w' )
f.write( "13  " )
f.write( str(ee) + "\n" )
f.write( MOL.save_string_xyz() )
f.close()
--------------------------------------------------------------------------

    Molecular point group: c1
  Charge       = 0
  Multiplicity = 1
  Basis Set: 6-31G*
  Basis Set:
  @DF-RHF Final Energy:  -173.26557836388346
    Total Energy =                       -173.2655783638834350
    Molecular point group: c1
  Basis Set: 6-31G*
  Basis Set:
  Basis Set: 6-31G*
  Basis Set:
  @DF-RHF Final Energy:  -173.26653313282725
    Total Energy =                       -173.2665331328273055
  Basis Set: 6-31G*
  Basis Set:
  Basis Set: 6-31G*
  Basis Set:
  @DF-RHF Final Energy:  -173.26666814299625
    Total Energy =                       -173.2666681429961670
  Basis Set: 6-31G*
  Basis Set:
  Basis Set: 6-31G*
  Basis Set:
  @DF-RHF Final Energy:  -173.26667425358019
    Total Energy =                       -173.2666742535802484
  Basis Set: 6-31G*
  Basis Set:
  Charge       = 0
  Multiplicity = 1
  Basis Set: 6-31G*
  Basis Set:

    Orbital Energies (a.u.)
    -----------------------

    Doubly Occupied:

       1A    -15.540755     2A    -11.235919     3A    -11.235744
       4A    -11.235626     5A     -1.222355     6A     -0.952752
       7A     -0.951313     8A     -0.805221     9A     -0.638510
      10A     -0.631216    11A     -0.629338    12A     -0.547595
      13A     -0.541225    14A     -0.517530    15A     -0.503728
      16A     -0.501475    17A     -0.339708

  @DF-RHF Final Energy:  -173.26667484162050

   => Energetics <=

    Nuclear Repulsion Energy =            138.9707740194745043
    One-Electron Energy =                -508.4148785323772017
    Two-Electron Energy =                 196.1774296712821979
    DFT Exchange-Correlation Energy =       0.0000000000000000
    Empirical Dispersion Energy =           0.0000000000000000
    PCM Polarization Energy =               0.0000000000000000
    EFP Energy =                            0.0000000000000000
    Total Energy =                       -173.2666748416204996
    Molecular point group: c1
  Basis Set: 6-31G*
  Basis Set:

  -Total Gradient:
     Atom            X                  Y                   Z
    ------   -----------------  -----------------  -----------------
       1        0.002622430234     0.000500878781    -0.004150473656
       2       -0.002174493674    -0.001195621884     0.006110322475
       3       -0.003486784781     0.002107204126    -0.003679646897
       4       -0.000009237715     0.000002501967    -0.000013393372
       5        0.000006150911     0.000003910413     0.000005746274
       6        0.003027502956    -0.001388002207     0.001720065553
       7        0.000015405216    -0.000023078674     0.000001740119
       8       -0.000004129176    -0.000001266743     0.000004220168
       9       -0.000000690593    -0.000002653689     0.000005953832
      10        0.000009847121    -0.000000007418    -0.000004974273
      11       -0.000007087624    -0.000000822540     0.000002658372
      12       -0.000008977551    -0.000005914197    -0.000016941855
      13        0.000010064676     0.000002872066     0.000014723259

  **** Optimization is complete! (in 5 steps) ****
    Final optimized geometry and variables:
    Molecular point group: c1

    Geometry (in Angstrom), charge = 0, multiplicity = 1:

    H           -0.052545187542     1.939467926905     0.059706079589
    C            0.643811378292     1.170470248054     0.404751242036
    N            0.255817460143    -0.163855374259     0.000767383756
    H            1.612845306506     1.415740858129    -0.021089440435
    H            0.730076870736     1.231651091461     1.481915497115
    C           -0.599381365265    -0.836991240381     0.949071989095
    C           -0.237700137199    -0.210633673670    -1.352578338507
    H           -0.765354008203    -1.859058410202     0.626983261791
    H           -0.118028404227    -0.869263024066     1.919442050405
    H           -1.578373634381    -0.361206083706     1.070852331389
    H            0.494797939738     0.223170600747    -2.024765157976
    H           -0.397556763374    -1.239786899326    -1.654198474071
    H           -1.179045257040     0.333249556793    -1.484331169694

  Mulliken Charges: (a.u.)
   Center  Symbol    Alpha    Beta     Spin     Total
       1     H     0.43271  0.43271  0.00000  0.13458
       2     C     3.14167  3.14167  0.00000 -0.28333
       3     N     3.76997  3.76997  0.00000 -0.53995
       4     H     0.41663  0.41663  0.00000  0.16675
       5     H     0.41821  0.41821  0.00000  0.16358
       6     C     3.13986  3.13986  0.00000 -0.27972
       7     C     3.14093  3.14093  0.00000 -0.28186
       8     H     0.41792  0.41792  0.00000  0.16415
       9     H     0.41696  0.41696  0.00000  0.16607
      10     H     0.43576  0.43576  0.00000  0.12849
      11     H     0.41700  0.41700  0.00000  0.16600
      12     H     0.41726  0.41726  0.00000  0.16548
      13     H     0.43512  0.43512  0.00000  0.12975

   Total alpha = 17.00000, Total beta = 17.00000, Total charge = -0.00000
