  ==> Input File <==

--------------------------------------------------------------------------
set {
	reference rhf
	basis 6-31G*
}

set_num_threads( 4 )
memory 2 gb

molecule MOL {
0 1

H	 -1.379817	 0.914818	 -2.502390
O	 -1.738676	 1.598777	 -1.953506
C	 -0.896787	 1.789681	 -0.854078
C	 -0.793441	 0.596080	 0.058728
H	 -1.301395	 2.633104	 -0.306233
H	 0.102426	 2.079482	 -1.177517
C	 -1.530462	 -0.493172	 -0.025500
H	 -0.046664	 0.678815	 0.833300
H	 -1.092586	 -1.461565	 -0.186463
H	 -2.602122	 -0.450675	 0.050101

	symmetry c1
}
set optking {
	frozen_dihedral = ("
		3 4 7 9
	")
}

ee = optimize('scf')
oeprop('DIPOLE', 'QUADRUPOLE', 'MULLIKEN_CHARGES')
f=open( 'psi4out.xyz', 'w' )
f.write( "10  " )
f.write( str(ee) + "\n" )
f.write( MOL.save_string_xyz() )
f.close()
--------------------------------------------------------------------------

    Molecular point group: c1
  Charge       = 0
  Multiplicity = 1
  Basis Set: 6-31G*
  Basis Set:
  @DF-RHF Final Energy:  -191.83523977499755
    Total Energy =                       -191.8352397749975751
    Molecular point group: c1
  Basis Set: 6-31G*
  Basis Set:
  Basis Set: 6-31G*
  Basis Set:
  @DF-RHF Final Energy:  -191.86148541159054
    Total Energy =                       -191.8614854115905928
  Basis Set: 6-31G*
  Basis Set:
  Basis Set: 6-31G*
  Basis Set:
  @DF-RHF Final Energy:  -191.88062469891656
    Total Energy =                       -191.8806246989165629
  Basis Set: 6-31G*
  Basis Set:
  Basis Set: 6-31G*
  Basis Set:
  @DF-RHF Final Energy:  -191.88327397375278
    Total Energy =                       -191.8832739737528641
  Basis Set: 6-31G*
  Basis Set:
  @DF-RHF Final Energy:  -191.88351763696784
    Total Energy =                       -191.8835176369677811
  @DF-RHF Final Energy:  -191.86553901975637
    Total Energy =                       -191.8655390197563406
  @DF-RHF Final Energy:  -191.88082699158366
    Total Energy =                       -191.8808269915835751
  @DF-RHF Final Energy:  -191.88350717075392
    Total Energy =                       -191.8835071707539157
  @DF-RHF Final Energy:  -191.87318718995121
    Total Energy =                       -191.8731871899511816
  @DF-RHF Final Energy:  -191.86441234218677
    Total Energy =                       -191.8644123421867960
  @DF-RHF Final Energy:  -191.88187395261650
    Total Energy =                       -191.8818739526165302
  Basis Set: 6-31G*
  Basis Set:
  @DF-RHF Final Energy:  -191.88352058612631
    Total Energy =                       -191.8835205861263091
  Basis Set: 6-31G*
  Basis Set:
  Basis Set: 6-31G*
  Basis Set:
  @DF-RHF Final Energy:  -191.88356419546506
    Total Energy =                       -191.8835641954650555
  Basis Set: 6-31G*
  Basis Set:
  Basis Set: 6-31G*
  Basis Set:
  @DF-RHF Final Energy:  -191.88356621786733
    Total Energy =                       -191.8835662178673829
  Basis Set: 6-31G*
  Basis Set:
  Charge       = 0
  Multiplicity = 1
  Basis Set: 6-31G*
  Basis Set:

    Orbital Energies (a.u.)
    -----------------------

    Doubly Occupied:

       1A    -20.562977     2A    -11.286994     3A    -11.240845
       4A    -11.223553     5A     -1.373236     6A     -1.062207
       7A     -0.934087     8A     -0.772833     9A     -0.692824
      10A     -0.656175    11A     -0.620320    12A     -0.579739
      13A     -0.529297    14A     -0.500167    15A     -0.448886
      16A     -0.353769

  @DF-RHF Final Energy:  -191.88356622391302

   => Energetics <=

    Nuclear Repulsion Energy =            118.9970660363926669
    One-Electron Energy =                -496.0854481908999674
    Two-Electron Energy =                 185.2048159305942079
    DFT Exchange-Correlation Energy =       0.0000000000000000
    Empirical Dispersion Energy =           0.0000000000000000
    PCM Polarization Energy =               0.0000000000000000
    EFP Energy =                            0.0000000000000000
    Total Energy =                       -191.8835662239131068
    Molecular point group: c1
  Basis Set: 6-31G*
  Basis Set:

  -Total Gradient:
     Atom            X                  Y                   Z
    ------   -----------------  -----------------  -----------------
       1        0.000012683927    -0.000000635668     0.000018824035
       2        0.000074725612     0.000029003777    -0.000010321496
       3        0.023208917467    -0.009869505834    -0.010470242706
       4       -0.036886185140     0.017336153633     0.001699127262
       5       -0.000017923142     0.000001987014    -0.000023410899
       6       -0.000031661951     0.000014432301    -0.000111831266
       7        0.007724854213    -0.009133034449     0.045033143576
       8        0.000051415976     0.000026103657    -0.000041801666
       9        0.005882973856     0.001570152867    -0.036039062685
      10       -0.000019800816     0.000025342701    -0.000054424155

  **** Optimization is complete! (in 15 steps) ****
    Final optimized geometry and variables:
    Molecular point group: c1

    Geometry (in Angstrom), charge = 0, multiplicity = 1:

    H           -0.410339753512    -0.041878957406    -1.617278671302
    O           -0.535672776191     0.772972163270    -1.150103156540
    C            0.397423909857     0.856126134460    -0.118623611089
    C            0.366447896025    -0.282735668032     0.873494949244
    H            0.247593437617     1.824056521057     0.345388639376
    H            1.415278927879     0.844662072670    -0.504616032466
    C           -0.199571767044    -1.472458940241     0.730011561270
    H            1.241334037577    -0.241729137179     1.511954011141
    H            0.335764697430    -2.404974118294     0.776185504739
    H           -1.047139549328    -1.542711251430     0.061091953314

  Mulliken Charges: (a.u.)
   Center  Symbol    Alpha    Beta     Spin     Total
       1     H     0.28056  0.28056  0.00000  0.43888
       2     O     4.36433  4.36433  0.00000 -0.72866
       3     C     3.00194  3.00194  0.00000 -0.00387
       4     C     3.07933  3.07933  0.00000 -0.15866
       5     H     0.40929  0.40929  0.00000  0.18141
       6     H     0.41971  0.41971  0.00000  0.16058
       7     C     3.20198  3.20198  0.00000 -0.40396
       8     H     0.41748  0.41748  0.00000  0.16503
       9     H     0.40518  0.40518  0.00000  0.18964
      10     H     0.42019  0.42019  0.00000  0.15961

   Total alpha = 16.00000, Total beta = 16.00000, Total charge =  0.00000
