  ==> Input File <==

--------------------------------------------------------------------------
set {
	reference rhf
	basis 6-31G*
}

set_num_threads( 4 )
memory 2 gb

molecule MOL {
0 1

H	 -2.429389	 3.339900	 -1.339810
O	 -1.731019	 2.745808	 -1.574835
C	 -1.383938	 1.961393	 -0.462712
C	 -0.264206	 1.022419	 -0.875358
H	 -1.056925	 2.591397	 0.363402
H	 -2.242357	 1.387940	 -0.115425
C	 0.198102	 0.111031	 0.262842
H	 0.567552	 1.620578	 -1.237454
H	 -0.609669	 0.426983	 -1.715946
C	 1.331804	 -0.827780	 -0.158768
H	 0.517153	 0.722650	 1.103260
H	 -0.643205	 -0.483066	 0.617482
C	 2.723619	 -0.410569	 0.329459
H	 1.342964	 -0.912588	 -1.244120
H	 1.116806	 -1.824343	 0.220779
C	 3.243875	 0.895854	 -0.272975
H	 3.424222	 -1.207124	 0.091250
H	 2.714788	 -0.329854	 1.414619
H	 3.251977	 0.848779	 -1.358681
H	 2.637085	 1.747371	 0.016682
H	 4.259473	 1.094070	 0.055697

	symmetry c1
}
set optking {
	frozen_dihedral = ("
		4 7 10 14
	")
}

ee = optimize('scf')
oeprop('DIPOLE', 'QUADRUPOLE', 'MULLIKEN_CHARGES')
f=open( 'psi4out.xyz', 'w' )
f.write( "21  " )
f.write( str(ee) + "\n" )
f.write( MOL.save_string_xyz() )
f.close()
--------------------------------------------------------------------------

    Molecular point group: c1
  Charge       = 0
  Multiplicity = 1
  Basis Set: 6-31G*
  Basis Set:
  @DF-RHF Final Energy:  -310.20776048362114
    Total Energy =                       -310.2077604836207456
    Molecular point group: c1
  Basis Set: 6-31G*
  Basis Set:
  Basis Set: 6-31G*
  Basis Set:
  @DF-RHF Final Energy:  -310.20802937679582
    Total Energy =                       -310.2080293767957642
  Basis Set: 6-31G*
  Basis Set:
  Basis Set: 6-31G*
  Basis Set:
  @DF-RHF Final Energy:  -310.20816133114050
    Total Energy =                       -310.2081613311404453
  Basis Set: 6-31G*
  Basis Set:
  Basis Set: 6-31G*
  Basis Set:
  @DF-RHF Final Energy:  -310.20815067265164
    Total Energy =                       -310.2081506726516409
  Basis Set: 6-31G*
  Basis Set:
  Basis Set: 6-31G*
  Basis Set:
  @DF-RHF Final Energy:  -310.20817207181926
    Total Energy =                       -310.2081720718192059
  Basis Set: 6-31G*
  Basis Set:
  Charge       = 0
  Multiplicity = 1
  Basis Set: 6-31G*
  Basis Set:

    Orbital Energies (a.u.)
    -----------------------

    Doubly Occupied:

       1A    -20.551771     2A    -11.266775     3A    -11.215999
       4A    -11.214786     5A    -11.213470     6A    -11.210201
       7A    -11.207141     8A     -1.358548     9A     -1.084489
      10A     -1.030962    11A     -0.954608    12A     -0.876353
      13A     -0.807454    14A     -0.777679    15A     -0.691932
      16A     -0.659888    17A     -0.618878    18A     -0.610450
      19A     -0.586448    20A     -0.557370    21A     -0.550008
      22A     -0.520078    23A     -0.498513    24A     -0.497116
      25A     -0.480241    26A     -0.459826    27A     -0.448592
      28A     -0.442141    29A     -0.433923

  @DF-RHF Final Energy:  -310.20817261729178

   => Energetics <=

    Nuclear Repulsion Energy =            318.0903791792226230
    One-Electron Energy =               -1050.9458322250554829
    Two-Electron Energy =                 422.6472804285409666
    DFT Exchange-Correlation Energy =       0.0000000000000000
    Empirical Dispersion Energy =           0.0000000000000000
    PCM Polarization Energy =               0.0000000000000000
    EFP Energy =                            0.0000000000000000
    Total Energy =                       -310.2081726172918934
    Molecular point group: c1
  Basis Set: 6-31G*
  Basis Set:

  -Total Gradient:
     Atom            X                  Y                   Z
    ------   -----------------  -----------------  -----------------
       1        0.000002001618     0.000000158659     0.000001290354
       2        0.000005720302     0.000004747061    -0.000002439041
       3       -0.000001113460     0.000000953402     0.000015607444
       4       -0.000413280876    -0.000481650298    -0.000165718301
       5       -0.000002780011     0.000002082706     0.000001010264
       6        0.000004270977     0.000000451411    -0.000003673877
       7        0.000755925496     0.000756503561     0.000237021377
       8        0.000025701860     0.000003700641     0.000003674020
       9       -0.000014457170     0.000000294529     0.000000005117
      10       -0.000842316977    -0.000939672441     0.000011827714
      11        0.000004000734     0.000007872229    -0.000018513124
      12       -0.000011740794    -0.000034670370    -0.000007194832
      13       -0.000005189147    -0.000007892730    -0.000000623601
      14        0.000536068942     0.000680893862    -0.000052661939
      15       -0.000033841158     0.000001275266     0.000007429106
      16        0.000009754422     0.000006128118    -0.000017711264
      17       -0.000012716678    -0.000007904226    -0.000001960973
      18        0.000005311686    -0.000007829874    -0.000002637332
      19        0.000020206662    -0.000001255834    -0.000002725652
      20       -0.000026847075     0.000002697058    -0.000014278073
      21       -0.000004679355     0.000013117271     0.000012272614

  **** Optimization is complete! (in 6 steps) ****
    Final optimized geometry and variables:
    Molecular point group: c1

    Geometry (in Angstrom), charge = 0, multiplicity = 1:

    H           -2.990581671061     2.502336665353    -0.907908036654
    O           -2.303798475607     1.900196989398    -1.156228070551
    C           -1.922983222074     1.133038376097    -0.043047139129
    C           -0.821545281306     0.182061384805    -0.476685907156
    H           -1.565866179201     1.775554890837     0.760813777514
    H           -2.771741676259     0.569828810897     0.342886898667
    C           -0.341466878259    -0.724976889955     0.659788722626
    H           -0.000534007117     0.769397222106    -0.875399992613
    H           -1.196681432522    -0.423997932035    -1.296656745638
    C            0.802708508732    -1.681934459601     0.261074166057
    H           -0.030627280949    -0.117867051998     1.508045960545
    H           -1.189027138147    -1.309474131684     1.009793687797
    C            2.196692126652    -1.262723539190     0.745437874176
    H            0.824776616192    -1.791277874888    -0.821202244269
    H            0.596547123853    -2.671094918821     0.659757776718
    C            2.711307617390     0.054490653476     0.163669124760
    H            2.899243727227    -2.053933714896     0.494487304559
    H            2.190062484491    -1.197229543202     1.831633652942
    H            2.738918776478     0.019684276663    -0.921850580662
    H            2.088258994699     0.895007031939     0.451946861011
    H            3.718198795050     0.261796630158     0.513064608940

  Mulliken Charges: (a.u.)
   Center  Symbol    Alpha    Beta     Spin     Total
       1     H     0.28120  0.28120  0.00000  0.43760
       2     O     4.37177  4.37177  0.00000 -0.74354
       3     C     2.99035  2.99035  0.00000  0.01930
       4     C     3.16178  3.16178  0.00000 -0.32355
       5     H     0.43313  0.43313  0.00000  0.13374
       6     H     0.43294  0.43294  0.00000  0.13412
       7     C     3.16505  3.16505  0.00000 -0.33010
       8     H     0.41207  0.41207  0.00000  0.17586
       9     H     0.41447  0.41447  0.00000  0.17107
      10     C     3.15475  3.15475  0.00000 -0.30950
      11     H     0.42202  0.42202  0.00000  0.15596
      12     H     0.42066  0.42066  0.00000  0.15867
      13     C     3.15231  3.15231  0.00000 -0.30462
      14     H     0.42033  0.42033  0.00000  0.15934
      15     H     0.41949  0.41949  0.00000  0.16101
      16     C     3.24119  3.24119  0.00000 -0.48238
      17     H     0.42175  0.42175  0.00000  0.15649
      18     H     0.42388  0.42388  0.00000  0.15224
      19     H     0.42089  0.42089  0.00000  0.15822
      20     H     0.42048  0.42048  0.00000  0.15905
      21     H     0.41949  0.41949  0.00000  0.16102

   Total alpha = 29.00000, Total beta = 29.00000, Total charge =  0.00000
