  ==> Input File <==

--------------------------------------------------------------------------
set {
	reference rhf
	basis 6-31G*
}

set_num_threads( 4 )
memory 2 gb

molecule MOL {
0 1

H	 -2.646374	 -0.642757	 1.268656
C	 -2.083525	 -0.384536	 0.393091
O	 -0.807605	 -0.127164	 0.768327
F	 -2.118945	 -1.383102	 -0.486752
F	 -2.621877	 0.670592	 -0.209486
C	 0.084052	 0.273579	 -0.209957
C	 1.353033	 -0.546803	 -0.018071
Cl	 0.433844	 2.004619	 -0.074457
H	 -0.288836	 0.092657	 -1.202930
F	 1.977288	 -0.702957	 -1.166139
F	 1.022551	 -1.740181	 0.433669
F	 2.176050	 0.007906	 0.838033

	symmetry c1
}
set optking {
	frozen_dihedral = ("
		10 7 6 9
	")
}

ee = optimize('scf')
oeprop('DIPOLE', 'QUADRUPOLE', 'MULLIKEN_CHARGES')
f=open( 'psi4out.xyz', 'w' )
f.write( "12  " )
f.write( str(ee) + "\n" )
f.write( MOL.save_string_xyz() )
f.close()
--------------------------------------------------------------------------

    Molecular point group: c1
  Charge       = 0
  Multiplicity = 1
  Basis Set: 6-31G*
  Basis Set:
  @DF-RHF Final Energy: -1146.30909656342374
    Total Energy =                      -1146.3090965634251006
    Molecular point group: c1
  Basis Set: 6-31G*
  Basis Set:
  Basis Set: 6-31G*
  Basis Set:
  @DF-RHF Final Energy: -1146.30961410786813
    Total Energy =                      -1146.3096141078676737
  Basis Set: 6-31G*
  Basis Set:
  Basis Set: 6-31G*
  Basis Set:
  @DF-RHF Final Energy: -1146.31035484323024
    Total Energy =                      -1146.3103548432316074
  Basis Set: 6-31G*
  Basis Set:
  Basis Set: 6-31G*
  Basis Set:
  @DF-RHF Final Energy: -1146.31039422347612
    Total Energy =                      -1146.3103942234765782
  Basis Set: 6-31G*
  Basis Set:
  @DF-RHF Final Energy: -1146.31040392948216
    Total Energy =                      -1146.3104039294819358
  @DF-RHF Final Energy: -1146.31041241721960
    Total Energy =                      -1146.3104124172195952
  @DF-RHF Final Energy: -1146.31042081981650
    Total Energy =                      -1146.3104208198160450
  Basis Set: 6-31G*
  Basis Set:
  @DF-RHF Final Energy: -1146.31041562949167
    Total Energy =                      -1146.3104156294921268
  Basis Set: 6-31G*
  Basis Set:
  Basis Set: 6-31G*
  Basis Set:
  @DF-RHF Final Energy: -1146.31041172386517
    Total Energy =                      -1146.3104117238640356
  Basis Set: 6-31G*
  Basis Set:
  Basis Set: 6-31G*
  Basis Set:
  @DF-RHF Final Energy: -1146.31042700233866
    Total Energy =                      -1146.3104270023386562
  Basis Set: 6-31G*
  Basis Set:
  Charge       = 0
  Multiplicity = 1
  Basis Set: 6-31G*
  Basis Set:

    Orbital Energies (a.u.)
    -----------------------

    Doubly Occupied:

       1A   -104.842742     2A    -26.360050     3A    -26.359031
       4A    -26.355999     5A    -26.346966     6A    -26.346694
       7A    -20.649878     8A    -11.528387     9A    -11.490334
      10A    -11.401584    11A    -10.577414    12A     -8.046751
      13A     -8.043255    14A     -8.043118    15A     -1.761191
      16A     -1.718454    17A     -1.658822    18A     -1.653962
      19A     -1.639052    20A     -1.487288    21A     -1.178210
      22A     -1.048581    23A     -0.988171    24A     -0.919962
      25A     -0.859031    26A     -0.853157    27A     -0.844337
      28A     -0.825715    29A     -0.813024    30A     -0.790359
      31A     -0.728250    32A     -0.727411    33A     -0.705064
      34A     -0.701345    35A     -0.678416    36A     -0.674099
      37A     -0.657531    38A     -0.657201    39A     -0.647121
      40A     -0.631724    41A     -0.597697    42A     -0.579436
      43A     -0.522753    44A     -0.476592    45A     -0.467567

  @DF-RHF Final Energy: -1146.31042707863344

   => Energetics <=

    Nuclear Repulsion Energy =            737.1585823005531211
    One-Electron Energy =               -3057.1705641545877370
    Two-Electron Energy =                1173.7015547754012914
    DFT Exchange-Correlation Energy =       0.0000000000000000
    Empirical Dispersion Energy =           0.0000000000000000
    PCM Polarization Energy =               0.0000000000000000
    EFP Energy =                            0.0000000000000000
    Total Energy =                      -1146.3104270786334382
    Molecular point group: c1
  Basis Set: 6-31G*
  Basis Set:

  -Total Gradient:
     Atom            X                  Y                   Z
    ------   -----------------  -----------------  -----------------
       1        0.000007376361    -0.000003674450     0.000002510787
       2       -0.000029457120     0.000003637822    -0.000048119061
       3        0.000050390260     0.000011315947     0.000003085455
       4       -0.000000537112     0.000012588783     0.000015961675
       5        0.000005850065    -0.000012664952     0.000009767359
       6       -0.005719098425    -0.007997357603     0.002371132521
       7        0.004810197719     0.007350469862     0.001001066545
       8        0.000002201791     0.000006235286    -0.000000602106
       9        0.003976631624     0.005476634603    -0.002221864260
      10       -0.003108015932    -0.004809403438    -0.001132013220
      11       -0.000005770859    -0.000040773080     0.000001509922
      12        0.000010231643     0.000002991250    -0.000002435622

  **** Optimization is complete! (in 11 steps) ****
    Final optimized geometry and variables:
    Molecular point group: c1

    Geometry (in Angstrom), charge = 0, multiplicity = 1:

    H           -2.671860326563    -0.589592359589     1.274068923002
    C           -2.087309023456    -0.376901817155     0.400655059062
    O           -0.839941199525    -0.028455162203     0.797869882501
    F           -2.043146596205    -1.442787945154    -0.395055653475
    F           -2.647477986341     0.600555717897    -0.305095017107
    C            0.070158498773     0.308596808643    -0.180842577245
    C            1.335609318825    -0.543010126842    -0.013297965423
    CL           0.471286247389     2.036944089946    -0.079584586209
    H           -0.290768359796     0.164903702702    -1.183341925609
    F            1.940195245853    -0.643331061439    -1.182185902820
    F            0.995892809000    -1.760805372047     0.356139309579
    F            2.181875296180    -0.070260936306     0.865694906595

  Mulliken Charges: (a.u.)
   Center  Symbol    Alpha    Beta     Spin     Total
       1     H     0.40084  0.40084  0.00000  0.19831
       2     C     2.56528  2.56528  0.00000  0.86944
       3     O     4.29376  4.29376  0.00000 -0.58752
       4     F     4.68636  4.68636  0.00000 -0.37273
       5     F     4.68498  4.68498  0.00000 -0.36996
       6     C     3.05801  3.05801  0.00000 -0.11601
       7     C     2.43051  2.43051  0.00000  1.13897
       8    CL     8.50033  8.50033  0.00000 -0.00067
       9     H     0.36347  0.36347  0.00000  0.27306
      10     F     4.67759  4.67759  0.00000 -0.35518
      11     F     4.67415  4.67415  0.00000 -0.34830
      12     F     4.66471  4.66471  0.00000 -0.32942

   Total alpha = 45.00000, Total beta = 45.00000, Total charge =  0.00000
