  ==> Input File <==

--------------------------------------------------------------------------
set {
	reference rhf
	basis 6-31G*
}

set_num_threads( 1 )
memory 2 gb

molecule MOL {
0 1

H	 -3.607028	 0.212517	 -1.779203
C	 -2.932564	 -0.463305	 -1.290303
C	 -2.076860	 -0.007332	 -0.404944
H	 -2.977902	 -1.505977	 -1.542674
O	 -1.180634	 -0.819263	 0.215062
H	 -2.020345	 1.031904	 -0.132932
C	 0.051604	 -1.018856	 -0.387932
C	 1.043764	 0.054862	 -0.001873
H	 -0.017620	 -1.041351	 -1.469781
H	 0.437898	 -1.966374	 -0.042284
F	 2.212596	 -0.199467	 -0.571921
F	 0.652529	 1.252447	 -0.405055
F	 1.230877	 0.110694	 1.300533

	symmetry c1
}
set optking {
	frozen_dihedral = ("
		11 8 7 9,
		3 5 7 9,
		6 3 2 1
	")
}

ee = energy('scf')
oeprop('DIPOLE', 'QUADRUPOLE', 'MULLIKEN_CHARGES')
f=open( 'psi4out.xyz', 'w' )
f.write( "13  " )
f.write( str(ee) + "\n" )
f.write( MOL.save_string_xyz() )
f.close()
--------------------------------------------------------------------------

    Molecular point group: c1

    Geometry (in Angstrom), charge = 0, multiplicity = 1:

       Center              X                  Y                   Z               Mass
    ------------   -----------------  -----------------  -----------------  -----------------
           H         -3.636510368002     0.303817465101    -1.617023193666     1.007825032070
           C         -2.962046368002    -0.372004534899    -1.128123193666    12.000000000000
           C         -2.106342368002     0.083968465101    -0.242764193666    12.000000000000
           H         -3.007384368002    -1.414676534899    -1.380494193666     1.007825032070
           O         -1.210116368002    -0.727962534899     0.377241806334    15.994914619560
           H         -2.049827368002     1.123204465101     0.029247806334     1.007825032070
           C          0.022121631998    -0.927555534899    -0.225752193666    12.000000000000
           C          1.014281631998     0.146162465101     0.160306806334    12.000000000000
           H         -0.047102368002    -0.950050534899    -1.307601193666     1.007825032070
           H          0.408415631998    -1.875073534899     0.119895806334     1.007825032070
           F          2.183113631998    -0.108166534899    -0.409741193666    18.998403224000
           F          0.623046631998     1.343747465101    -0.242875193666    18.998403224000
           F          1.201394631998     0.201994465101     1.462712806334    18.998403224000

  Charge       = 0
  Multiplicity = 1
  Basis Set: 6-31G*
  Basis Set:

    Orbital Energies (a.u.)
    -----------------------

    Doubly Occupied:

       1A    -26.342899     2A    -26.342245     3A    -26.339177
       4A    -20.597575     5A    -11.500338     6A    -11.313504
       7A    -11.295129     8A    -11.228378     9A     -1.740233
      10A     -1.638331    11A     -1.636947    12A     -1.431392
      13A     -1.080019    14A     -1.018931    15A     -0.926295
      16A     -0.835195    17A     -0.829495    18A     -0.827719
      19A     -0.765871    20A     -0.720425    21A     -0.713349
      22A     -0.702280    23A     -0.673800    24A     -0.657431
      25A     -0.650858    26A     -0.645823    27A     -0.641842
      28A     -0.593210    29A     -0.565517    30A     -0.528538
      31A     -0.462853    32A     -0.376499

  @DF-RHF Final Energy:  -527.53250637046722

   => Energetics <=

    Nuclear Repulsion Energy =            414.3648947660862518
    One-Electron Energy =               -1552.5506150824107863
    Two-Electron Energy =                 610.6532139458569191
    DFT Exchange-Correlation Energy =       0.0000000000000000
    Empirical Dispersion Energy =           0.0000000000000000
    PCM Polarization Energy =               0.0000000000000000
    EFP Energy =                            0.0000000000000000
    Total Energy =                       -527.5325063704675586

  Mulliken Charges: (a.u.)
   Center  Symbol    Alpha    Beta     Spin     Total
       1     H     0.40523  0.40523  0.00000  0.18953
       2     C     3.21587  3.21587  0.00000 -0.43174
       3     C     2.91613  2.91613  0.00000  0.16774
       4     H     0.40377  0.40377  0.00000  0.19247
       5     O     4.30860  4.30860  0.00000 -0.61719
       6     H     0.40085  0.40085  0.00000  0.19830
       7     C     3.05199  3.05199  0.00000 -0.10398
       8     C     2.45987  2.45987  0.00000  1.08026
       9     H     0.40476  0.40476  0.00000  0.19049
      10     H     0.39394  0.39394  0.00000  0.21211
      11     F     4.68300  4.68300  0.00000 -0.36601
      12     F     4.68059  4.68059  0.00000 -0.36119
      13     F     4.67540  4.67540  0.00000 -0.35079

   Total alpha = 32.00000, Total beta = 32.00000, Total charge =  0.00000
