  ==> Input File <==

--------------------------------------------------------------------------
set {
	reference rhf
	basis 6-31G*
}

set_num_threads( 4 )
memory 2 gb

molecule MOL {
0 1

H	 -3.251117	 0.970624	 -1.705578
C	 -2.350652	 1.510346	 -2.024144
C	 -1.557251	 2.140793	 -0.908051
O	 -2.064155	 1.566525	 -3.175888
C	 -1.220012	 1.144545	 0.209990
H	 -0.662677	 2.582575	 -1.331460
H	 -2.165689	 2.946219	 -0.498484
C	 -0.252658	 0.041456	 -0.226725
H	 -0.788942	 1.693928	 1.041639
H	 -2.139553	 0.698735	 0.586096
C	 1.180775	 0.282413	 0.250794
H	 -0.266029	 -0.034465	 -1.312038
H	 -0.597733	 -0.921000	 0.146291
C	 2.148627	 -0.814315	 -0.201312
H	 1.516199	 1.249228	 -0.115937
H	 1.192670	 0.346017	 1.338083
C	 3.580890	 -0.659131	 0.322722
H	 2.166869	 -0.852443	 -1.289387
H	 1.762857	 -1.776509	 0.128956
C	 4.324889	 0.564933	 -0.213704
H	 4.142010	 -1.551473	 0.056605
H	 3.564836	 -0.624694	 1.410140
H	 4.342616	 0.565491	 -1.300421
H	 3.866655	 1.493402	 0.110242
H	 5.353900	 0.572371	 0.132816

	symmetry c1
}
set optking {
	frozen_dihedral = ("
		3 5 8 12
	")
}

ee = optimize('scf')
oeprop('DIPOLE', 'QUADRUPOLE', 'MULLIKEN_CHARGES')
f=open( 'psi4out.xyz', 'w' )
f.write( "25  " )
f.write( str(ee) + "\n" )
f.write( MOL.save_string_xyz() )
f.close()
--------------------------------------------------------------------------

    Molecular point group: c1
  Charge       = 0
  Multiplicity = 1
  Basis Set: 6-31G*
  Basis Set:
  @DF-RHF Final Energy:  -387.11748944634974
    Total Energy =                       -387.1174894463495093
    Molecular point group: c1
  Basis Set: 6-31G*
  Basis Set:
  Basis Set: 6-31G*
  Basis Set:
  @DF-RHF Final Energy:  -387.11752805021536
    Total Energy =                       -387.1175280502150144
  Basis Set: 6-31G*
  Basis Set:
  Basis Set: 6-31G*
  Basis Set:
  @DF-RHF Final Energy:  -387.11764112742975
    Total Energy =                       -387.1176411274293514
  Basis Set: 6-31G*
  Basis Set:
  Basis Set: 6-31G*
  Basis Set:
  @DF-RHF Final Energy:  -387.11783029020398
    Total Energy =                       -387.1178302902039832
  Basis Set: 6-31G*
  Basis Set:
  @DF-RHF Final Energy:  -387.11785417559327
    Total Energy =                       -387.1178541755924698
  @DF-RHF Final Energy:  -387.11781403629510
    Total Energy =                       -387.1178140362956128
  @DF-RHF Final Energy:  -387.11786463903752
    Total Energy =                       -387.1178646390379754
  @DF-RHF Final Energy:  -387.11786593208575
    Total Energy =                       -387.1178659320856923
  Basis Set: 6-31G*
  Basis Set:
  @DF-RHF Final Energy:  -387.11786772517826
    Total Energy =                       -387.1178677251782574
  Basis Set: 6-31G*
  Basis Set:
  Basis Set: 6-31G*
  Basis Set:
  @DF-RHF Final Energy:  -387.11786644930686
    Total Energy =                       -387.1178664493073711
  Basis Set: 6-31G*
  Basis Set:
  Basis Set: 6-31G*
  Basis Set:
  @DF-RHF Final Energy:  -387.11786955195242
    Total Energy =                       -387.1178695519530493
  Basis Set: 6-31G*
  Basis Set:
  Charge       = 0
  Multiplicity = 1
  Basis Set: 6-31G*
  Basis Set:

    Orbital Energies (a.u.)
    -----------------------

    Doubly Occupied:

       1A    -20.563112     2A    -11.326572     3A    -11.235414
       4A    -11.234838     5A    -11.222266     6A    -11.218510
       7A    -11.216685     8A    -11.215278     9A    -11.209000
      10A     -1.402757    11A     -1.101948    12A     -1.067951
      13A     -1.011302    14A     -0.941190    15A     -0.875574
      16A     -0.820598    17A     -0.786351    18A     -0.779870
      19A     -0.666416    20A     -0.653410    21A     -0.642379
      22A     -0.617403    23A     -0.606844    24A     -0.590650
      25A     -0.573721    26A     -0.545757    27A     -0.539605
      28A     -0.521442    29A     -0.511515    30A     -0.499582
      31A     -0.484487    32A     -0.474948    33A     -0.462407
      34A     -0.456157    35A     -0.440543    36A     -0.410354

  @DF-RHF Final Energy:  -387.11786954490236

   => Energetics <=

    Nuclear Repulsion Energy =            444.2115684828144708
    One-Electron Energy =               -1404.8051944071798971
    Two-Electron Energy =                 573.4757563794626094
    DFT Exchange-Correlation Energy =       0.0000000000000000
    Empirical Dispersion Energy =           0.0000000000000000
    PCM Polarization Energy =               0.0000000000000000
    EFP Energy =                            0.0000000000000000
    Total Energy =                       -387.1178695449027600
    Molecular point group: c1
  Basis Set: 6-31G*
  Basis Set:

  -Total Gradient:
     Atom            X                  Y                   Z
    ------   -----------------  -----------------  -----------------
       1        0.000005081984     0.000003743805    -0.000002336553
       2        0.000008025122    -0.000000043883    -0.000003996808
       3       -0.001677067200    -0.001216873101    -0.000609125283
       4       -0.000007708055    -0.000004458652    -0.000016294335
       5        0.002868164909     0.002173728444     0.000842577631
       6       -0.000006387621    -0.000001091179    -0.000005185489
       7        0.000006543661     0.000000164981     0.000004196588
       8       -0.003416305764    -0.002934724371    -0.000085666771
       9        0.000001664746    -0.000007223385     0.000014883148
      10        0.000007029274    -0.000001259973    -0.000001561240
      11        0.000009422504     0.000010176783     0.000013439539
      12        0.002209763063     0.001963142983    -0.000148025208
      13       -0.000003054924     0.000007069684    -0.000005039744
      14        0.000001787723    -0.000000608558    -0.000005249063
      15        0.000009235224    -0.000001922534     0.000000214328
      16       -0.000003594128     0.000006689129     0.000005696719
      17       -0.000006912462     0.000012553676     0.000003748910
      18       -0.000006257525     0.000002682055    -0.000000244669
      19        0.000008357792    -0.000006403922     0.000000678806
      20        0.000002652551    -0.000004353383    -0.000003630444
      21       -0.000004254391    -0.000002552077     0.000002098733
      22       -0.000006355279     0.000005945264    -0.000000303203
      23       -0.000004292315     0.000002638198    -0.000001338211
      24        0.000002607691    -0.000002967601     0.000004384265
      25        0.000001853410    -0.000004052383    -0.000003921631

  **** Optimization is complete! (in 12 steps) ****
    Final optimized geometry and variables:
    Molecular point group: c1

    Geometry (in Angstrom), charge = 0, multiplicity = 1:

    H           -3.763876401349     0.466482567239    -1.010489608786
    C           -2.802479443845     0.881769567738    -1.336808586682
    C           -1.975645905945     1.509652541023    -0.244435586709
    O           -2.479431020755     0.813863898110    -2.478550071396
    C           -1.661615703102     0.512429086839     0.882689862987
    H           -1.070526951815     1.909485429467    -0.687384499765
    H           -2.548595019614     2.342222253824     0.160990678342
    C           -0.690967165195    -0.611198020605     0.462514060348
    H           -1.253340872455     1.057950238540     1.727301247308
    H           -2.598353957485     0.084334850820     1.232601791606
    C            0.746973759830    -0.361902596356     0.930477049275
    H           -0.680244787630    -0.702552951716    -0.620627510456
    H           -1.032326745366    -1.564619820275     0.854786319068
    C            1.719775520121    -1.445451565288     0.459488728200
    H            1.071849778530     0.611756698792     0.571481516317
    H            0.765298482075    -0.309368631655     2.018076825379
    C            3.151410562081    -1.293392251331     0.986153932775
    H            1.738203201408    -1.463813494809    -0.628888320398
    H            1.338216274244    -2.415389341629     0.772449507220
    C            3.888048334544    -0.053769313341     0.475295561168
    H            3.717433337752    -2.176930239722     0.701740501023
    H            3.135078354322    -1.281627112831     2.074174978775
    H            3.907132810445    -0.031274058827    -0.610952858260
    H            3.423326672602     0.865167198486     0.817084895687
    H            4.916424358618    -0.046384507724     0.823220486475

  Mulliken Charges: (a.u.)
   Center  Symbol    Alpha    Beta     Spin     Total
       1     H     0.43186  0.43186  0.00000  0.13628
       2     C     2.83033  2.83033  0.00000  0.33934
       3     C     3.20785  3.20785  0.00000 -0.41571
       4     O     4.23805  4.23805  0.00000 -0.47610
       5     C     3.16990  3.16990  0.00000 -0.33979
       6     H     0.40012  0.40012  0.00000  0.19976
       7     H     0.40863  0.40863  0.00000  0.18273
       8     C     3.16070  3.16070  0.00000 -0.32140
       9     H     0.41056  0.41056  0.00000  0.17888
      10     H     0.41737  0.41737  0.00000  0.16527
      11     C     3.15498  3.15498  0.00000 -0.30996
      12     H     0.41177  0.41177  0.00000  0.17646
      13     H     0.41760  0.41760  0.00000  0.16479
      14     C     3.15374  3.15374  0.00000 -0.30747
      15     H     0.42066  0.42066  0.00000  0.15868
      16     H     0.42376  0.42376  0.00000  0.15247
      17     C     3.15257  3.15257  0.00000 -0.30513
      18     H     0.42126  0.42126  0.00000  0.15747
      19     H     0.42218  0.42218  0.00000  0.15565
      20     C     3.24139  3.24139  0.00000 -0.48277
      21     H     0.42028  0.42028  0.00000  0.15944
      22     H     0.42371  0.42371  0.00000  0.15259
      23     H     0.42095  0.42095  0.00000  0.15810
      24     H     0.42080  0.42080  0.00000  0.15841
      25     H     0.41899  0.41899  0.00000  0.16202

   Total alpha = 36.00000, Total beta = 36.00000, Total charge = -0.00000
