                              Psi4 1.0.54 Driver

  ==> Input File <==

--------------------------------------------------------------------------
set {
	reference rhf
	basis cc-pvtz
}

set_num_threads( 4 )
memory 2 gb

molecule MOL {
0 1

H	 -2.362739	 -1.309000	 -0.383222
C	 -1.359144	 -1.272457	 0.020776
C	 -0.683882	 0.000127	 -0.464890
H	 -0.825635	 -2.151141	 -0.318509
H	 -1.416076	 -1.292399	 1.099483
C	 -1.358889	 1.272668	 0.021287
N	 0.742639	 -0.000109	 0.007361
H	 -0.596714	 0.000345	 -1.538118
H	 -2.362496	 1.309620	 -0.382658
H	 -0.825192	 2.151374	 -0.317646
H	 -1.415783	 1.292181	 1.100001
O	 1.590071	 0.000420	 -0.820590
O	 0.930911	 -0.000641	 1.178191

	symmetry c1
}
ee,wfn = energy('scf', return_wfn=True)
oeprop( wfn, 'DIPOLE', 'QUADRUPOLE', 'MULLIKEN_CHARGES')
oeprop( wfn, 'GRID_ESP')
f=open( 'psi4out.xyz', 'w' )
f.write( "13  " )
f.write( str(ee) + "\n" )
f.write( MOL.save_string_xyz() )
f.close()
--------------------------------------------------------------------------

    Molecular point group: c1

    Geometry (in Angstrom), charge = 0, multiplicity = 1:

       Center              X                  Y                   Z               Mass
    ------------   -----------------  -----------------  -----------------  -----------------
           H         -2.362938714808    -1.308999802997    -0.383249910126     1.007825032070
           C         -1.359343714808    -1.272456802997     0.020748089874    12.000000000000
           C         -0.684081714808     0.000127197003    -0.464917910126    12.000000000000
           H         -0.825834714808    -2.151140802997    -0.318536910126     1.007825032070
           H         -1.416275714808    -1.292398802997     1.099455089874     1.007825032070
           C         -1.359088714808     1.272668197003     0.021259089874    12.000000000000
           N          0.742439285192    -0.000108802997     0.007333089874    14.003074004780
           H         -0.596913714808     0.000345197003    -1.538145910126     1.007825032070
           H         -2.362695714808     1.309620197003    -0.382685910126     1.007825032070
           H         -0.825391714808     2.151374197003    -0.317673910126     1.007825032070
           H         -1.415982714808     1.292181197003     1.099973089874     1.007825032070
           O          1.589871285192     0.000420197003    -0.820617910126    15.994914619560
           O          0.930711285192    -0.000640802997     1.178163089874    15.994914619560

  Charge       = 0
  Multiplicity = 1
  Basis Set: CC-PVTZ
  Basis Set:

    Orbital Energies (a.u.)
    -----------------------

    Doubly Occupied:

       1A    -20.590641     2A    -20.587608     3A    -15.832543
       4A    -11.304067     5A    -11.243214     6A    -11.243198
       7A     -1.633888     8A     -1.418183     9A     -1.142649
      10A     -0.974361    11A     -0.957238    12A     -0.816689
      13A     -0.751236    14A     -0.733130    15A     -0.726619
      16A     -0.650784    17A     -0.595276    18A     -0.588822
      19A     -0.570774    20A     -0.529753    21A     -0.522938
      22A     -0.485773    23A     -0.469554    24A     -0.452310

  @DF-RHF Final Energy:  -321.86463057804184

   => Energetics <=

    Nuclear Repulsion Energy =            257.3269649840920579
    One-Electron Energy =                -948.7404238718719398
    Two-Electron Energy =                 369.5488283097380986
    DFT Exchange-Correlation Energy =       0.0000000000000000
    Empirical Dispersion Energy =           0.0000000000000000
    PCM Polarization Energy =               0.0000000000000000
    EFP Energy =                            0.0000000000000000
    Total Energy =                       -321.8646305780417265

  Mulliken Charges: (a.u.)
   Center  Symbol    Alpha    Beta     Spin     Total
       1     H     0.44910  0.44910  0.00000  0.10181
       2     C     3.14435  3.14435  0.00000 -0.28871
       3     C     3.00759  3.00759  0.00000 -0.01518
       4     H     0.44078  0.44078  0.00000  0.11843
       5     H     0.43874  0.43874  0.00000  0.12253
       6     C     3.14435  3.14435  0.00000 -0.28870
       7     N     3.27555  3.27555  0.00000  0.44889
       8     H     0.42466  0.42466  0.00000  0.15068
       9     H     0.44909  0.44909  0.00000  0.10181
      10     H     0.44078  0.44078  0.00000  0.11844
      11     H     0.43874  0.43874  0.00000  0.12252
      12     O     4.16832  4.16832  0.00000 -0.33664
      13     O     4.17794  4.17794  0.00000 -0.35587

   Total alpha = 24.00000, Total beta = 24.00000, Total charge =  0.00000

*** Psi4 exiting successfully. Buy a developer a beer!
