  ==> Input File <==

--------------------------------------------------------------------------
set {
	reference rhf
	basis cc-pvtz
}

set_num_threads( 4 )
memory 2 gb

molecule MOL {
0 1

H	 -3.817401	 -2.300013	 0.170481
C	 -2.747216	 -2.217359	 0.177405
C	 -1.969878	 -3.339686	 0.400492
C	 -2.149857	 -0.989627	 -0.036648
H	 -2.434237	 -4.292310	 0.566562
C	 -0.594753	 -3.232685	 0.409241
H	 -2.753576	 -0.119858	 -0.209560
C	 -0.773050	 -0.880868	 -0.028188
H	 0.022144	 -4.091296	 0.580368
C	 0.008743	 -2.003145	 0.194981
H	 -0.307269	 0.068453	 -0.193620
C	 1.498234	 -1.940163	 0.214221
O	 1.968286	 -0.725612	 -0.000027
O	 2.195619	 -2.880137	 0.402054
C	 3.373556	 -0.568203	 0.000011
H	 3.695416	 -0.031588	 -0.879663
H	 3.782700	 -1.565294	 -0.000152
H	 3.695405	 -0.031851	 0.879862

	symmetry c1
}
set optking {
	frozen_dihedral = ("
		12 13 15 16
	")
}

ee = optimize('scf')
oeprop('DIPOLE', 'QUADRUPOLE', 'MULLIKEN_CHARGES')
f=open( 'psi4out.xyz', 'w' )
f.write( "18  " )
f.write( str(ee) + "\n" )
f.write( MOL.save_string_xyz() )
f.close()
--------------------------------------------------------------------------

    Molecular point group: c1
  Charge       = 0
  Multiplicity = 1
  Basis Set: CC-PVTZ
  Basis Set:
  @DF-RHF Final Energy:  -457.50619758733905
    Total Energy =                       -457.5061975873397841
    Molecular point group: c1
  Basis Set: CC-PVTZ
  Basis Set:
  Basis Set: CC-PVTZ
  Basis Set:
  @DF-RHF Final Energy:  -457.50723759359346
    Total Energy =                       -457.5072375935937998
  Basis Set: CC-PVTZ
  Basis Set:
  Basis Set: CC-PVTZ
  Basis Set:
  @DF-RHF Final Energy:  -457.50811235024611
    Total Energy =                       -457.5081123502459377
  Basis Set: CC-PVTZ
  Basis Set:
  Basis Set: CC-PVTZ
  Basis Set:
  @DF-RHF Final Energy:  -457.50782898355538
    Total Energy =                       -457.5078289835555552
  Basis Set: CC-PVTZ
  Basis Set:
  Basis Set: CC-PVTZ
  Basis Set:
  @DF-RHF Final Energy:  -457.50819430470733
    Total Energy =                       -457.5081943047077857
  Basis Set: CC-PVTZ
  Basis Set:
  Charge       = 0
  Multiplicity = 1
  Basis Set: CC-PVTZ
  Basis Set:

    Orbital Energies (a.u.)
    -----------------------

    Doubly Occupied:

       1A    -20.599911     2A    -20.533659     3A    -11.373217
       4A    -11.279873     5A    -11.244596     6A    -11.243189
       7A    -11.242267     8A    -11.239641     9A    -11.235697
      10A    -11.234933    11A     -1.474499    12A     -1.369070
      13A     -1.170340    14A     -1.051538    15A     -1.028659
      16A     -0.981573    17A     -0.862736    18A     -0.838046
      19A     -0.780415    20A     -0.745031    21A     -0.688379
      22A     -0.679458    23A     -0.676036    24A     -0.634258
      25A     -0.629730    26A     -0.600865    27A     -0.587347
      28A     -0.571422    29A     -0.526244    30A     -0.519957
      31A     -0.510115    32A     -0.501497    33A     -0.460374
      34A     -0.449924    35A     -0.350014    36A     -0.345863

  @DF-RHF Final Energy:  -457.50820198460690

   => Energetics <=

    Nuclear Repulsion Energy =            493.5983622273423634
    One-Electron Energy =               -1601.6923793906612445
    Two-Electron Energy =                 650.5858151787116412
    DFT Exchange-Correlation Energy =       0.0000000000000000
    Empirical Dispersion Energy =           0.0000000000000000
    PCM Polarization Energy =               0.0000000000000000
    EFP Energy =                            0.0000000000000000
    Total Energy =                       -457.5082019846071262
    Molecular point group: c1
  Basis Set: CC-PVTZ
  Basis Set:

  -Total Gradient:
     Atom            X                  Y                   Z
    ------   -----------------  -----------------  -----------------
       1        0.000000502708     0.000000485882    -0.000001209363
       2       -0.000004372389    -0.000012901981     0.000002206075
       3       -0.000022428967     0.000002579648     0.000001049243
       4        0.000004120628     0.000000465621     0.000002348655
       5       -0.000003747304     0.000001201999     0.000000137492
       6       -0.000000664589     0.000007171885    -0.000007970785
       7       -0.000003703833    -0.000001655488     0.000000955646
       8       -0.000022417838     0.000011583854    -0.000007474639
       9       -0.000001975847     0.000004594642     0.000000968807
      10       -0.000032075051    -0.000018708109     0.000032726964
      11       -0.000009866190    -0.000013402843     0.000003290614
      12       -0.000016175155    -0.000121051226    -0.000690129250
      13        0.000072839789     0.000014428980     0.000823833622
      14        0.000051926883     0.000092076832     0.000014085680
      15       -0.000148745900     0.000633712083     0.000177242180
      16        0.000079593264    -0.000604129122    -0.000318191255
      17        0.000037237251     0.000006066688    -0.000003221403
      18        0.000019952538    -0.000002519341    -0.000030648281

  **** Optimization is complete! (in 6 steps) ****
    Final optimized geometry and variables:
    Molecular point group: c1

    Geometry (in Angstrom), charge = 0, multiplicity = 1:

    H           -4.027466282674    -0.406776548474    -0.013346400496
    C           -2.956378491917    -0.336643494242    -0.002516421852
    C           -2.192864062505    -1.468430161782     0.220744042187
    C           -2.343709734643     0.884315677061    -0.211586469365
    H           -2.668793571588    -2.416039626252     0.383100176017
    C           -0.816614126483    -1.377455249206     0.234571325271
    H           -2.936363600450     1.761696858024    -0.384580223268
    C           -0.965607910491     0.976969566958    -0.198104030096
    H           -0.210737579323    -2.243780562815     0.406083864494
    C           -0.197541807676    -0.154676451995     0.025143297452
    H           -0.488648388329     1.921306185838    -0.359589161344
    C            1.294033686426    -0.111399093562     0.050015903700
    O            1.771147768413     1.102299855423    -0.158316379734
    O            1.971876246861    -1.064928619727     0.237933644719
    C            3.171410397947     1.307735349487    -0.179602171821
    H            3.402458390527     1.862954012504    -1.076032524151
    H            3.698008505092     0.369517472356    -0.178452823763
    H            3.447765622941     1.886970670043     0.689532996284

  Mulliken Charges: (a.u.)
   Center  Symbol    Alpha    Beta     Spin     Total
       1     H     0.42034  0.42034  0.00000  0.15931
       2     C     3.06971  3.06971  0.00000 -0.13943
       3     C     3.07554  3.07554  0.00000 -0.15108
       4     C     3.07481  3.07481  0.00000 -0.14961
       5     H     0.42049  0.42049  0.00000  0.15902
       6     C     3.07597  3.07597  0.00000 -0.15194
       7     H     0.42199  0.42199  0.00000  0.15602
       8     C     3.08188  3.08188  0.00000 -0.16375
       9     H     0.40635  0.40635  0.00000  0.18729
      10     C     3.01867  3.01867  0.00000 -0.03734
      11     H     0.41123  0.41123  0.00000  0.17753
      12     C     2.77439  2.77439  0.00000  0.45123
      13     O     4.15024  4.15024  0.00000 -0.30049
      14     O     4.21144  4.21144  0.00000 -0.42288
      15     C     3.04245  3.04245  0.00000 -0.08490
      16     H     0.45098  0.45098  0.00000  0.09803
      17     H     0.43989  0.43989  0.00000  0.12022
      18     H     0.45362  0.45362  0.00000  0.09276

   Total alpha = 36.00000, Total beta = 36.00000, Total charge =  0.00000
