  ==> Input File <==

--------------------------------------------------------------------------
set {
	reference rhf
	basis 6-31G*
}

set_num_threads( 4 )
memory 2 gb

molecule MOL {
0 1

H	 -3.872278	 0.499661	 -0.907425
O	 -3.517110	 -0.026191	 -0.205115
C	 -2.306886	 0.532354	 0.237577
C	 -1.177863	 -0.397191	 -0.171080
H	 -2.156308	 1.517575	 -0.201710
H	 -2.315015	 0.655684	 1.319734
C	 0.198102	 0.111031	 0.262842
H	 -1.208843	 -0.518759	 -1.250427
H	 -1.368741	 -1.376554	 0.258909
C	 1.331804	 -0.827780	 -0.158768
H	 0.361943	 1.100838	 -0.156218
H	 0.217265	 0.229072	 1.345532
C	 2.723619	 -0.410569	 0.329459
H	 1.342964	 -0.912588	 -1.244120
H	 1.116806	 -1.824343	 0.220779
C	 3.243875	 0.895854	 -0.272975
H	 3.424222	 -1.207124	 0.091250
H	 2.714788	 -0.329854	 1.414619
H	 3.251977	 0.848779	 -1.358681
H	 2.637085	 1.747371	 0.016682
H	 4.259473	 1.094070	 0.055697

	symmetry c1
}
set optking {
	frozen_dihedral = ("
		1 2 3 5
	")
}

ee = optimize('scf')
oeprop('DIPOLE', 'QUADRUPOLE', 'MULLIKEN_CHARGES')
f=open( 'psi4out.xyz', 'w' )
f.write( "21  " )
f.write( str(ee) + "\n" )
f.write( MOL.save_string_xyz() )
f.close()
--------------------------------------------------------------------------

    Molecular point group: c1
  Charge       = 0
  Multiplicity = 1
  Basis Set: 6-31G*
  Basis Set:
  @DF-RHF Final Energy:  -310.21028317625348
    Total Energy =                       -310.2102831762534834
    Molecular point group: c1
  Basis Set: 6-31G*
  Basis Set:
  Basis Set: 6-31G*
  Basis Set:
  @DF-RHF Final Energy:  -310.21080426474737
    Total Energy =                       -310.2108042647472530
  Basis Set: 6-31G*
  Basis Set:
  Basis Set: 6-31G*
  Basis Set:
  @DF-RHF Final Energy:  -310.21097258848675
    Total Energy =                       -310.2109725884868112
  Basis Set: 6-31G*
  Basis Set:
  Charge       = 0
  Multiplicity = 1
  Basis Set: 6-31G*
  Basis Set:

    Orbital Energies (a.u.)
    -----------------------

    Doubly Occupied:

       1A    -20.550620     2A    -11.267456     3A    -11.216220
       4A    -11.215744     5A    -11.214398     6A    -11.210721
       7A    -11.208947     8A     -1.357161     9A     -1.086644
      10A     -1.033278    11A     -0.954638    12A     -0.877195
      13A     -0.810887    14A     -0.779173    15A     -0.700405
      16A     -0.647027    17A     -0.623282    18A     -0.602037
      19A     -0.592571    20A     -0.569932    21A     -0.541755
      22A     -0.520930    23A     -0.508588    24A     -0.491411
      25A     -0.473498    26A     -0.465323    27A     -0.459530
      28A     -0.455684    29A     -0.419700

  @DF-RHF Final Energy:  -310.21097354639022

   => Energetics <=

    Nuclear Repulsion Energy =            312.0668601821494690
    One-Electron Energy =               -1038.8461591809559650
    Two-Electron Energy =                 416.5683254524163885
    DFT Exchange-Correlation Energy =       0.0000000000000000
    Empirical Dispersion Energy =           0.0000000000000000
    PCM Polarization Energy =               0.0000000000000000
    EFP Energy =                            0.0000000000000000
    Total Energy =                       -310.2109735463901643
    Molecular point group: c1
  Basis Set: 6-31G*
  Basis Set:

  -Total Gradient:
     Atom            X                  Y                   Z
    ------   -----------------  -----------------  -----------------
       1       -0.000331826032     0.000482709885     0.000578581880
       2        0.000617145705    -0.000614274667    -0.000779625052
       3       -0.000478562712     0.000492172266     0.000739742740
       4        0.000002975851    -0.000028154874     0.000076993913
       5        0.000233748987    -0.000265448446    -0.000566024421
       6       -0.000063364730    -0.000031687205    -0.000020350613
       7       -0.000077530131    -0.000013105022    -0.000041880531
       8        0.000016816676    -0.000015023579     0.000007677664
       9       -0.000020621356    -0.000019379463     0.000004566159
      10        0.000005803535     0.000028577637    -0.000006273013
      11       -0.000006070721    -0.000012958038     0.000024907097
      12        0.000018268042    -0.000010656504    -0.000004284664
      13        0.000031099692    -0.000017544775    -0.000022591817
      14        0.000004977304     0.000006908635     0.000004755256
      15       -0.000002770158     0.000017347614    -0.000007889748
      16        0.000012636268    -0.000001687703     0.000007224348
      17        0.000031327117     0.000001572316     0.000016761923
      18       -0.000008596368     0.000009069533    -0.000010368653
      19       -0.000002824146    -0.000001223748    -0.000000686252
      20        0.000017685255    -0.000005211532     0.000001769256
      21       -0.000000318074    -0.000002002329    -0.000003005473

  **** Optimization is complete! (in 4 steps) ****
    Final optimized geometry and variables:
    Molecular point group: c1

    Geometry (in Angstrom), charge = 0, multiplicity = 1:

    H           -3.948011569647     0.505618959223    -0.830420056525
    O           -3.554639776096    -0.013709022326    -0.146608902840
    C           -2.308387677416     0.529421939543     0.220537297570
    C           -1.173635623034    -0.401346482958    -0.182968224003
    H           -2.165629548873     1.507265917832    -0.234061816138
    H           -2.309821651167     0.672648277236     1.296318189710
    C            0.200226177083     0.107323289926     0.257408848841
    H           -1.194885547409    -0.529804648611    -1.262993411472
    H           -1.366781832243    -1.379782790166     0.248431793891
    C            1.338604221309    -0.829061941349    -0.157296166426
    H            0.365793148785     1.098214772286    -0.159319003465
    H            0.212195574312     0.225184872120     1.340141791361
    C            2.726505925636    -0.411022417323     0.341524689068
    H            1.358064213265    -0.912547394510    -1.242738777088
    H            1.121947874102    -1.826321490730     0.219310202192
    C            3.250606297140     0.895839521977    -0.256594576832
    H            3.429587600030    -1.207002914646     0.108696525577
    H            2.709159412355    -0.330418319582     1.426522108834
    H            3.266529848418     0.849258276565    -1.342285004638
    H            2.641604214628     1.747059025398     0.029265313912
    H            4.263774772981     1.094211339008     0.079320445550

  Mulliken Charges: (a.u.)
   Center  Symbol    Alpha    Beta     Spin     Total
       1     H     0.27989  0.27989  0.00000  0.44021
       2     O     4.37390  4.37390  0.00000 -0.74780
       3     C     2.99267  2.99267  0.00000  0.01466
       4     C     3.15734  3.15734  0.00000 -0.31468
       5     H     0.43268  0.43268  0.00000  0.13465
       6     H     0.42202  0.42202  0.00000  0.15597
       7     C     3.16275  3.16275  0.00000 -0.32551
       8     H     0.42315  0.42315  0.00000  0.15369
       9     H     0.41443  0.41443  0.00000  0.17114
      10     C     3.15143  3.15143  0.00000 -0.30286
      11     H     0.42288  0.42288  0.00000  0.15425
      12     H     0.42291  0.42291  0.00000  0.15419
      13     C     3.15250  3.15250  0.00000 -0.30500
      14     H     0.42387  0.42387  0.00000  0.15226
      15     H     0.42065  0.42065  0.00000  0.15870
      16     C     3.24118  3.24118  0.00000 -0.48235
      17     H     0.42060  0.42060  0.00000  0.15879
      18     H     0.42313  0.42313  0.00000  0.15375
      19     H     0.42239  0.42239  0.00000  0.15521
      20     H     0.42061  0.42061  0.00000  0.15878
      21     H     0.41903  0.41903  0.00000  0.16195

   Total alpha = 29.00000, Total beta = 29.00000, Total charge =  0.00000
