  ==> Input File <==

--------------------------------------------------------------------------
set {
	reference rhf
	basis cc-pvtz
}

set_num_threads( 4 )
memory 2 gb

molecule MOL {
0 1

O	 -2.071633	 -1.227563	 -0.223463
C	 -1.652164	 -0.152425	 0.058082
C	 -0.327811	 0.006324	 0.778296
C	 -2.402515	 1.108629	 -0.298924
C	 0.843231	 -0.001575	 -0.211665
H	 -0.319484	 0.928173	 1.350354
H	 -0.227804	 -0.823091	 1.466705
C	 2.197693	 0.138030	 0.476937
H	 0.722944	 0.805202	 -0.930230
H	 0.813976	 -0.926978	 -0.776588
C	 2.887416	 1.462059	 0.166465
H	 2.067471	 0.041656	 1.551310
H	 2.838913	 -0.683675	 0.171685
H	 2.285291	 2.303637	 0.492390
H	 3.059748	 1.572577	 -0.898643
H	 3.846896	 1.529345	 0.665735
H	 -3.240910	 0.874416	 -0.936711
H	 -1.747554	 1.818823	 -0.790984
H	 -2.760419	 1.579708	 0.610998

	symmetry c1
}
set optking {
	frozen_dihedral = ("
		11 8 5 9
	")
}

ee = optimize('scf')
oeprop('DIPOLE', 'QUADRUPOLE', 'MULLIKEN_CHARGES')
f=open( 'psi4out.xyz', 'w' )
f.write( "19  " )
f.write( str(ee) + "\n" )
f.write( MOL.save_string_xyz() )
f.close()
--------------------------------------------------------------------------

    Molecular point group: c1
  Charge       = 0
  Multiplicity = 1
  Basis Set: CC-PVTZ
  Basis Set:
  @DF-RHF Final Energy:  -309.17149360985934
    Total Energy =                       -309.1714936098591124
    Molecular point group: c1
  Basis Set: CC-PVTZ
  Basis Set:
  Basis Set: CC-PVTZ
  Basis Set:
  @DF-RHF Final Energy:  -309.17174840061500
    Total Energy =                       -309.1717484006150585
  Basis Set: CC-PVTZ
  Basis Set:
  Basis Set: CC-PVTZ
  Basis Set:
  @DF-RHF Final Energy:  -309.17173742104967
    Total Energy =                       -309.1717374210491016
  Basis Set: CC-PVTZ
  Basis Set:
  Basis Set: CC-PVTZ
  Basis Set:
  @DF-RHF Final Energy:  -309.17177611600329
    Total Energy =                       -309.1717761160034001
  Basis Set: CC-PVTZ
  Basis Set:
  Basis Set: CC-PVTZ
  Basis Set:
  @DF-RHF Final Energy:  -309.17176178245194
    Total Energy =                       -309.1717617824518811
  Basis Set: CC-PVTZ
  Basis Set:
  Basis Set: CC-PVTZ
  Basis Set:
  @DF-RHF Final Energy:  -309.17184188047190
    Total Energy =                       -309.1718418804716748
  Basis Set: CC-PVTZ
  Basis Set:
  Charge       = 0
  Multiplicity = 1
  Basis Set: CC-PVTZ
  Basis Set:

    Orbital Energies (a.u.)
    -----------------------

    Doubly Occupied:

       1A    -20.536989     2A    -11.319233     3A    -11.228854
       4A    -11.228206     5A    -11.227020     6A    -11.223056
       7A    -11.215326     8A     -1.397019     9A     -1.091039
      10A     -1.029720    11A     -0.984622    12A     -0.892855
      13A     -0.807001    14A     -0.736288    15A     -0.662103
      16A     -0.647482    17A     -0.620189    18A     -0.614596
      19A     -0.595174    20A     -0.570272    21A     -0.556631
      22A     -0.533067    23A     -0.520299    24A     -0.503542
      25A     -0.483650    26A     -0.469801    27A     -0.468971
      28A     -0.398941

  @DF-RHF Final Energy:  -309.17184207082744

   => Energetics <=

    Nuclear Repulsion Energy =            303.0345639736184467
    One-Electron Energy =               -1019.2889160210183945
    Two-Electron Energy =                 407.0825099765726236
    DFT Exchange-Correlation Energy =       0.0000000000000000
    Empirical Dispersion Energy =           0.0000000000000000
    PCM Polarization Energy =               0.0000000000000000
    EFP Energy =                            0.0000000000000000
    Total Energy =                       -309.1718420708273243
    Molecular point group: c1
  Basis Set: CC-PVTZ
  Basis Set:

  -Total Gradient:
     Atom            X                  Y                   Z
    ------   -----------------  -----------------  -----------------
       1        0.000008787597     0.000001376523     0.000022740571
       2        0.000017777429     0.000003028523    -0.000048501589
       3       -0.000010566367    -0.000007305705     0.000013685340
       4       -0.000011809914     0.000003194486     0.000030920612
       5        0.001150525565    -0.001493589988    -0.002017413027
       6       -0.000013593456     0.000002391613     0.000004672815
       7       -0.000008718848    -0.000001553840     0.000003358133
       8       -0.000958139167     0.000985174114     0.001774063923
       9       -0.000769067494     0.001017934503     0.001288649879
      10        0.000002613072     0.000008595782     0.000000441460
      11        0.000594962363    -0.000526120691    -0.001058428167
      12        0.000003698889    -0.000016326459    -0.000002653537
      13       -0.000018969454     0.000003671378     0.000001008585
      14       -0.000002107947     0.000016665955    -0.000011636340
      15        0.000023502435     0.000001420831    -0.000003045908
      16       -0.000018650722    -0.000002213589     0.000009368710
      17        0.000005464399    -0.000003836994     0.000000430855
      18        0.000003182415    -0.000000230884    -0.000003275688
      19        0.000001109200     0.000007724440    -0.000004386626

  **** Optimization is complete! (in 7 steps) ****
    Final optimized geometry and variables:
    Molecular point group: c1

    Geometry (in Angstrom), charge = 0, multiplicity = 1:

    O           -2.016884600287    -1.421350185048    -0.325739304376
    C           -1.584408677884    -0.351719837203    -0.042537893092
    C           -0.258257549471    -0.210868823715     0.677687436071
    C           -2.320085386599     0.918777612272    -0.396822171736
    C            0.914396810163    -0.228798872526    -0.313632791714
    H           -0.238561347385     0.709577621944     1.252398153158
    H           -0.166640593354    -1.043117546174     1.363576417401
    C            2.283077792149    -0.059875572905     0.376578327025
    H            0.773874246348     0.570523069006    -1.034866022180
    H            0.877387642395    -1.158707899099    -0.865922176360
    C            2.959706492905     1.272395849922     0.066826642906
    H            2.167327043636    -0.163272916661     1.450190098375
    H            2.942725147918    -0.863759047441     0.069951787521
    H            2.338193985573     2.109910858401     0.368230969913
    H            3.153079978519     1.371618675105    -0.995702040684
    H            3.906781527945     1.361241742702     0.586357130857
    H           -3.158029011182     0.696109257089    -1.039325682229
    H           -1.656350035385     1.625372627247    -0.882144581126
    H           -2.677696516486     1.388279384453     0.514076815018

  Mulliken Charges: (a.u.)
   Center  Symbol    Alpha    Beta     Spin     Total
       1     O     4.17689  4.17689  0.00000 -0.35378
       2     C     2.85922  2.85922  0.00000  0.28156
       3     C     3.09945  3.09945  0.00000 -0.19891
       4     C     3.15541  3.15541  0.00000 -0.31081
       5     C     3.10482  3.10482  0.00000 -0.20963
       6     H     0.44896  0.44896  0.00000  0.10208
       7     H     0.43844  0.43844  0.00000  0.12313
       8     C     3.09023  3.09023  0.00000 -0.18046
       9     H     0.45247  0.45247  0.00000  0.09506
      10     H     0.43498  0.43498  0.00000  0.13004
      11     C     3.14795  3.14795  0.00000 -0.29590
      12     H     0.45275  0.45275  0.00000  0.09451
      13     H     0.44625  0.44625  0.00000  0.10750
      14     H     0.45633  0.45633  0.00000  0.08734
      15     H     0.45320  0.45320  0.00000  0.09360
      16     H     0.44735  0.44735  0.00000  0.10530
      17     H     0.43595  0.43595  0.00000  0.12809
      18     H     0.45100  0.45100  0.00000  0.09801
      19     H     0.44836  0.44836  0.00000  0.10328

   Total alpha = 28.00000, Total beta = 28.00000, Total charge = -0.00000
