                              Psi4 1.0.54 Driver

  ==> Input File <==

--------------------------------------------------------------------------
set {
	reference rhf
	basis cc-pvtz
}

set_num_threads( 4 )
memory 2 gb

molecule MOL {
0 1

H	 2.614283	 2.028610	 0.296620
O	 3.358864	 1.662087	 -0.142800
C	 3.565468	 0.338079	 0.273842
C	 2.533667	 -0.637565	 -0.272227
H	 4.548038	 0.064914	 -0.086598
H	 3.593945	 0.282242	 1.360360
C	 1.114816	 -0.402372	 0.240993
H	 2.544552	 -0.580764	 -1.356576
H	 2.850574	 -1.642962	 -0.005497
C	 1.019007	 -0.467258	 1.764623
H	 0.449043	 -1.139924	 -0.194629
H	 0.766479	 0.572147	 -0.097031
C	 -0.366606	 -0.165608	 2.338504
H	 1.340465	 -1.450009	 2.100915
H	 1.726503	 0.241939	 2.185287
C	 -1.441303	 -1.200892	 2.011463
H	 -0.278745	 -0.088541	 3.418721
H	 -0.692682	 0.812730	 1.992549
C	 -2.778324	 -0.907906	 2.687442
H	 -1.094463	 -2.185576	 2.317352
H	 -1.595893	 -1.252715	 0.937955
C	 -3.854652	 -1.937575	 2.360039
H	 -2.634830	 -0.867284	 3.763702
H	 -3.122116	 0.079058	 2.389497
H	 -3.554320	 -2.931392	 2.675261
H	 -4.788597	 -1.701612	 2.857207
H	 -4.048869	 -1.975640	 1.293183

	symmetry c1
}
set optking {
	frozen_dihedral = ("
		10 7 4 8
	")
}

ee,wfn = optimize('scf', return_wfn=True)
oeprop( wfn, 'DIPOLE', 'QUADRUPOLE', 'MULLIKEN_CHARGES')
f=open( 'psi4out.xyz', 'w' )
f.write( "27  " )
f.write( str(ee) + "\n" )
f.write( MOL.save_string_xyz() )
f.close()
--------------------------------------------------------------------------

    Molecular point group: c1
  Charge       = 0
  Multiplicity = 1
  Basis Set: CC-PVTZ
  Basis Set:
  @DF-RHF Final Energy:  -388.42449437275093
    Total Energy =                       -388.4244943727508144
    Molecular point group: c1
  Basis Set: CC-PVTZ
  Basis Set:
  Basis Set: CC-PVTZ
  Basis Set:
  @DF-RHF Final Energy:  -386.74324351365897
    Total Energy =                       -386.7432435136589106
  Basis Set: CC-PVTZ
  Basis Set:
  Basis Set: CC-PVTZ
  Basis Set:
  @DF-RHF Final Energy:  -387.00034285555375
    Total Energy =                       -387.0003428555536402
  Basis Set: CC-PVTZ
  Basis Set:
  Basis Set: CC-PVTZ
  Basis Set:
  @DF-RHF Final Energy:  -387.48665429349785
    Total Energy =                       -387.4866542934973950
  Basis Set: CC-PVTZ
  Basis Set:
  @DF-RHF Final Energy:  -387.90594918487341
    Total Energy =                       -387.9059491848734069
  @DF-RHF Final Energy:  -388.20204734627316
    Total Energy =                       -388.2020473462729342
  @DF-RHF Final Energy:  -388.36613049815520
    Total Energy =                       -388.3661304981555986
  @DF-RHF Final Energy:  -388.41762448369241
    Total Energy =                       -388.4176244836928618
  @DF-RHF Final Energy:  -388.42532206368730
    Total Energy =                       -388.4253220636868491
  @DF-RHF Final Energy:  -388.42558344390920
    Total Energy =                       -388.4255834439092041
  Basis Set: CC-PVTZ
  Basis Set:
  @DF-RHF Final Energy:  -388.42567355538068
    Total Energy =                       -388.4256735553803992
  Basis Set: CC-PVTZ
  Basis Set:
  Basis Set: CC-PVTZ
  Basis Set:
  @DF-RHF Final Energy:  -388.42568220430826
    Total Energy =                       -388.4256822043090551
  Basis Set: CC-PVTZ
  Basis Set:
  Basis Set: CC-PVTZ
  Basis Set:
  @DF-RHF Final Energy:  -388.42569836207554
    Total Energy =                       -388.4256983620758774
  Basis Set: CC-PVTZ
  Basis Set:
  Charge       = 0
  Multiplicity = 1
  Basis Set: CC-PVTZ
  Basis Set:

    Orbital Energies (a.u.)
    -----------------------

    Doubly Occupied:

       1A    -20.545209     2A    -11.263697     3A    -11.217648
       4A    -11.216486     5A    -11.215434     6A    -11.214646
       7A    -11.213822     8A    -11.212812     9A    -11.207803
      10A     -1.362852    11A     -1.097091    12A     -1.062263
      13A     -1.012139    14A     -0.948382    15A     -0.894337
      16A     -0.827745    17A     -0.798713    18A     -0.773906
      19A     -0.695454    20A     -0.649138    21A     -0.646401
      22A     -0.612022    23A     -0.602618    24A     -0.586684
      25A     -0.573845    26A     -0.566233    27A     -0.544566
      28A     -0.526244    29A     -0.512188    30A     -0.498516
      31A     -0.486321    32A     -0.472745    33A     -0.466703
      34A     -0.462034    35A     -0.453659    36A     -0.441910
      37A     -0.425782

  @DF-RHF Final Energy:  -388.42569871144815

   => Energetics <=

    Nuclear Repulsion Energy =            463.7336810864468362
    One-Electron Energy =               -1445.7026627949685462
    Two-Electron Energy =                 593.5432829970739022
    DFT Exchange-Correlation Energy =       0.0000000000000000
    Empirical Dispersion Energy =           0.0000000000000000
    PCM Polarization Energy =               0.0000000000000000
    EFP Energy =                            0.0000000000000000
    Total Energy =                       -388.4256987114478079
    Molecular point group: c1
  Basis Set: CC-PVTZ
  Basis Set:

  -Total Gradient:
     Atom            X                  Y                   Z
    ------   -----------------  -----------------  -----------------
       1        0.000000464074     0.000006260101     0.000011978753
       2       -0.000029782184    -0.000016570290     0.000006610788
       3        0.000060317445    -0.000010755975    -0.000024388077
       4       -0.000321784990    -0.001072640020    -0.000164721702
       5       -0.000003494825    -0.000005067740    -0.000008958258
       6        0.000000572806     0.000002836152     0.000012727434
       7       -0.000198335759    -0.000982914292    -0.000199168719
       8        0.000289334047     0.001192608086     0.000224406782
       9        0.000021726136    -0.000005560394    -0.000010837229
      10        0.000178154433     0.000878688413     0.000172697216
      11       -0.000025346088    -0.000009276130    -0.000003373965
      12       -0.000004216032     0.000004802381     0.000007621801
      13        0.000048277702     0.000010572522    -0.000025943232
      14        0.000011360386    -0.000004280054    -0.000010437904
      15        0.000026027760     0.000010997430    -0.000003642472
      16       -0.000069465764    -0.000003682330     0.000022521126
      17       -0.000003215211    -0.000002510453     0.000000224081
      18       -0.000020378797    -0.000012321966     0.000003156874
      19        0.000055940212     0.000015557277    -0.000022015019
      20        0.000020755639     0.000011270210    -0.000008818901
      21        0.000001805927     0.000007571142    -0.000011303400
      22       -0.000045927928    -0.000019478180     0.000018773355
      23       -0.000004328690    -0.000005987405     0.000012651331
      24       -0.000020366061    -0.000005854405     0.000005299074
      25        0.000022144196     0.000000588011    -0.000006593871
      26        0.000004221669     0.000005271998     0.000003058763
      27        0.000005539896     0.000009875915    -0.000001524625

  **** Optimization is complete! (in 14 steps) ****
    Final optimized geometry and variables:
    Molecular point group: c1

    Geometry (in Angstrom), charge = 0, multiplicity = 1:

    H            1.131263482165     2.938420018856    -1.429093255149
    O            1.256959466105     2.846482686548    -2.355240599827
    C            1.594125185234     1.521256977605    -2.671524435098
    C            0.430231654338     0.550792165662    -2.515962556906
    H            1.905495533626     1.534886139158    -3.707330559703
    H            2.451008080433     1.198133521110    -2.087859571724
    C           -0.159768702483     0.433905808616    -1.107430823209
    H           -0.355111113300     0.870751359594    -3.193002610679
    H            0.763494435701    -0.428098064226    -2.852248120592
    C            0.828084912909    -0.010978499915    -0.028063785857
    H           -0.987617349623    -0.263766399612    -1.154662920977
    H           -0.596052125335     1.387474811020    -0.819638141643
    C            0.216255477876    -0.172100529722     1.365995603267
    H            1.291187807015    -0.948992489274    -0.326479305482
    H            1.636291226518     0.710405800399     0.043129344823
    C           -0.761883742893    -1.336242336583     1.513614964393
    H            1.023838599433    -0.309051246677     2.079700017964
    H           -0.281270323495     0.753142945401     1.648224816789
    C           -1.272467956122    -1.508668997737     2.941872951107
    H           -0.273455358144    -2.254863004497     1.195795727548
    H           -1.611572233536    -1.198222996753     0.852467262405
    C           -2.248934994176    -2.670287298539     3.093542376489
    H           -0.428433734803    -1.658797112613     3.609452838563
    H           -1.754615348188    -0.589490695121     3.263631766564
    H           -1.786018318170    -3.609937954892     2.810664714601
    H           -2.590208052890    -2.765516174068     4.117959594650
    H           -3.122836863025    -2.531784716572     2.465638525860

  Mulliken Charges: (a.u.)
   Center  Symbol    Alpha    Beta     Spin     Total
       1     H     0.39194  0.39194  0.00000  0.21613
       2     O     4.20756  4.20756  0.00000 -0.41511
       3     C     2.98422  2.98422  0.00000  0.03156
       4     C     3.09445  3.09445  0.00000 -0.18890
       5     H     0.44505  0.44505  0.00000  0.10989
       6     H     0.46733  0.46733  0.00000  0.06535
       7     C     3.11811  3.11811  0.00000 -0.23623
       8     H     0.44651  0.44651  0.00000  0.10697
       9     H     0.45437  0.45437  0.00000  0.09126
      10     C     3.10587  3.10587  0.00000 -0.21174
      11     H     0.44073  0.44073  0.00000  0.11854
      12     H     0.45066  0.45066  0.00000  0.09869
      13     C     3.09583  3.09583  0.00000 -0.19165
      14     H     0.45123  0.45123  0.00000  0.09755
      15     H     0.44751  0.44751  0.00000  0.10497
      16     C     3.08727  3.08727  0.00000 -0.17454
      17     H     0.44775  0.44775  0.00000  0.10451
      18     H     0.45420  0.45420  0.00000  0.09160
      19     C     3.08443  3.08443  0.00000 -0.16886
      20     H     0.45499  0.45499  0.00000  0.09002
      21     H     0.45330  0.45330  0.00000  0.09339
      22     C     3.14967  3.14967  0.00000 -0.29935
      23     H     0.45403  0.45403  0.00000  0.09193
      24     H     0.45434  0.45434  0.00000  0.09131
      25     H     0.45518  0.45518  0.00000  0.08963
      26     H     0.44819  0.44819  0.00000  0.10362
      27     H     0.45528  0.45528  0.00000  0.08945

   Total alpha = 37.00000, Total beta = 37.00000, Total charge = -0.00000

*** Psi4 exiting successfully. Buy a developer a beer!
