  ==> Input File <==

--------------------------------------------------------------------------
set {
	reference rhf
	basis 6-31G*
}

set_num_threads( 4 )
memory 2 gb

molecule MOL {
0 1

O	 -0.763945	 -4.552030	 -1.056825
C	 -0.233047	 -3.892884	 -1.898317
C	 0.064115	 -2.422296	 -1.663007
C	 0.197782	 -4.489306	 -3.219696
C	 1.321567	 -2.249155	 -0.795840
H	 -0.790082	 -1.991890	 -1.151731
H	 0.190256	 -1.901812	 -2.608106
C	 1.631333	 -0.777471	 -0.511575
H	 1.171582	 -2.793440	 0.129710
H	 2.175766	 -2.705257	 -1.293898
C	 2.915987	 -0.544314	 0.291766
H	 0.791251	 -0.330448	 0.016780
H	 1.713385	 -0.247164	 -1.458089
C	 3.373361	 0.914346	 0.347591
H	 3.708709	 -1.142521	 -0.150311
H	 2.780642	 -0.921148	 1.303579
H	 3.506512	 1.320010	 -0.651625
H	 4.322697	 0.999599	 0.867103
H	 2.660624	 1.545032	 0.868198
H	 -0.387532	 -4.053678	 -4.025239
H	 0.050965	 -5.560329	 -3.207930
H	 1.240357	 -4.261861	 -3.422450

	symmetry c1
}
set optking {
	frozen_dihedral = ("
		12 8 11 15
	")
}

ee = optimize('scf')
oeprop('DIPOLE', 'QUADRUPOLE', 'MULLIKEN_CHARGES')
f=open( 'psi4out.xyz', 'w' )
f.write( "22  " )
f.write( str(ee) + "\n" )
f.write( MOL.save_string_xyz() )
f.close()
--------------------------------------------------------------------------

    Molecular point group: c1
  Charge       = 0
  Multiplicity = 1
  Basis Set: 6-31G*
  Basis Set:
  @DF-RHF Final Energy:  -348.09902024724374
    Total Energy =                       -348.0990202472436295
    Molecular point group: c1
  Basis Set: 6-31G*
  Basis Set:
  Basis Set: 6-31G*
  Basis Set:
  @DF-RHF Final Energy:  -348.09939910594630
    Total Energy =                       -348.0993991059461905
  Basis Set: 6-31G*
  Basis Set:
  Basis Set: 6-31G*
  Basis Set:
  @DF-RHF Final Energy:  -348.09946530553361
    Total Energy =                       -348.0994653055336130
  Basis Set: 6-31G*
  Basis Set:
  Basis Set: 6-31G*
  Basis Set:
  @DF-RHF Final Energy:  -348.09952401662150
    Total Energy =                       -348.0995240166213307
  Basis Set: 6-31G*
  Basis Set:
  @DF-RHF Final Energy:  -348.09954209015280
    Total Energy =                       -348.0995420901527950
  @DF-RHF Final Energy:  -348.09953978197422
    Total Energy =                       -348.0995397819744994
  @DF-RHF Final Energy:  -348.09952669806819
    Total Energy =                       -348.0995266980680185
  Basis Set: 6-31G*
  Basis Set:
  @DF-RHF Final Energy:  -348.09954360999433
    Total Energy =                       -348.0995436099942140
  Basis Set: 6-31G*
  Basis Set:
  Basis Set: 6-31G*
  Basis Set:
  @DF-RHF Final Energy:  -348.09954586649394
    Total Energy =                       -348.0995458664942817
  Basis Set: 6-31G*
  Basis Set:
  Basis Set: 6-31G*
  Basis Set:
  @DF-RHF Final Energy:  -348.09954722470405
    Total Energy =                       -348.0995472247042244
  Basis Set: 6-31G*
  Basis Set:
  Charge       = 0
  Multiplicity = 1
  Basis Set: 6-31G*
  Basis Set:

    Orbital Energies (a.u.)
    -----------------------

    Doubly Occupied:

       1A    -20.547339     2A    -11.324455     3A    -11.230030
       4A    -11.229135     5A    -11.228184     6A    -11.222347
       7A    -11.220428     8A    -11.212813     9A     -1.393098
      10A     -1.095977    11A     -1.045674    12A     -1.000855
      13A     -0.939092    14A     -0.845386    15A     -0.798861
      16A     -0.732443    17A     -0.665849    18A     -0.647053
      19A     -0.630919    20A     -0.608575    21A     -0.591223
      22A     -0.585298    23A     -0.562623    24A     -0.551280
      25A     -0.531696    26A     -0.515231    27A     -0.496773
      28A     -0.485146    29A     -0.475025    30A     -0.469622
      31A     -0.459645    32A     -0.396069

  @DF-RHF Final Energy:  -348.09954743246954

   => Energetics <=

    Nuclear Repulsion Energy =            368.5403348343858170
    One-Electron Energy =               -1201.8034796964120687
    Two-Electron Energy =                 485.1635974295570577
    DFT Exchange-Correlation Energy =       0.0000000000000000
    Empirical Dispersion Energy =           0.0000000000000000
    PCM Polarization Energy =               0.0000000000000000
    EFP Energy =                            0.0000000000000000
    Total Energy =                       -348.0995474324691941
    Molecular point group: c1
  Basis Set: 6-31G*
  Basis Set:

  -Total Gradient:
     Atom            X                  Y                   Z
    ------   -----------------  -----------------  -----------------
       1        0.000013261307     0.000001869441     0.000009276201
       2        0.000012251026    -0.000012168671    -0.000006476891
       3        0.000002901372     0.000007312715    -0.000000053252
       4       -0.000032992042     0.000002352298    -0.000006248709
       5       -0.000007295511     0.000005359773     0.000016831524
       6       -0.000009793890     0.000003760069    -0.000007329295
       7        0.000004244537    -0.000000759775     0.000002697886
       8        0.000296530200     0.001648934350    -0.000836402452
       9       -0.000005183973    -0.000002732192    -0.000004817348
      10        0.000003093886     0.000004810938     0.000002286389
      11        0.000558080558     0.001427577921    -0.001144343890
      12       -0.000336697045    -0.001639826649     0.000876185202
      13       -0.000003522586     0.000006324608    -0.000002119058
      14       -0.000007276458    -0.000003002996     0.000004994509
      15       -0.000511796508    -0.001453986030     0.001086458142
      16        0.000006882497     0.000004020600     0.000004570834
      17        0.000001875802    -0.000004174375    -0.000000182003
      18       -0.000002409841    -0.000003667210     0.000002508856
      19        0.000003007529     0.000005443334    -0.000001885925
      20        0.000008572282     0.000003222638    -0.000001212914
      21        0.000000158525     0.000000449562     0.000000013207
      22        0.000006108336    -0.000001120353     0.000005248988

  **** Optimization is complete! (in 11 steps) ****
    Final optimized geometry and variables:
    Molecular point group: c1

    Geometry (in Angstrom), charge = 0, multiplicity = 1:

    O           -1.815092841938    -2.306396794894     0.043355519188
    C           -1.307174954365    -1.647233421828    -0.812049423312
    C           -1.019009558791    -0.172589606769    -0.591470949453
    C           -0.903768952749    -2.245566498375    -2.141428388265
    C            0.272386198452     0.018960865678     0.219459777889
    H           -1.856231921729     0.247930628599    -0.045353899163
    H           -0.939470501661     0.347011929315    -1.542260335462
    C            0.586165970756     1.492262477801     0.487008848112
    H            0.171365130461    -0.513852067991     1.160196273250
    H            1.108180338842    -0.436259737864    -0.308732870448
    C            1.845852712766     1.687809800689     1.334197326775
    H           -0.262227743351     1.941789805432     0.999121231349
    H            0.695827717647     2.016924284268    -0.460276703468
    C            2.275317864861     3.149732620250     1.443124226633
    H            2.658005758586     1.093436580842     0.920952836045
    H            1.665996901534     1.289769263512     2.330454002466
    H            2.512291296397     3.562884684677     0.466804631608
    H            3.155380482896     3.255114179945     2.069680839750
    H            1.486470255435     3.758304924384     1.876192160799
    H           -1.515256415718    -1.821019730508    -2.933290902717
    H           -1.038037071763    -3.318074476633    -2.120363564740
    H            0.130343290381    -2.007539101765    -2.373002497188

  Mulliken Charges: (a.u.)
   Center  Symbol    Alpha    Beta     Spin     Total
       1     O     4.26223  4.26223  0.00000 -0.52445
       2     C     2.73714  2.73714  0.00000  0.52571
       3     C     3.19995  3.19995  0.00000 -0.39989
       4     C     3.28956  3.28956  0.00000 -0.57912
       5     C     3.16256  3.16256  0.00000 -0.32512
       6     H     0.40117  0.40117  0.00000  0.19766
       7     H     0.41690  0.41690  0.00000  0.16620
       8     C     3.15074  3.15074  0.00000 -0.30148
       9     H     0.40612  0.40612  0.00000  0.18776
      10     H     0.42078  0.42078  0.00000  0.15843
      11     C     3.15287  3.15287  0.00000 -0.30574
      12     H     0.42012  0.42012  0.00000  0.15977
      13     H     0.42338  0.42338  0.00000  0.15323
      14     C     3.23969  3.23969  0.00000 -0.47938
      15     H     0.42259  0.42259  0.00000  0.15482
      16     H     0.42007  0.42007  0.00000  0.15986
      17     H     0.42167  0.42167  0.00000  0.15666
      18     H     0.41800  0.41800  0.00000  0.16401
      19     H     0.42075  0.42075  0.00000  0.15850
      20     H     0.40683  0.40683  0.00000  0.18633
      21     H     0.39706  0.39706  0.00000  0.20587
      22     H     0.40981  0.40981  0.00000  0.18038

   Total alpha = 32.00000, Total beta = 32.00000, Total charge =  0.00000
