                              Psi4 1.0.54 Driver

  ==> Input File <==

--------------------------------------------------------------------------
set {
	reference rhf
	basis cc-pvtz
}

set_num_threads( 4 )
memory 2 gb

molecule MOL {
0 1

O	 2.868453	 1.353349	 -0.000734
C	 2.841259	 0.166180	 -0.000295
C	 1.542794	 -0.614730	 -0.000853
C	 4.113372	 -0.651103	 0.000743
C	 0.288398	 0.247429	 0.000314
H	 1.557171	 -1.273139	 -0.866508
H	 1.557484	 -1.274998	 0.863344
C	 0.359882	 1.385762	 1.014316
H	 -0.572438	 -0.377739	 0.208261
H	 0.132314	 0.649250	 -0.994327
C	 -0.892160	 2.257879	 1.025761
H	 0.518943	 0.975482	 2.009125
H	 1.226644	 2.007374	 0.800812
C	 -0.828563	 3.398429	 2.037609
H	 -1.759086	 1.637445	 1.239335
H	 -1.051564	 2.669089	 0.031968
C	 -2.083224	 4.265369	 2.043217
H	 -0.670430	 2.988255	 3.031435
H	 0.036977	 4.019861	 1.824114
H	 -2.962723	 3.679119	 2.287825
H	 -2.005724	 5.064424	 2.771590
H	 -2.249944	 4.718548	 1.071683
H	 4.145311	 -1.294584	 -0.871587
H	 4.970080	 0.004978	 -0.000091
H	 4.145223	 -1.291980	 0.874988

	symmetry c1
}
set optking {
	frozen_dihedral = ("
		9 5 3 6
	")
}

ee,wfn = optimize('scf', return_wfn=True)
oeprop( wfn, 'DIPOLE', 'QUADRUPOLE', 'MULLIKEN_CHARGES')
f=open( 'psi4out.xyz', 'w' )
f.write( "25  " )
f.write( str(ee) + "\n" )
f.write( MOL.save_string_xyz() )
f.close()
--------------------------------------------------------------------------

    Molecular point group: c1
  Charge       = 0
  Multiplicity = 1
  Basis Set: CC-PVTZ
  Basis Set:
  @DF-RHF Final Energy:  -387.26228037724735
    Total Energy =                       -387.2622803772467250
    Molecular point group: c1
  Basis Set: CC-PVTZ
  Basis Set:
  Basis Set: CC-PVTZ
  Basis Set:
  @DF-RHF Final Energy:  -387.26922448106410
    Total Energy =                       -387.2692244810646116
  Basis Set: CC-PVTZ
  Basis Set:
  Basis Set: CC-PVTZ
  Basis Set:
  @DF-RHF Final Energy:  -387.27044342746876
    Total Energy =                       -387.2704434274687628
  Basis Set: CC-PVTZ
  Basis Set:
  Basis Set: CC-PVTZ
  Basis Set:
  @DF-RHF Final Energy:  -387.26963263326621
    Total Energy =                       -387.2696326332663830
  Basis Set: CC-PVTZ
  Basis Set:
  @DF-RHF Final Energy:  -387.27140129724836
    Total Energy =                       -387.2714012972479622
  @DF-RHF Final Energy:  -387.27153974780350
    Total Energy =                       -387.2715397478038994
  @DF-RHF Final Energy:  -387.27189686087468
    Total Energy =                       -387.2718968608749037
  Basis Set: CC-PVTZ
  Basis Set:
  @DF-RHF Final Energy:  -387.27192580665968
    Total Energy =                       -387.2719258066590555
  Basis Set: CC-PVTZ
  Basis Set:
  Basis Set: CC-PVTZ
  Basis Set:
  @DF-RHF Final Energy:  -387.27193222788105
    Total Energy =                       -387.2719322278812797
  Basis Set: CC-PVTZ
  Basis Set:
  Basis Set: CC-PVTZ
  Basis Set:
  @DF-RHF Final Energy:  -387.27193343153516
    Total Energy =                       -387.2719334315356718
  Basis Set: CC-PVTZ
  Basis Set:
  Charge       = 0
  Multiplicity = 1
  Basis Set: CC-PVTZ
  Basis Set:

    Orbital Energies (a.u.)
    -----------------------

    Doubly Occupied:

       1A    -20.537596     2A    -11.321213     3A    -11.231042
       4A    -11.227242     5A    -11.218610     6A    -11.210228
       7A    -11.208788     8A    -11.208089     9A    -11.204098
      10A     -1.398660    11A     -1.092428    12A     -1.055923
      13A     -1.014448    14A     -0.968841    15A     -0.890263
      16A     -0.816489    17A     -0.788743    18A     -0.726194
      19A     -0.669154    20A     -0.639327    21A     -0.634182
      22A     -0.624549    23A     -0.597190    24A     -0.585497
      25A     -0.570087    26A     -0.559974    27A     -0.535885
      28A     -0.529265    29A     -0.516759    30A     -0.496850
      31A     -0.484667    32A     -0.476052    33A     -0.461091
      34A     -0.459654    35A     -0.441417    36A     -0.399760

  @DF-RHF Final Energy:  -387.27193366018247

   => Energetics <=

    Nuclear Repulsion Energy =            450.0568090916169126
    One-Electron Energy =               -1417.0569804291474156
    Two-Electron Energy =                 579.7282376773479200
    DFT Exchange-Correlation Energy =       0.0000000000000000
    Empirical Dispersion Energy =           0.0000000000000000
    PCM Polarization Energy =               0.0000000000000000
    EFP Energy =                            0.0000000000000000
    Total Energy =                       -387.2719336601825262
    Molecular point group: c1
  Basis Set: CC-PVTZ
  Basis Set:

  -Total Gradient:
     Atom            X                  Y                   Z
    ------   -----------------  -----------------  -----------------
       1        0.000031634725     0.000014159558    -0.000059681427
       2       -0.000007689074    -0.000022638102     0.000030314852
       3       -0.003337493157    -0.004339624062     0.004340052774
       4       -0.000002007403     0.000005488830     0.000007321131
       5       -0.000108047848     0.000054978481    -0.006841353365
       6        0.002805174204     0.003624799296    -0.002650809926
       7       -0.000002010305     0.000012204282     0.000005506474
       8       -0.000021783964     0.000003732394     0.000004498580
       9        0.000633842292     0.000656262041     0.005155896624
      10        0.000007721792    -0.000006110970    -0.000003646657
      11       -0.000006273626    -0.000005236644     0.000000835214
      12       -0.000002688565     0.000001928243     0.000003220356
      13        0.000003026535     0.000003147189     0.000003199836
      14        0.000002313744     0.000000295530    -0.000002114401
      15        0.000000699747    -0.000000830478     0.000000186085
      16        0.000002684026    -0.000000710124    -0.000003122816
      17        0.000001041962     0.000001081102     0.000003202027
      18       -0.000000884726     0.000000024498     0.000001989547
      19       -0.000001473570     0.000000898159     0.000000424239
      20        0.000000212420    -0.000000663592     0.000000237627
      21       -0.000001406504     0.000000931802     0.000000698241
      22        0.000001161148     0.000000518556    -0.000001307541
      23        0.000004769925    -0.000000783559    -0.000014857258
      24        0.000001594512     0.000006967978     0.000009700811
      25       -0.000004118293    -0.000010820410     0.000009608971

  **** Optimization is complete! (in 11 steps) ****
    Final optimized geometry and variables:
    Molecular point group: c1

    Geometry (in Angstrom), charge = 0, multiplicity = 1:

    O            2.088004604710    -0.165599721477    -1.391608560766
    C            1.946331653262    -1.219463204499    -0.862213378794
    C            0.586379862080    -1.884052154776    -0.740005790098
    C            3.124120352519    -1.996960738291    -0.324104163707
    C           -0.608914888597    -0.931448623351    -0.714123757176
    H            0.537035249109    -2.503186924005    -1.634632260287
    H            0.578537998887    -2.551396842678     0.114105119680
    C           -0.544866429360     0.131155464696     0.384793944962
    H           -1.495789079774    -1.529855814230    -0.527013133781
    H           -0.721277212393    -0.455565101248    -1.679765212902
    C           -1.809703038396     0.982602898416     0.452085219722
    H           -0.394616814240    -0.358582644235     1.345752074874
    H            0.310193460022     0.775046318826     0.224133450721
    C           -1.762659591712     2.050600426560     1.541087517281
    H           -2.672058473329     0.340617171223     0.618086968305
    H           -1.968302411888     1.461862501055    -0.510985027043
    C           -3.027049816290     2.901143894482     1.601964630016
    H           -1.603251761909     1.573984277712     2.504748366027
    H           -0.903538335894     2.694073194172     1.374151574027
    H           -3.901159242704     2.289981859959     1.801619206782
    H           -2.960950113245     3.648431909468     2.384474483253
    H           -3.195227129261     3.419233324358     0.663677281376
    H            3.104707890630    -3.018824760616    -0.686578543296
    H            4.047250057957    -1.518722497241    -0.613468871325
    H            3.061319574260    -2.038715275728     0.758523090081

  Mulliken Charges: (a.u.)
   Center  Symbol    Alpha    Beta     Spin     Total
       1     O     4.17682  4.17682  0.00000 -0.35364
       2     C     2.85448  2.85448  0.00000  0.29103
       3     C     3.12514  3.12514  0.00000 -0.25027
       4     C     3.15224  3.15224  0.00000 -0.30448
       5     C     3.08695  3.08695  0.00000 -0.17390
       6     H     0.43644  0.43644  0.00000  0.12712
       7     H     0.44147  0.44147  0.00000  0.11707
       8     C     3.09694  3.09694  0.00000 -0.19389
       9     H     0.44852  0.44852  0.00000  0.10296
      10     H     0.44541  0.44541  0.00000  0.10919
      11     C     3.08819  3.08819  0.00000 -0.17638
      12     H     0.45946  0.45946  0.00000  0.08108
      13     H     0.43908  0.43908  0.00000  0.12184
      14     C     3.08327  3.08327  0.00000 -0.16654
      15     H     0.45662  0.45662  0.00000  0.08675
      16     H     0.45342  0.45342  0.00000  0.09317
      17     C     3.15082  3.15082  0.00000 -0.30164
      18     H     0.45623  0.45623  0.00000  0.08753
      19     H     0.45279  0.45279  0.00000  0.09441
      20     H     0.45606  0.45606  0.00000  0.08788
      21     H     0.44874  0.44874  0.00000  0.10252
      22     H     0.45464  0.45464  0.00000  0.09072
      23     H     0.45030  0.45030  0.00000  0.09939
      24     H     0.43628  0.43628  0.00000  0.12745
      25     H     0.44969  0.44969  0.00000  0.10061

   Total alpha = 36.00000, Total beta = 36.00000, Total charge = -0.00000

*** Psi4 exiting successfully. Buy a developer a beer!
