                              Psi4 1.0.54 Driver

  ==> Input File <==

--------------------------------------------------------------------------
set {
	reference rhf
	basis cc-pvtz
}

set_num_threads( 4 )
memory 2 gb

molecule MOL {
0 1

H	 1.440351	 1.019655	 -0.719055
C	 0.848385	 0.440008	 0.000011
C	 -0.623497	 0.751021	 0.000090
O	 1.374627	 -0.355517	 0.698189
C	 -1.523725	 -0.474323	 -0.000013
H	 -0.813143	 1.382932	 -0.864897
H	 -0.813071	 1.382716	 0.865253
H	 -1.342980	 -1.087348	 -0.873016
H	 -2.565269	 -0.177464	 0.000070
H	 -1.342898	 -1.087564	 0.872820

	symmetry c1
}
set optking {
	frozen_dihedral = ("
		4 2 3 6
	")
}

ee,wfn = optimize('scf', return_wfn=True)
oeprop( wfn, 'DIPOLE', 'QUADRUPOLE', 'MULLIKEN_CHARGES')
f=open( 'psi4out.xyz', 'w' )
f.write( "10  " )
f.write( str(ee) + "\n" )
f.write( MOL.save_string_xyz() )
f.close()
--------------------------------------------------------------------------

    Molecular point group: c1
  Charge       = 0
  Multiplicity = 1
  Basis Set: CC-PVTZ
  Basis Set:
  @DF-RHF Final Energy:  -192.02149303505780
    Total Energy =                       -192.0214930350577447
    Molecular point group: c1
  Basis Set: CC-PVTZ
  Basis Set:
  Basis Set: CC-PVTZ
  Basis Set:
  @DF-RHF Final Energy:  -192.02060946857998
    Total Energy =                       -192.0206094685799485
  Basis Set: CC-PVTZ
  Basis Set:
  Basis Set: CC-PVTZ
  Basis Set:
  @DF-RHF Final Energy:  -192.02136352386481
    Total Energy =                       -192.0213635238648351
  Basis Set: CC-PVTZ
  Basis Set:
  Basis Set: CC-PVTZ
  Basis Set:
  @DF-RHF Final Energy:  -192.02201604187150
    Total Energy =                       -192.0220160418714670
  Basis Set: CC-PVTZ
  Basis Set:
  Basis Set: CC-PVTZ
  Basis Set:
  @DF-RHF Final Energy:  -192.02202128595150
    Total Energy =                       -192.0220212859514675
  Basis Set: CC-PVTZ
  Basis Set:
  Charge       = 0
  Multiplicity = 1
  Basis Set: CC-PVTZ
  Basis Set:

    Orbital Energies (a.u.)
    -----------------------

    Doubly Occupied:

       1A    -20.553379     2A    -11.323704     3A    -11.238392
       4A    -11.222336     5A     -1.409122     6A     -1.060846
       7A     -0.908529     8A     -0.780131     9A     -0.686388
      10A     -0.640825    11A     -0.618699    12A     -0.560759
      13A     -0.537324    14A     -0.515452    15A     -0.493585
      16A     -0.414888

  @DF-RHF Final Energy:  -192.02202193080359

   => Energetics <=

    Nuclear Repulsion Energy =            118.9753010038343177
    One-Electron Energy =                -496.0659316345895604
    Two-Electron Energy =                 185.0686086999516533
    DFT Exchange-Correlation Energy =       0.0000000000000000
    Empirical Dispersion Energy =           0.0000000000000000
    PCM Polarization Energy =               0.0000000000000000
    EFP Energy =                            0.0000000000000000
    Total Energy =                       -192.0220219308035894
    Molecular point group: c1
  Basis Set: CC-PVTZ
  Basis Set:

  -Total Gradient:
     Atom            X                  Y                   Z
    ------   -----------------  -----------------  -----------------
       1       -0.000010894384     0.000010694748     0.000000365614
       2        0.000171812706    -0.001691926184    -0.001923553223
       3        0.000018797812    -0.001480909838    -0.000890426990
       4       -0.000118809640     0.001459372059     0.001544763030
       5        0.000005058362     0.000047345303    -0.000007914475
       6       -0.000056517041     0.001635496564     0.001250581759
       7       -0.000000705231     0.000037436943     0.000023984378
       8       -0.000006215537    -0.000009936373    -0.000001771679
       9       -0.000005771136    -0.000006669366    -0.000001325379
      10        0.000003244091    -0.000000903856     0.000005296966

  **** Optimization is complete! (in 6 steps) ****
    Final optimized geometry and variables:
    Molecular point group: c1

    Geometry (in Angstrom), charge = 0, multiplicity = 1:

    H            1.335033732761     1.258458870895    -0.676337028337
    C            0.770471065195     0.523822361820    -0.090323776061
    C           -0.733157584176     0.570888276561    -0.232205241566
    O            1.340778430783    -0.218774258429     0.631607576748
    C           -1.373969614353    -0.809577692311    -0.335998828810
    H           -0.994715466619     1.202462162790    -1.073400559039
    H           -1.098559174759     1.082428838934     0.655340121111
    H           -1.050420624124    -1.323203364409    -1.233739309939
    H           -2.452798284195    -0.724071469646    -0.369146876726
    H           -1.102331269909    -1.418997937663     0.514191314589

  Mulliken Charges: (a.u.)
   Center  Symbol    Alpha    Beta     Spin     Total
       1     H     0.45513  0.45513  0.00000  0.08975
       2     C     2.91278  2.91278  0.00000  0.17444
       3     C     3.08403  3.08403  0.00000 -0.16806
       4     O     4.16715  4.16715  0.00000 -0.33430
       5     C     3.14253  3.14253  0.00000 -0.28506
       6     H     0.44879  0.44879  0.00000  0.10242
       7     H     0.44619  0.44619  0.00000  0.10761
       8     H     0.45312  0.45312  0.00000  0.09376
       9     H     0.44878  0.44878  0.00000  0.10245
      10     H     0.44150  0.44150  0.00000  0.11700

   Total alpha = 16.00000, Total beta = 16.00000, Total charge =  0.00000

*** Psi4 exiting successfully. Buy a developer a beer!
