  ==> Input File <==

--------------------------------------------------------------------------
set {
	reference rhf
	basis cc-pvtz
}

set_num_threads( 4 )
memory 2 gb

molecule MOL {
0 1

H	 -2.486665	 0.281495	 0.795193
O	 -2.313989	 -0.142475	 -0.025864
C	 -0.943808	 -0.065018	 -0.330000
H	 -0.812293	 -0.225641	 -1.398673
C	 -0.231030	 -1.182113	 0.407592
C	 -0.353797	 1.300461	 0.050970
H	 -0.312800	 -0.992012	 1.473041
H	 -0.738841	 -2.119564	 0.220514
C	 1.246176	 -1.268044	 -0.015480
H	 -0.539537	 2.008579	 -0.751815
H	 -0.889989	 1.662858	 0.920677
C	 1.153605	 1.231851	 0.356834
H	 1.823096	 -1.684665	 0.802361
H	 1.352335	 -1.958223	 -0.845114
C	 1.826409	 0.100723	 -0.416008
H	 1.622968	 2.181508	 0.128734
H	 1.301983	 1.066493	 1.419367
H	 2.897299	 0.112407	 -0.249665
H	 1.683458	 0.265621	 -1.480024

	symmetry c1
}
set optking {
	frozen_dihedral = ("
		1 2 3 4
	")
}

ee = optimize('scf')
oeprop('DIPOLE', 'QUADRUPOLE', 'MULLIKEN_CHARGES')
f=open( 'psi4out.xyz', 'w' )
f.write( "19  " )
f.write( str(ee) + "\n" )
f.write( MOL.save_string_xyz() )
f.close()
--------------------------------------------------------------------------

    Molecular point group: c1
  Charge       = 0
  Multiplicity = 1
  Basis Set: CC-PVTZ
  Basis Set:
  @DF-RHF Final Energy:  -309.16120863722449
    Total Energy =                       -309.1612086372244335
    Molecular point group: c1
  Basis Set: CC-PVTZ
  Basis Set:
  Basis Set: CC-PVTZ
  Basis Set:
  @DF-RHF Final Energy:  -309.16260014012801
    Total Energy =                       -309.1626001401281201
  Basis Set: CC-PVTZ
  Basis Set:
  Basis Set: CC-PVTZ
  Basis Set:
  @DF-RHF Final Energy:  -309.16285556552583
    Total Energy =                       -309.1628555655258879
  Basis Set: CC-PVTZ
  Basis Set:
  Basis Set: CC-PVTZ
  Basis Set:
  @DF-RHF Final Energy:  -309.16285970495181
    Total Energy =                       -309.1628597049518703
  Basis Set: CC-PVTZ
  Basis Set:
  Charge       = 0
  Multiplicity = 1
  Basis Set: CC-PVTZ
  Basis Set:

    Orbital Energies (a.u.)
    -----------------------

    Doubly Occupied:

       1A    -20.542362     2A    -11.267339     3A    -11.217520
       4A    -11.216411     5A    -11.215573     6A    -11.214996
       7A    -11.208987     8A     -1.362992     9A     -1.111655
      10A     -1.005433    11A     -0.989833    12A     -0.846668
      13A     -0.843053    14A     -0.752653    15A     -0.675318
      16A     -0.664998    17A     -0.615446    18A     -0.605963
      19A     -0.580363    20A     -0.562117    21A     -0.531771
      22A     -0.521620    23A     -0.502619    24A     -0.491689
      25A     -0.468199    26A     -0.450853    27A     -0.431559
      28A     -0.409867

  @DF-RHF Final Energy:  -309.16286016081773

   => Energetics <=

    Nuclear Repulsion Energy =            331.8365089894957123
    One-Electron Energy =               -1077.3830257888798769
    Two-Electron Energy =                 436.3836566385666060
    DFT Exchange-Correlation Energy =       0.0000000000000000
    Empirical Dispersion Energy =           0.0000000000000000
    PCM Polarization Energy =               0.0000000000000000
    EFP Energy =                            0.0000000000000000
    Total Energy =                       -309.1628601608175018
    Molecular point group: c1
  Basis Set: CC-PVTZ
  Basis Set:

  -Total Gradient:
     Atom            X                  Y                   Z
    ------   -----------------  -----------------  -----------------
       1       -0.000110307010     0.001230674692    -0.000670529790
       2        0.000138099752    -0.001322861312     0.000777824431
       3        0.000042725264    -0.001102120640     0.000083470191
       4       -0.000047579092     0.001158153957    -0.000161525224
       5       -0.000027823111    -0.000004840251    -0.000027581889
       6        0.000041386129    -0.000004940225     0.000014821320
       7        0.000004004725    -0.000003695921    -0.000016160556
       8        0.000003515977    -0.000012372302     0.000007834049
       9       -0.000021931097    -0.000012435927     0.000046225238
      10        0.000012022031     0.000023126498    -0.000005253169
      11        0.000013344001    -0.000001752024    -0.000006539648
      12       -0.000014914115     0.000033468582    -0.000025001612
      13        0.000010168135    -0.000022238945     0.000000315041
      14       -0.000011979632     0.000003739718     0.000001428332
      15       -0.000014914459     0.000022440212    -0.000029726220
      16       -0.000000643948     0.000013705781     0.000014162398
      17       -0.000010161212     0.000000115613     0.000000734743
      18       -0.000014377473    -0.000005629078     0.000003116651
      19        0.000009365135     0.000007461568    -0.000007614284

  **** Optimization is complete! (in 5 steps) ****
    Final optimized geometry and variables:
    Molecular point group: c1

    Geometry (in Angstrom), charge = 0, multiplicity = 1:

    H           -2.555160856655     0.300741634676     0.706045170580
    O           -2.335563009290    -0.110526225713    -0.110030358271
    C           -0.946181334898    -0.068394039954    -0.313428821092
    H           -0.822218950847    -0.215171071760    -1.379944887265
    C           -0.222354596797    -1.189487411619     0.416698895244
    C           -0.355651758346     1.295736281639     0.066467153510
    H           -0.290878286445    -1.008726173264     1.487004003047
    H           -0.729563627459    -2.127147648938     0.228676931085
    C            1.253078694932    -1.270335595423    -0.016767075303
    H           -0.567923335786     2.005774258139    -0.724606149702
    H           -0.868029982415     1.662879551044     0.952511025469
    C            1.156967549627     1.230375930075     0.347335354690
    H            1.841481037347    -1.676368192015     0.798317403733
    H            1.355247110007    -1.966333759146    -0.841848396207
    C            1.819331229012     0.099088493805    -0.434209603140
    H            1.619396968020     2.180873634061     0.109226468036
    H            1.325863083699     1.067331778870     1.407414000493
    H            2.893002670739     0.116164191866    -0.287844810870
    H            1.655632694159     0.259345398293    -1.495681730121

  Mulliken Charges: (a.u.)
   Center  Symbol    Alpha    Beta     Spin     Total
       1     H     0.39555  0.39555  0.00000  0.20890
       2     O     4.20718  4.20718  0.00000 -0.41436
       3     C     2.93416  2.93416  0.00000  0.13168
       4     H     0.44336  0.44336  0.00000  0.11328
       5     C     3.10110  3.10110  0.00000 -0.20220
       6     C     3.11533  3.11533  0.00000 -0.23066
       7     H     0.46118  0.46118  0.00000  0.07764
       8     H     0.44024  0.44024  0.00000  0.11953
       9     C     3.11289  3.11289  0.00000 -0.22578
      10     H     0.44438  0.44438  0.00000  0.11123
      11     H     0.45720  0.45720  0.00000  0.08560
      12     C     3.09995  3.09995  0.00000 -0.19990
      13     H     0.44766  0.44766  0.00000  0.10468
      14     H     0.44623  0.44623  0.00000  0.10755
      15     C     3.10239  3.10239  0.00000 -0.20479
      16     H     0.44162  0.44162  0.00000  0.11676
      17     H     0.45397  0.45397  0.00000  0.09206
      18     H     0.44261  0.44261  0.00000  0.11477
      19     H     0.45300  0.45300  0.00000  0.09401

   Total alpha = 28.00000, Total beta = 28.00000, Total charge = -0.00000
