                              Psi4 1.0.54 Driver

  ==> Input File <==

--------------------------------------------------------------------------
set {
	reference rhf
	basis cc-pvtz
}

set_num_threads( 4 )
memory 2 gb

molecule MOL {
0 1

H	 -2.166668	 0.868556	 -2.223440
N	 -1.196485	 0.785787	 -2.006728
C	 -0.786763	 -0.606052	 -1.974245
H	 -1.049818	 1.206001	 -1.113472
C	 0.681907	 -0.718421	 -1.635083
H	 -1.350735	 -1.207288	 -1.262209
H	 -0.941314	 -1.036468	 -2.957559
O	 0.881195	 -0.248324	 -0.336237
H	 1.000002	 -1.757369	 -1.709753
H	 1.265824	 -0.131569	 -2.340472
C	 2.208068	 -0.234417	 0.074171
H	 2.725499	 -1.027054	 -0.446768
H	 2.688377	 0.712084	 -0.164856
H	 2.295137	 -0.403407	 1.144883

	symmetry c1
}
set optking {
	frozen_dihedral = ("
		5 8 11 13
	")
}

ee,wfn = optimize('scf', return_wfn=True)
oeprop( wfn, 'DIPOLE', 'QUADRUPOLE', 'MULLIKEN_CHARGES')
f=open( 'psi4out.xyz', 'w' )
f.write( "14  " )
f.write( str(ee) + "\n" )
f.write( MOL.save_string_xyz() )
f.close()
--------------------------------------------------------------------------

    Molecular point group: c1
  Charge       = 0
  Multiplicity = 1
  Basis Set: CC-PVTZ
  Basis Set:
  @DF-RHF Final Energy:  -248.22337738742610
    Total Energy =                       -248.2233773874261260
    Molecular point group: c1
  Basis Set: CC-PVTZ
  Basis Set:
  Basis Set: CC-PVTZ
  Basis Set:
  @DF-RHF Final Energy:  -248.22424402673448
    Total Energy =                       -248.2242440267345387
  Basis Set: CC-PVTZ
  Basis Set:
  Basis Set: CC-PVTZ
  Basis Set:
  @DF-RHF Final Energy:  -248.22447878516090
    Total Energy =                       -248.2244787851609544
  Basis Set: CC-PVTZ
  Basis Set:
  Charge       = 0
  Multiplicity = 1
  Basis Set: CC-PVTZ
  Basis Set:

    Orbital Energies (a.u.)
    -----------------------

    Doubly Occupied:

       1A    -20.549083     2A    -15.523400     3A    -11.264127
       4A    -11.263324     5A    -11.239636     6A     -1.382284
       7A     -1.175837     8A     -1.000550     9A     -0.907698
      10A     -0.815460    11A     -0.685151    12A     -0.674751
      13A     -0.645522    14A     -0.612562    15A     -0.607014
      16A     -0.541493    17A     -0.533493    18A     -0.497276
      19A     -0.474180    20A     -0.417347    21A     -0.383770

  @DF-RHF Final Energy:  -248.22447994913705

   => Energetics <=

    Nuclear Repulsion Energy =            194.5447825537031008
    One-Electron Energy =                -723.1506121613253981
    Two-Electron Energy =                 280.3813496584854192
    DFT Exchange-Correlation Energy =       0.0000000000000000
    Empirical Dispersion Energy =           0.0000000000000000
    PCM Polarization Energy =               0.0000000000000000
    EFP Energy =                            0.0000000000000000
    Total Energy =                       -248.2244799491369349
    Molecular point group: c1
  Basis Set: CC-PVTZ
  Basis Set:

  -Total Gradient:
     Atom            X                  Y                   Z
    ------   -----------------  -----------------  -----------------
       1       -0.000000882562    -0.000002696331    -0.000000507447
       2       -0.000000284420    -0.000001543045    -0.000015059656
       3       -0.000013598234     0.000012824496     0.000065187009
       4        0.000006846908    -0.000009449022    -0.000003352286
       5       -0.000178084949    -0.002077883098     0.000736456586
       6       -0.000019047880    -0.000006870749    -0.000001854004
       7        0.000018625809     0.000001295811     0.000007031019
       8        0.000182612213     0.003366477147    -0.000418704096
       9        0.000004198766     0.000008705973     0.000037787946
      10        0.000008894825    -0.000004983490     0.000006855886
      11        0.000842509476    -0.002361389261    -0.002928400758
      12        0.000039101938    -0.000004762256    -0.000004460333
      13       -0.000901461357     0.001058245932     0.002499571758
      14        0.000010569467     0.000022027892     0.000019448380

  **** Optimization is complete! (in 4 steps) ****
    Final optimized geometry and variables:
    Molecular point group: c1

    Geometry (in Angstrom), charge = 0, multiplicity = 1:

    H           -2.531020512926     1.037057276401    -1.079008706861
    N           -1.561114954475     0.962389813668    -0.858210313526
    C           -1.140492041938    -0.426033766146    -0.820934323877
    H           -1.421713003537     1.385333564668     0.034905381312
    C            0.328367441634    -0.526367374465    -0.479110664844
    H           -1.700637513075    -1.029409472354    -0.107604378469
    H           -1.290148920388    -0.860942807217    -1.803083511926
    O            0.518762007415    -0.053244229689     0.820767629066
    H            0.654305865512    -1.562571844781    -0.549044774335
    H            0.907096080985     0.062768196793    -1.186908958540
    C            1.841422949178    -0.017103877799     1.252085899965
    H            2.431537262281    -0.817367453313     0.815592047337
    H            2.304705547929     0.937206109839     1.016713394398
    H            1.847744561403    -0.135100010072     2.327576971093

  Mulliken Charges: (a.u.)
   Center  Symbol    Alpha    Beta     Spin     Total
       1     H     0.43028  0.43028  0.00000  0.13944
       2     N     3.69418  3.69418  0.00000 -0.38837
       3     C     3.02327  3.02327  0.00000 -0.04654
       4     H     0.42237  0.42237  0.00000  0.15525
       5     C     2.96812  2.96812  0.00000  0.06377
       6     H     0.46470  0.46470  0.00000  0.07059
       7     H     0.45872  0.45872  0.00000  0.08256
       8     O     4.18209  4.18209  0.00000 -0.36417
       9     H     0.46888  0.46888  0.00000  0.06225
      10     H     0.46974  0.46974  0.00000  0.06052
      11     C     3.03006  3.03006  0.00000 -0.06012
      12     H     0.47223  0.47223  0.00000  0.05554
      13     H     0.46351  0.46351  0.00000  0.07299
      14     H     0.45186  0.45186  0.00000  0.09628

   Total alpha = 21.00000, Total beta = 21.00000, Total charge =  0.00000

*** Psi4 exiting successfully. Buy a developer a beer!
