  ==> Input File <==

--------------------------------------------------------------------------
set {
	reference rhf
	basis 6-31G*
}

set_num_threads( 4 )
memory 2 gb

molecule MOL {
0 1

H	 -1.836216	 1.387520	 -0.000064
C	 -1.301823	 0.443321	 -0.000031
O	 -0.003969	 0.658512	 0.000451
O	 -1.829879	 -0.616434	 -0.000857
C	 0.850537	 -0.484732	 0.000380
C	 0.027271	 -1.666880	 0.464147
H	 1.687097	 -0.294672	 0.658683
H	 1.237283	 -0.631374	 -0.998729
H	 -0.358435	 -1.499007	 1.463188
H	 0.642366	 -2.560566	 0.478925
H	 -0.810483	 -1.837472	 -0.202152

	symmetry c1
}
set optking {
	frozen_dihedral = ("
		7 5 3 2
	")
}

ee = optimize('scf')
oeprop('DIPOLE', 'QUADRUPOLE', 'MULLIKEN_CHARGES')
f=open( 'psi4out.xyz', 'w' )
f.write( "11  " )
f.write( str(ee) + "\n" )
f.write( MOL.save_string_xyz() )
f.close()
--------------------------------------------------------------------------

    Molecular point group: c1
  Charge       = 0
  Multiplicity = 1
  Basis Set: 6-31G*
  Basis Set:
  @DF-RHF Final Energy:  -266.76365014343401
    Total Energy =                       -266.7636501434338925
    Molecular point group: c1
  Basis Set: 6-31G*
  Basis Set:
  Basis Set: 6-31G*
  Basis Set:
  @DF-RHF Final Energy:  -266.80402272964784
    Total Energy =                       -266.8040227296477838
  Basis Set: 6-31G*
  Basis Set:
  Basis Set: 6-31G*
  Basis Set:
  @DF-RHF Final Energy:  -266.80688930781741
    Total Energy =                       -266.8068893078173573
  Basis Set: 6-31G*
  Basis Set:
  Basis Set: 6-31G*
  Basis Set:
  @DF-RHF Final Energy:  -266.81261033384902
    Total Energy =                       -266.8126103338490793
  Basis Set: 6-31G*
  Basis Set:
  @DF-RHF Final Energy:  -266.81742553148172
    Total Energy =                       -266.8174255314816605
  @DF-RHF Final Energy:  -266.81834830981813
    Total Energy =                       -266.8183483098181341
  @DF-RHF Final Energy:  -266.81855601555094
    Total Energy =                       -266.8185560155509393
  Basis Set: 6-31G*
  Basis Set:
  @DF-RHF Final Energy:  -266.81859840704061
    Total Energy =                       -266.8185984070407812
  Basis Set: 6-31G*
  Basis Set:
  Basis Set: 6-31G*
  Basis Set:
  @DF-RHF Final Energy:  -266.81860601497715
    Total Energy =                       -266.8186060149769219
  Basis Set: 6-31G*
  Basis Set:
  Basis Set: 6-31G*
  Basis Set:
  @DF-RHF Final Energy:  -266.81860706536509
    Total Energy =                       -266.8186070653651427
  Basis Set: 6-31G*
  Basis Set:
  Charge       = 0
  Multiplicity = 1
  Basis Set: 6-31G*
  Basis Set:

    Orbital Energies (a.u.)
    -----------------------

    Doubly Occupied:

       1A    -20.609915     2A    -20.552785     3A    -11.379008
       4A    -11.297715     5A    -11.220910     6A     -1.468524
       7A     -1.373081     8A     -1.049878     9A     -0.918610
      10A     -0.795565    11A     -0.720304    12A     -0.684678
      13A     -0.670686    14A     -0.611482    15A     -0.580632
      16A     -0.545592    17A     -0.528538    18A     -0.502816
      19A     -0.451501    20A     -0.444364

  @DF-RHF Final Energy:  -266.81860714952722

   => Energetics <=

    Nuclear Repulsion Energy =            182.2807305411206471
    One-Electron Energy =                -725.3855104592494172
    Two-Electron Energy =                 276.2861727686014888
    DFT Exchange-Correlation Energy =       0.0000000000000000
    Empirical Dispersion Energy =           0.0000000000000000
    PCM Polarization Energy =               0.0000000000000000
    EFP Energy =                            0.0000000000000000
    Total Energy =                       -266.8186071495272813
    Molecular point group: c1
  Basis Set: 6-31G*
  Basis Set:

  -Total Gradient:
     Atom            X                  Y                   Z
    ------   -----------------  -----------------  -----------------
       1        0.000004110513    -0.000007804392     0.000001996126
       2        0.000009160322     0.000081202952     0.003834718564
       3       -0.000370784540    -0.000381672770    -0.005352990223
       4       -0.000015839036     0.000011797299     0.000001911335
       5        0.002420733789     0.001655385260    -0.001540031069
       6       -0.000007425058     0.000009023125     0.000004239115
       7       -0.002042748797    -0.001365211919     0.003041309926
       8        0.000000915591    -0.000002332646    -0.000004400364
       9       -0.000007652197    -0.000007025580     0.000008572038
      10       -0.000002201655     0.000002336727    -0.000001351232
      11        0.000011731070     0.000004301945     0.000006025785

  **** Optimization is complete! (in 11 steps) ****
    Final optimized geometry and variables:
    Molecular point group: c1

    Geometry (in Angstrom), charge = 0, multiplicity = 1:

    H           -1.180599141118     1.955484826473    -0.000855953825
    C           -0.844475935998     0.927013837681    -0.089357681276
    O            0.469713623460     0.912822451037    -0.097300226019
    O           -1.585724357453     0.008775166414    -0.179235779454
    C            1.295534360652    -0.258788418589    -0.074110371968
    C            0.678763746035    -1.555311432668     0.430521689857
    H            2.102020791802     0.016826898335     0.589991483068
    H            1.689640147609    -0.381166828182    -1.073844249556
    H            0.229132920333    -1.426599194845     1.407429437710
    H            1.486686197031    -2.275724147899     0.524746380571
    H           -0.067579727579    -1.952863338385    -0.238401914380

  Mulliken Charges: (a.u.)
   Center  Symbol    Alpha    Beta     Spin     Total
       1     H     0.41379  0.41379  0.00000  0.17243
       2     C     2.72575  2.72575  0.00000  0.54849
       3     O     4.30100  4.30100  0.00000 -0.60200
       4     O     4.26278  4.26278  0.00000 -0.52555
       5     C     2.99377  2.99377  0.00000  0.01246
       6     C     3.25729  3.25729  0.00000 -0.51459
       7     H     0.40930  0.40930  0.00000  0.18141
       8     H     0.41091  0.41091  0.00000  0.17818
       9     H     0.41067  0.41067  0.00000  0.17866
      10     H     0.41967  0.41967  0.00000  0.16066
      11     H     0.39507  0.39507  0.00000  0.20985

   Total alpha = 20.00000, Total beta = 20.00000, Total charge =  0.00000
