  ==> Input File <==

--------------------------------------------------------------------------
set {
	reference rhf
	basis cc-pvtz
}

set_num_threads( 4 )
memory 2 gb

molecule MOL {
0 1

H	 2.041543	 1.741302	 -1.681434
C	 1.319763	 1.568428	 -0.893761
C	 1.322304	 0.099773	 -0.484271
H	 1.578822	 2.210649	 -0.059609
H	 0.346890	 1.873183	 -1.262520
C	 0.308557	 -0.162619	 0.622645
H	 2.306022	 -0.188270	 -0.134894
H	 1.082042	 -0.525099	 -1.335592
N	 -1.069352	 -0.004081	 0.085342
H	 0.371632	 -1.172932	 0.991288
H	 0.400391	 0.548875	 1.426218
O	 -1.584901	 -0.965470	 -0.377818
O	 -1.548033	 1.079343	 0.130056

	symmetry c1
}
set optking {
	frozen_dihedral = ("
		7 3 6 9
	")
}

ee = optimize('scf')
oeprop('DIPOLE', 'QUADRUPOLE', 'MULLIKEN_CHARGES')
f=open( 'psi4out.xyz', 'w' )
f.write( "13  " )
f.write( str(ee) + "\n" )
f.write( MOL.save_string_xyz() )
f.close()
--------------------------------------------------------------------------

    Molecular point group: c1
  Charge       = 0
  Multiplicity = 1
  Basis Set: CC-PVTZ
  Basis Set:
  @DF-RHF Final Energy:  -321.85915594025948
    Total Energy =                       -321.8591559402593134
    Molecular point group: c1
  Basis Set: CC-PVTZ
  Basis Set:
  Basis Set: CC-PVTZ
  Basis Set:
  @DF-RHF Final Energy:  -321.86027696468864
    Total Energy =                       -321.8602769646884667
  Basis Set: CC-PVTZ
  Basis Set:
  Basis Set: CC-PVTZ
  Basis Set:
  @DF-RHF Final Energy:  -321.85390899975141
    Total Energy =                       -321.8539089997515816
  Basis Set: CC-PVTZ
  Basis Set:
  Basis Set: CC-PVTZ
  Basis Set:
  @DF-RHF Final Energy:  -321.86045483638327
    Total Energy =                       -321.8604548363830986
  Basis Set: CC-PVTZ
  Basis Set:
  @DF-RHF Final Energy:  -321.86079025697148
    Total Energy =                       -321.8607902569715407
  @DF-RHF Final Energy:  -321.86095318345815
    Total Energy =                       -321.8609531834582640
  @DF-RHF Final Energy:  -321.86102967868680
    Total Energy =                       -321.8610296786869185
  @DF-RHF Final Energy:  -321.86104438270263
    Total Energy =                       -321.8610443827028007
  @DF-RHF Final Energy:  -321.86105639716800
    Total Energy =                       -321.8610563971681700
  @DF-RHF Final Energy:  -321.86106747444461
    Total Energy =                       -321.8610674744445532
  @DF-RHF Final Energy:  -321.86109616071826
    Total Energy =                       -321.8610961607184890
  Basis Set: CC-PVTZ
  Basis Set:
  @DF-RHF Final Energy:  -321.86111861563336
    Total Energy =                       -321.8611186156335293
  Basis Set: CC-PVTZ
  Basis Set:
  Basis Set: CC-PVTZ
  Basis Set:
  @DF-RHF Final Energy:  -321.86115143412877
    Total Energy =                       -321.8611514341288853
  Basis Set: CC-PVTZ
  Basis Set:
  Basis Set: CC-PVTZ
  Basis Set:
  @DF-RHF Final Energy:  -321.86115392846386
    Total Energy =                       -321.8611539284636365
  Basis Set: CC-PVTZ
  Basis Set:
  Charge       = 0
  Multiplicity = 1
  Basis Set: CC-PVTZ
  Basis Set:

    Orbital Energies (a.u.)
    -----------------------

    Doubly Occupied:

       1A    -20.592971     2A    -20.589252     3A    -15.837307
       4A    -11.297709     5A    -11.251717     6A    -11.229836
       7A     -1.636674     8A     -1.420868     9A     -1.132550
      10A     -1.021815    11A     -0.894069    12A     -0.824099
      13A     -0.761438    14A     -0.741878    15A     -0.729308
      16A     -0.648604    17A     -0.621837    18A     -0.595749
      19A     -0.532092    20A     -0.518422    21A     -0.513028
      22A     -0.487711    23A     -0.475144    24A     -0.454176

  @DF-RHF Final Energy:  -321.86115407992060

   => Energetics <=

    Nuclear Repulsion Energy =            252.8368676523791123
    One-Electron Energy =                -939.7795329768101737
    Two-Electron Energy =                 365.0815112445104091
    DFT Exchange-Correlation Energy =       0.0000000000000000
    Empirical Dispersion Energy =           0.0000000000000000
    PCM Polarization Energy =               0.0000000000000000
    EFP Energy =                            0.0000000000000000
    Total Energy =                       -321.8611540799207091
    Molecular point group: c1
  Basis Set: CC-PVTZ
  Basis Set:

  -Total Gradient:
     Atom            X                  Y                   Z
    ------   -----------------  -----------------  -----------------
       1       -0.000002656857     0.000000126897    -0.000000640412
       2       -0.000002643433     0.000002646235     0.000003199431
       3        0.000241305099     0.001207198679     0.000472957606
       4        0.000000256619     0.000001246157    -0.000001886333
       5       -0.000002098061     0.000004114058    -0.000001410240
       6       -0.000019506424     0.001107692792     0.000235697229
       7       -0.000202190080    -0.001308692643    -0.000462322412
       8       -0.000002259514    -0.000002456336     0.000004700756
       9       -0.000013958839    -0.000959418936    -0.000190287023
      10        0.000005103792    -0.000000205266    -0.000003597026
      11        0.000007466459    -0.000001904428    -0.000003906787
      12       -0.000017168826    -0.000018969838    -0.000025130716
      13        0.000008350069    -0.000031377371    -0.000027374073

  **** Optimization is complete! (in 15 steps) ****
    Final optimized geometry and variables:
    Molecular point group: c1

    Geometry (in Angstrom), charge = 0, multiplicity = 1:

    H            2.366212517620     1.388723333910    -1.598472516690
    C            1.611753317758     1.276186555929    -0.830333747477
    C            1.571978802122    -0.164706759890    -0.334111038284
    H            1.847469735196     1.963726544398    -0.025962811906
    H            0.661480147556     1.575308363814    -1.256529705832
    C            0.554071462091    -0.405569170569     0.771406770605
    H            2.537365889043    -0.453810626644     0.066067920811
    H            1.361249938315    -0.841462551314    -1.151039640886
    N           -0.841152365228    -0.270743991233     0.260110383811
    H            0.616167717063    -1.417053086623     1.142887870247
    H            0.641219957501     0.297687651702     1.581474354970
    O           -1.174338980692    -1.016613435486    -0.599330764456
    O           -1.525555660098     0.565691101572     0.744714542554

  Mulliken Charges: (a.u.)
   Center  Symbol    Alpha    Beta     Spin     Total
       1     H     0.44495  0.44495  0.00000  0.11010
       2     C     3.14389  3.14389  0.00000 -0.28778
       3     C     3.09914  3.09914  0.00000 -0.19827
       4     H     0.45305  0.45305  0.00000  0.09391
       5     H     0.44588  0.44588  0.00000  0.10823
       6     C     3.04888  3.04888  0.00000 -0.09776
       7     H     0.44546  0.44546  0.00000  0.10908
       8     H     0.43638  0.43638  0.00000  0.12724
       9     N     3.27901  3.27901  0.00000  0.44198
      10     H     0.42835  0.42835  0.00000  0.14330
      11     H     0.43218  0.43218  0.00000  0.13565
      12     O     4.17436  4.17436  0.00000 -0.34872
      13     O     4.16848  4.16848  0.00000 -0.33697

   Total alpha = 24.00000, Total beta = 24.00000, Total charge =  0.00000
