                              Psi4 1.0.54 Driver

  ==> Input File <==

--------------------------------------------------------------------------
set {
	reference rhf
	basis cc-pvtz
}

set_num_threads( 4 )
memory 2 gb

molecule MOL {
0 1

H	 0.372786	 -3.063731	 -4.270100
O	 1.311417	 -3.054546	 -4.296892
C	 1.799065	 -1.830421	 -3.814203
C	 1.658666	 -1.673376	 -2.307448
H	 2.845903	 -1.802073	 -4.084955
H	 1.312159	 -1.000761	 -4.323160
C	 0.214485	 -1.611354	 -1.815164
H	 2.174607	 -2.497936	 -1.824682
H	 2.177171	 -0.762872	 -2.016704
C	 0.113298	 -1.420414	 -0.302504
H	 -0.300774	 -2.522741	 -2.099564
H	 -0.300931	 -0.791904	 -2.313294
C	 -1.311023	 -1.277304	 0.237018
H	 0.603802	 -2.252999	 0.195929
H	 0.674919	 -0.531564	 -0.028650
C	 -2.041121	 -0.006551	 -0.194127
H	 -1.888548	 -2.136293	 -0.093331
H	 -1.289731	 -1.328757	 1.323321
C	 -3.489218	 0.042606	 0.286507
H	 -2.022185	 0.066287	 -1.279394
H	 -1.518764	 0.869305	 0.178730
C	 -4.219984	 1.311773	 -0.139038
H	 -4.022855	 -0.824300	 -0.093339
H	 -3.510372	 -0.038577	 1.370031
H	 -4.244251	 1.405725	 -1.219696
H	 -5.244345	 1.313233	 0.215630
H	 -3.732090	 2.196311	 0.257073

	symmetry c1
}
set optking {
	frozen_dihedral = ("
		14 10 13 16
	")
}

ee,wfn = optimize('scf', return_wfn=True)
oeprop( wfn, 'DIPOLE', 'QUADRUPOLE', 'MULLIKEN_CHARGES')
f=open( 'psi4out.xyz', 'w' )
f.write( "27  " )
f.write( str(ee) + "\n" )
f.write( MOL.save_string_xyz() )
f.close()
--------------------------------------------------------------------------

    Molecular point group: c1
  Charge       = 0
  Multiplicity = 1
  Basis Set: CC-PVTZ
  Basis Set:
  @DF-RHF Final Energy:  -388.42716369149025
    Total Energy =                       -388.4271636914897954
    Molecular point group: c1
  Basis Set: CC-PVTZ
  Basis Set:
  Basis Set: CC-PVTZ
  Basis Set:
  @DF-RHF Final Energy:  -388.42767275072174
    Total Energy =                       -388.4276727507220812
  Basis Set: CC-PVTZ
  Basis Set:
  Basis Set: CC-PVTZ
  Basis Set:
  @DF-RHF Final Energy:  -388.42779782912959
    Total Energy =                       -388.4277978291294176
  Basis Set: CC-PVTZ
  Basis Set:
  Basis Set: CC-PVTZ
  Basis Set:
  @DF-RHF Final Energy:  -388.42780175865795
    Total Energy =                       -388.4278017586582337
  Basis Set: CC-PVTZ
  Basis Set:
  Charge       = 0
  Multiplicity = 1
  Basis Set: CC-PVTZ
  Basis Set:

    Orbital Energies (a.u.)
    -----------------------

    Doubly Occupied:

       1A    -20.545242     2A    -11.264954     3A    -11.216938
       4A    -11.214769     5A    -11.214146     6A    -11.213333
       7A    -11.213293     8A    -11.212154     9A    -11.207665
      10A     -1.363187    11A     -1.096371    12A     -1.062801
      13A     -1.012692    14A     -0.949666    15A     -0.888555
      16A     -0.820745    17A     -0.801954    18A     -0.778875
      19A     -0.696763    20A     -0.648554    21A     -0.641760
      22A     -0.614971    23A     -0.607180    24A     -0.584913
      25A     -0.576819    26A     -0.555000    27A     -0.546326
      28A     -0.520510    29A     -0.508889    30A     -0.502624
      31A     -0.483375    32A     -0.474293    33A     -0.467324
      34A     -0.461806    35A     -0.454001    36A     -0.442682
      37A     -0.425663

  @DF-RHF Final Energy:  -388.42780232445580

   => Energetics <=

    Nuclear Repulsion Energy =            459.0862326352020091
    One-Electron Energy =               -1436.4464769387523120
    Two-Electron Energy =                 588.9324419790941647
    DFT Exchange-Correlation Energy =       0.0000000000000000
    Empirical Dispersion Energy =           0.0000000000000000
    PCM Polarization Energy =               0.0000000000000000
    EFP Energy =                            0.0000000000000000
    Total Energy =                       -388.4278023244561382
    Molecular point group: c1
  Basis Set: CC-PVTZ
  Basis Set:

  -Total Gradient:
     Atom            X                  Y                   Z
    ------   -----------------  -----------------  -----------------
       1        0.000018651034     0.000014118706    -0.000007925006
       2        0.000033841415    -0.000028195903     0.000025096215
       3       -0.000051997447     0.000081907492    -0.000027675632
       4       -0.000004738926    -0.000069791985     0.000010078424
       5       -0.000011678226    -0.000013575224    -0.000009574443
       6        0.000006240642     0.000005871030    -0.000010603764
       7        0.000008580213    -0.000062327573     0.000024767390
       8       -0.000005513399    -0.000005379429     0.000016777127
       9       -0.000000731648    -0.000004105045    -0.000001255428
      10       -0.000064660332    -0.000101189755    -0.000225395456
      11        0.000019386471    -0.000006186936    -0.000008532319
      12       -0.000019365141     0.000017121741     0.000033301558
      13       -0.000080051124    -0.000114287934    -0.000201016088
      14        0.000070164005     0.000188133542     0.000183497612
      15        0.000040372509     0.000012166381     0.000021575742
      16        0.000067757418     0.000062878539     0.000172443976
      17       -0.000024936480     0.000017109458     0.000010096679
      18       -0.000000855450    -0.000011013516     0.000013754291
      19        0.000013929536     0.000034730783     0.000004218829
      20       -0.000002753391     0.000007111581    -0.000025650837
      21        0.000000143905    -0.000002947017     0.000010373008
      22       -0.000017613811    -0.000024784702    -0.000006441701
      23       -0.000005400527     0.000008676678    -0.000009988656
      24        0.000007042704    -0.000005998044     0.000007888107
      25       -0.000001466135     0.000002709072    -0.000004985643
      26       -0.000005542067     0.000003550441    -0.000001833608
      27        0.000011194250    -0.000006302388     0.000007009622

  **** Optimization is complete! (in 5 steps) ****
    Final optimized geometry and variables:
    Molecular point group: c1

    Geometry (in Angstrom), charge = 0, multiplicity = 1:

    H            1.080167031895    -1.883657973491    -2.877593193837
    O            2.017884481984    -1.931420497287    -2.870116299122
    C            2.559987763841    -0.751013335724    -2.339326477477
    C            2.359452816783    -0.613874099387    -0.837559390946
    H            3.617908242515    -0.786138117872    -2.561769463253
    H            2.151761212100     0.118016760038    -2.851722424450
    C            0.900532393478    -0.469632703019    -0.410119541494
    H            2.800758752160    -1.477476145899    -0.349441227589
    H            2.918487262260     0.257278726174    -0.504210063035
    C            0.741869311245    -0.287162647578     1.098514331491
    H            0.342140030931    -1.351998342717    -0.712929761257
    H            0.460056969397     0.373837196875    -0.934287182107
    C           -0.704557130502    -0.221720998540     1.592401205594
    H            1.240235634519    -1.111872659536     1.599869275020
    H            1.266943595422     0.613730542296     1.407462609143
    C           -1.475310073317     1.026503580663     1.166459834686
    H           -1.238912278474    -1.107538455609     1.256764336466
    H           -0.697446329439    -0.268426001059     2.677848470005
    C           -2.883547895994     1.088845944003     1.752229646930
    H           -1.544008281777     1.072193694167     0.083681260574
    H           -0.921122587944     1.910534104901     1.474385028884
    C           -3.655501571340     2.333860722585     1.328313689262
    H           -3.436494815190     0.203100410788     1.451246362385
    H           -2.822848792229     1.054917190305     2.836535997542
    H           -3.765475031442     2.378363359785     0.249776942792
    H           -4.648825278568     2.347280250831     1.762063710553
    H           -3.144701238141     3.237423553287     1.644397207553

  Mulliken Charges: (a.u.)
   Center  Symbol    Alpha    Beta     Spin     Total
       1     H     0.39233  0.39233  0.00000  0.21535
       2     O     4.20572  4.20572  0.00000 -0.41145
       3     C     2.97935  2.97935  0.00000  0.04130
       4     C     3.08847  3.08847  0.00000 -0.17694
       5     H     0.44863  0.44863  0.00000  0.10273
       6     H     0.47006  0.47006  0.00000  0.05989
       7     C     3.10381  3.10381  0.00000 -0.20763
       8     H     0.45021  0.45021  0.00000  0.09957
       9     H     0.45581  0.45581  0.00000  0.08837
      10     C     3.09879  3.09879  0.00000 -0.19759
      11     H     0.45757  0.45757  0.00000  0.08486
      12     H     0.45156  0.45156  0.00000  0.09687
      13     C     3.09822  3.09822  0.00000 -0.19644
      14     H     0.44637  0.44637  0.00000  0.10726
      15     H     0.45316  0.45316  0.00000  0.09369
      16     C     3.08772  3.08772  0.00000 -0.17544
      17     H     0.45367  0.45367  0.00000  0.09265
      18     H     0.44782  0.44782  0.00000  0.10435
      19     C     3.08411  3.08411  0.00000 -0.16822
      20     H     0.45469  0.45469  0.00000  0.09063
      21     H     0.45497  0.45497  0.00000  0.09007
      22     C     3.14966  3.14966  0.00000 -0.29931
      23     H     0.45449  0.45449  0.00000  0.09101
      24     H     0.45374  0.45374  0.00000  0.09252
      25     H     0.45574  0.45574  0.00000  0.08853
      26     H     0.44818  0.44818  0.00000  0.10364
      27     H     0.45514  0.45514  0.00000  0.08971

   Total alpha = 37.00000, Total beta = 37.00000, Total charge = -0.00000

*** Psi4 exiting successfully. Buy a developer a beer!
