                              Psi4 1.0.54 Driver

  ==> Input File <==

--------------------------------------------------------------------------
set {
	reference rhf
	basis cc-pvtz
}

set_num_threads( 4 )
memory 2 gb

molecule MOL {
0 1

H	 -2.184019	 1.178629	 -2.412012
C	 -2.904365	 1.487423	 -1.642185
C	 -2.653809	 0.914422	 -0.273689
O	 -3.797452	 2.208997	 -1.923316
C	 -1.216901	 1.136108	 0.207794
H	 -3.374794	 1.337070	 0.413976
H	 -2.846010	 -0.153902	 -0.344733
C	 -0.247837	 0.040196	 -0.230469
H	 -0.872882	 2.093195	 -0.169002
H	 -1.209325	 1.218376	 1.291938
C	 1.181757	 0.280428	 0.247371
H	 -0.259600	 -0.030819	 -1.314870
H	 -0.591284	 -0.923375	 0.136958
C	 2.151032	 -0.811012	 -0.202643
H	 1.515939	 1.247397	 -0.115449
H	 1.191514	 0.341223	 1.333422
C	 3.580021	 -0.656538	 0.320835
H	 2.170545	 -0.847575	 -1.289412
H	 1.766632	 -1.772905	 0.124928
C	 4.327657	 0.562694	 -0.213579
H	 4.138806	 -1.549270	 0.057813
H	 3.561991	 -0.620783	 1.406976
H	 4.355973	 0.557257	 -1.298551
H	 3.867136	 1.491650	 0.100501
H	 5.351524	 0.571613	 0.142204

	symmetry c1
}
set optking {
	frozen_dihedral = ("
		6 3 5 8
	")
}

ee,wfn = optimize('scf', return_wfn=True)
oeprop( wfn, 'DIPOLE', 'QUADRUPOLE', 'MULLIKEN_CHARGES')
f=open( 'psi4out.xyz', 'w' )
f.write( "25  " )
f.write( str(ee) + "\n" )
f.write( MOL.save_string_xyz() )
f.close()
--------------------------------------------------------------------------

    Molecular point group: c1
  Charge       = 0
  Multiplicity = 1
  Basis Set: CC-PVTZ
  Basis Set:
  @DF-RHF Final Energy:  -387.25756856340911
    Total Energy =                       -387.2575685634092224
    Molecular point group: c1
  Basis Set: CC-PVTZ
  Basis Set:
  Basis Set: CC-PVTZ
  Basis Set:
  @DF-RHF Final Energy:  -387.25722918208902
    Total Energy =                       -387.2572291820888495
  Basis Set: CC-PVTZ
  Basis Set:
  Basis Set: CC-PVTZ
  Basis Set:
  @DF-RHF Final Energy:  -387.25610027969969
    Total Energy =                       -387.2561002796992398
  Basis Set: CC-PVTZ
  Basis Set:
  Basis Set: CC-PVTZ
  Basis Set:
  @DF-RHF Final Energy:  -387.25788356060849
    Total Energy =                       -387.2578835606084340
  Basis Set: CC-PVTZ
  Basis Set:
  @DF-RHF Final Energy:  -387.25791033747731
    Total Energy =                       -387.2579103374774832
  @DF-RHF Final Energy:  -387.25792564704756
    Total Energy =                       -387.2579256470478413
  @DF-RHF Final Energy:  -387.25793048376960
    Total Energy =                       -387.2579304837697691
  Basis Set: CC-PVTZ
  Basis Set:
  @DF-RHF Final Energy:  -387.25793316770296
    Total Energy =                       -387.2579331677030723
  Basis Set: CC-PVTZ
  Basis Set:
  Basis Set: CC-PVTZ
  Basis Set:
  @DF-RHF Final Energy:  -387.25793503512551
    Total Energy =                       -387.2579350351251151
  Basis Set: CC-PVTZ
  Basis Set:
  Basis Set: CC-PVTZ
  Basis Set:
  @DF-RHF Final Energy:  -387.25793603816163
    Total Energy =                       -387.2579360381614606
  Basis Set: CC-PVTZ
  Basis Set:
  Charge       = 0
  Multiplicity = 1
  Basis Set: CC-PVTZ
  Basis Set:

    Orbital Energies (a.u.)
    -----------------------

    Doubly Occupied:

       1A    -20.550631     2A    -11.320719     3A    -11.233544
       4A    -11.232949     5A    -11.225862     6A    -11.220053
       7A    -11.218519     8A    -11.217869     9A    -11.210432
      10A     -1.405679    11A     -1.106727    12A     -1.071882
      13A     -1.015925    14A     -0.945202    15A     -0.877454
      16A     -0.823255    17A     -0.789437    18A     -0.784489
      19A     -0.672705    20A     -0.664771    21A     -0.635829
      22A     -0.621344    23A     -0.610612    24A     -0.591287
      25A     -0.573239    26A     -0.561621    27A     -0.541812
      28A     -0.521994    29A     -0.509964    30A     -0.505781
      31A     -0.485961    32A     -0.481641    33A     -0.467611
      34A     -0.461886    35A     -0.447360    36A     -0.410517

  @DF-RHF Final Energy:  -387.25793623794846

   => Energetics <=

    Nuclear Repulsion Energy =            435.8580298635978352
    One-Electron Energy =               -1388.1988111375269455
    Two-Electron Energy =                 565.0828450359804265
    DFT Exchange-Correlation Energy =       0.0000000000000000
    Empirical Dispersion Energy =           0.0000000000000000
    PCM Polarization Energy =               0.0000000000000000
    EFP Energy =                            0.0000000000000000
    Total Energy =                       -387.2579362379486838
    Molecular point group: c1
  Basis Set: CC-PVTZ
  Basis Set:

  -Total Gradient:
     Atom            X                  Y                   Z
    ------   -----------------  -----------------  -----------------
       1       -0.000007134941     0.000004326581     0.000003617538
       2       -0.000016368729    -0.000002079051     0.000004541185
       3        0.000001615905     0.002048303349    -0.000752534770
       4        0.000008497226     0.000000441202    -0.000008566536
       5        0.000412495890     0.000657195706    -0.001497102726
       6       -0.000086528344    -0.001877781790     0.000996976948
       7        0.000000940260    -0.000004839234     0.000000495921
       8       -0.000315933280    -0.000815463023     0.001251116083
       9       -0.000002245395    -0.000005963069     0.000003751327
      10        0.000002889644     0.000000756545    -0.000008801557
      11       -0.000007928896    -0.000010930748     0.000010440879
      12       -0.000001542499    -0.000002566692     0.000001306970
      13        0.000001776914     0.000007633555     0.000000498507
      14        0.000005505187     0.000006041158    -0.000011902314
      15       -0.000002412482    -0.000007134441     0.000001462035
      16       -0.000000342621     0.000001599694     0.000000574056
      17        0.000000492564     0.000002279973     0.000006791517
      18       -0.000003113162    -0.000005801502    -0.000003642572
      19       -0.000000043593     0.000008289360     0.000001996325
      20        0.000003091450    -0.000005030741    -0.000002485322
      21        0.000003789675     0.000005369345    -0.000000460214
      22        0.000002347287    -0.000002835792     0.000002182172
      23        0.000000634912     0.000001791101    -0.000000360585
      24       -0.000000070570    -0.000004087929     0.000000888441
      25       -0.000000412412     0.000000486441    -0.000000783308

  **** Optimization is complete! (in 11 steps) ****
    Final optimized geometry and variables:
    Molecular point group: c1

    Geometry (in Angstrom), charge = 0, multiplicity = 1:

    H           -2.165526597419     0.775509566511    -1.966045266460
    C           -2.949071773290     0.950912705967    -1.218107328278
    C           -2.702778400856     0.343397896819     0.135920025109
    O           -3.906915955477     1.581665807772    -1.505984084607
    C           -1.263558589213     0.544788158212     0.636426709635
    H           -3.429961940820     0.746974246030     0.826899862408
    H           -2.910028890724    -0.721334235756     0.049271543992
    C           -0.287419955322    -0.537297948968     0.178362825921
    H           -0.902222738607     1.522876114912     0.329921832862
    H           -1.279356937395     0.561417043343     1.720439868007
    C            1.140260588837    -0.302631509788     0.664002759113
    H           -0.288062723451    -0.602670154873    -0.907098018325
    H           -0.638478266970    -1.500578928665     0.539107998059
    C            2.108290617246    -1.397819423834     0.220393142711
    H            1.480427147219     0.662876071973     0.303464438698
    H            1.142439100148    -0.241628666398     1.749965292441
    C            3.534382128027    -1.248554085503     0.753229932999
    H            2.135294826494    -1.434723820471    -0.866338530468
    H            1.718333451898    -2.358340485988     0.545916870642
    C            4.289562343914    -0.031777786602     0.223960902613
    H            4.091701570796    -2.143215250273     0.493640748577
    H            3.509103204308    -1.212981993249     1.839171494146
    H            4.324264434327    -0.036561012482    -0.860825152596
    H            3.830904958341     0.898683649950     0.536112113392
    H            5.311299246473    -0.027135338553     0.585720239945

  Mulliken Charges: (a.u.)
   Center  Symbol    Alpha    Beta     Spin     Total
       1     H     0.46461  0.46461  0.00000  0.07078
       2     C     2.90325  2.90325  0.00000  0.19349
       3     C     3.08822  3.08822  0.00000 -0.17643
       4     O     4.16591  4.16591  0.00000 -0.33182
       5     C     3.11290  3.11290  0.00000 -0.22581
       6     H     0.43527  0.43527  0.00000  0.12945
       7     H     0.44997  0.44997  0.00000  0.10006
       8     C     3.09186  3.09186  0.00000 -0.18372
       9     H     0.44703  0.44703  0.00000  0.10595
      10     H     0.44224  0.44224  0.00000  0.11552
      11     C     3.09327  3.09327  0.00000 -0.18654
      12     H     0.45331  0.45331  0.00000  0.09338
      13     H     0.45117  0.45117  0.00000  0.09766
      14     C     3.09550  3.09550  0.00000 -0.19099
      15     H     0.45067  0.45067  0.00000  0.09867
      16     H     0.45298  0.45298  0.00000  0.09403
      17     C     3.09060  3.09060  0.00000 -0.18119
      18     H     0.45342  0.45342  0.00000  0.09315
      19     H     0.44914  0.44914  0.00000  0.10171
      20     C     3.15266  3.15266  0.00000 -0.30531
      21     H     0.44772  0.44772  0.00000  0.10457
      22     H     0.45430  0.45430  0.00000  0.09140
      23     H     0.45455  0.45455  0.00000  0.09090
      24     H     0.45385  0.45385  0.00000  0.09229
      25     H     0.44559  0.44559  0.00000  0.10882

   Total alpha = 36.00000, Total beta = 36.00000, Total charge = -0.00000

*** Psi4 exiting successfully. Buy a developer a beer!
