                              Psi4 1.0.54 Driver

  ==> Input File <==

--------------------------------------------------------------------------
set {
	reference rhf
	basis cc-pvtz
}

set_num_threads( 4 )
memory 2 gb

molecule MOL {
0 1

H	 1.370245	 0.823678	 -2.513750
C	 0.640663	 0.643809	 -1.734881
C	 1.322304	 0.099773	 -0.484271
H	 0.134307	 1.580697	 -1.531869
H	 -0.091248	 -0.056479	 -2.121202
C	 0.308557	 -0.162619	 0.622645
H	 2.060055	 0.806154	 -0.124433
H	 1.839007	 -0.824099	 -0.713218
N	 -1.069352	 -0.004081	 0.085342
H	 0.371632	 -1.172932	 0.991288
H	 0.400391	 0.548875	 1.426218
O	 -1.584901	 -0.965470	 -0.377818
O	 -1.548033	 1.079343	 0.130056

	symmetry c1
}
set optking {
	frozen_dihedral = ("
		7 3 6 9
	")
}

ee,wfn = optimize('scf', return_wfn=True)
oeprop( wfn, 'DIPOLE', 'QUADRUPOLE', 'MULLIKEN_CHARGES')
f=open( 'psi4out.xyz', 'w' )
f.write( "13  " )
f.write( str(ee) + "\n" )
f.write( MOL.save_string_xyz() )
f.close()
--------------------------------------------------------------------------

    Molecular point group: c1
  Charge       = 0
  Multiplicity = 1
  Basis Set: CC-PVTZ
  Basis Set:
  @DF-RHF Final Energy:  -321.84901591116926
    Total Energy =                       -321.8490159111693174
    Molecular point group: c1
  Basis Set: CC-PVTZ
  Basis Set:
  Basis Set: CC-PVTZ
  Basis Set:
  @DF-RHF Final Energy:  -321.84782535245864
    Total Energy =                       -321.8478253524586989
  Basis Set: CC-PVTZ
  Basis Set:
  Basis Set: CC-PVTZ
  Basis Set:
  @DF-RHF Final Energy:  -321.85174415126380
    Total Energy =                       -321.8517441512639152
  Basis Set: CC-PVTZ
  Basis Set:
  Basis Set: CC-PVTZ
  Basis Set:
  @DF-RHF Final Energy:  -321.85353872733407
    Total Energy =                       -321.8535387273337278
  Basis Set: CC-PVTZ
  Basis Set:
  @DF-RHF Final Energy:  -321.85360942959630
    Total Energy =                       -321.8536094295963039
  @DF-RHF Final Energy:  -321.85363055410789
    Total Energy =                       -321.8536305541080083
  Basis Set: CC-PVTZ
  Basis Set:
  @DF-RHF Final Energy:  -321.85363788758667
    Total Energy =                       -321.8536378875867854
  Basis Set: CC-PVTZ
  Basis Set:
  Basis Set: CC-PVTZ
  Basis Set:
  @DF-RHF Final Energy:  -321.85364591173629
    Total Energy =                       -321.8536459117361801
  Basis Set: CC-PVTZ
  Basis Set:
  Basis Set: CC-PVTZ
  Basis Set:
  @DF-RHF Final Energy:  -321.85364731780817
    Total Energy =                       -321.8536473178081678
  Basis Set: CC-PVTZ
  Basis Set:
  Charge       = 0
  Multiplicity = 1
  Basis Set: CC-PVTZ
  Basis Set:

    Orbital Energies (a.u.)
    -----------------------

    Doubly Occupied:

       1A    -20.591396     2A    -20.589937     3A    -15.836902
       4A    -11.297295     5A    -11.255434     6A    -11.226903
       7A     -1.636276     8A     -1.420382     9A     -1.128093
      10A     -1.022073    11A     -0.895626    12A     -0.822432
      13A     -0.754061    14A     -0.738360    15A     -0.729253
      16A     -0.668496    17A     -0.605721    18A     -0.589807
      19A     -0.536629    20A     -0.517276    21A     -0.512286
      22A     -0.480724    23A     -0.475441    24A     -0.453507

  @DF-RHF Final Energy:  -321.85364760205459

   => Energetics <=

    Nuclear Repulsion Energy =            254.8459228286945972
    One-Electron Energy =                -943.8305228493511549
    Two-Electron Energy =                 367.1309524186017939
    DFT Exchange-Correlation Energy =       0.0000000000000000
    Empirical Dispersion Energy =           0.0000000000000000
    PCM Polarization Energy =               0.0000000000000000
    EFP Energy =                            0.0000000000000000
    Total Energy =                       -321.8536476020547639
    Molecular point group: c1
  Basis Set: CC-PVTZ
  Basis Set:

  -Total Gradient:
     Atom            X                  Y                   Z
    ------   -----------------  -----------------  -----------------
       1        0.000006623410     0.000000508799     0.000002928162
       2       -0.000010457805     0.000004319153    -0.000009097689
       3        0.001919675739    -0.001750568109     0.000924082534
       4       -0.000005609064    -0.000006388556     0.000005351331
       5        0.000010879065     0.000005025094    -0.000011528738
       6       -0.000412030397    -0.002162777289    -0.000912806298
       7       -0.001571677751     0.002014044569    -0.000588167641
       8       -0.000004091535     0.000005423816     0.000000953347
       9        0.000053843698     0.001947274699     0.000598071580
      10       -0.000001548886     0.000006734330    -0.000007683993
      11       -0.000009700589    -0.000003324089    -0.000002588902
      12       -0.000001826280    -0.000018042756     0.000005025517
      13        0.000025920392    -0.000042229662    -0.000004539212

  **** Optimization is complete! (in 10 steps) ****
    Final optimized geometry and variables:
    Molecular point group: c1

    Geometry (in Angstrom), charge = 0, multiplicity = 1:

    H            1.686242733649     0.870454010863    -2.390611811724
    C            0.949870820529     0.658972503916    -1.625933820184
    C            1.647524344515     0.027913203451    -0.420962266716
    H            0.463962291046     1.589544797208    -1.363543508866
    H            0.208132264402    -0.003043868663    -2.052436314156
    C            0.751954007739    -0.316069037242     0.793105390565
    H            2.402282432713     0.719624899660    -0.070638017751
    H            2.154791007248    -0.873320209362    -0.736239043884
    N           -0.697393972402    -0.164730628370     0.493552355147
    H            0.875321330054    -1.339774712899     1.100585508456
    H            0.934691332013     0.348261464082     1.619146872982
    O           -1.247384481006    -1.089065611392    -0.005863437064
    O           -1.204659290981     0.872429525337     0.759755746899

  Mulliken Charges: (a.u.)
   Center  Symbol    Alpha    Beta     Spin     Total
       1     H     0.44600  0.44600  0.00000  0.10801
       2     C     3.15401  3.15401  0.00000 -0.30803
       3     C     3.09428  3.09428  0.00000 -0.18856
       4     H     0.44289  0.44289  0.00000  0.11422
       5     H     0.44249  0.44249  0.00000  0.11503
       6     C     3.03986  3.03986  0.00000 -0.07972
       7     H     0.44581  0.44581  0.00000  0.10838
       8     H     0.44380  0.44380  0.00000  0.11239
       9     N     3.27430  3.27430  0.00000  0.45140
      10     H     0.43248  0.43248  0.00000  0.13505
      11     H     0.43414  0.43414  0.00000  0.13172
      12     O     4.17525  4.17525  0.00000 -0.35050
      13     O     4.17470  4.17470  0.00000 -0.34940

   Total alpha = 24.00000, Total beta = 24.00000, Total charge = -0.00000

*** Psi4 exiting successfully. Buy a developer a beer!
