  ==> Input File <==

--------------------------------------------------------------------------
set {
	reference rhf
	basis cc-pvtz
}

set_num_threads( 4 )
memory 2 gb

molecule MOL {
0 1

H	 -2.816458	 -0.841657	 -0.064679
N	 -1.878861	 -0.711874	 0.250184
C	 -1.341419	 0.551458	 -0.220231
H	 -1.333674	 -1.468530	 -0.105118
C	 0.082190	 0.731516	 0.254705
H	 -1.357065	 0.652078	 -1.304747
H	 -1.939897	 1.357530	 0.189797
O	 0.881195	 -0.248324	 -0.336237
H	 0.440901	 1.722476	 -0.020063
H	 0.119896	 0.643586	 1.338114
C	 2.222034	 -0.191391	 0.021713
H	 2.737961	 -0.988305	 -0.494167
H	 2.670222	 0.757638	 -0.264935
H	 2.353833	 -0.324222	 1.092950

	symmetry c1
}
set optking {
	frozen_dihedral = ("
		11 8 5 3
	")
}

ee = optimize('scf')
oeprop('DIPOLE', 'QUADRUPOLE', 'MULLIKEN_CHARGES')
f=open( 'psi4out.xyz', 'w' )
f.write( "14  " )
f.write( str(ee) + "\n" )
f.write( MOL.save_string_xyz() )
f.close()
--------------------------------------------------------------------------

    Molecular point group: c1
  Charge       = 0
  Multiplicity = 1
  Basis Set: CC-PVTZ
  Basis Set:
  @DF-RHF Final Energy:  -248.22617140672648
    Total Energy =                       -248.2261714067264506
    Molecular point group: c1
  Basis Set: CC-PVTZ
  Basis Set:
  Charge       = 0
  Multiplicity = 1
  Basis Set: CC-PVTZ
  Basis Set:

    Orbital Energies (a.u.)
    -----------------------

    Doubly Occupied:

       1A    -20.550825     2A    -15.523488     3A    -11.263991
       4A    -11.263743     5A    -11.239946     6A     -1.384734
       7A     -1.175963     8A     -1.000609     9A     -0.907788
      10A     -0.815770    11A     -0.685289    12A     -0.676505
      13A     -0.647342    14A     -0.611809    15A     -0.608065
      16A     -0.542275    17A     -0.530434    18A     -0.498014
      19A     -0.474572    20A     -0.420232    21A     -0.383850

  @DF-RHF Final Energy:  -248.22617227422981

   => Energetics <=

    Nuclear Repulsion Energy =            194.6520185222694010
    One-Electron Energy =                -723.3458969490854997
    Two-Electron Energy =                 280.4677061525860609
    DFT Exchange-Correlation Energy =       0.0000000000000000
    Empirical Dispersion Energy =           0.0000000000000000
    PCM Polarization Energy =               0.0000000000000000
    EFP Energy =                            0.0000000000000000
    Total Energy =                       -248.2261722742300663
    Molecular point group: c1
  Basis Set: CC-PVTZ
  Basis Set:

  -Total Gradient:
     Atom            X                  Y                   Z
    ------   -----------------  -----------------  -----------------
       1        0.000000024006     0.000004755512    -0.000001126561
       2        0.000042419452    -0.000031875336     0.000002875441
       3        0.000059564368     0.000282794131    -0.000269930307
       4       -0.000008801847    -0.000026583445     0.000000388270
       5       -0.000057939858    -0.000190402673     0.000266455333
       6       -0.000021885333    -0.000013957615    -0.000001486489
       7       -0.000004062752     0.000018377677    -0.000010459520
       8       -0.000062236365    -0.000218720135     0.000256902065
       9        0.000002105369    -0.000051007259    -0.000015767998
      10       -0.000013632664     0.000015700008     0.000034174867
      11        0.000073554758     0.000197928594    -0.000238468192
      12        0.000000178881     0.000007194451    -0.000011607708
      13       -0.000020826219    -0.000000563453    -0.000011326527
      14        0.000011538208     0.000006359543    -0.000000622675

  **** Optimization is complete! (in 2 steps) ****
    Final optimized geometry and variables:
    Molecular point group: c1

    Geometry (in Angstrom), charge = 0, multiplicity = 1:

    H           -2.818715482408    -0.851625359828    -0.055999823275
    N           -1.881632954692    -0.721351383773     0.260144748042
    C           -1.344373642851     0.542783169973    -0.208458656822
    H           -1.335654825421    -1.477690630075    -0.094619789049
    C            0.079358147660     0.722469506609     0.266372373860
    H           -1.359570071273     0.644671612646    -1.292845779037
    H           -1.943061276516     1.348350522043     0.202365244908
    O            0.878040180790    -0.257267424111    -0.325041181695
    H            0.437044408055     1.713217284286    -0.010396707866
    H            0.119002474750     0.636029699105     1.349879587139
    C            2.218865464697    -0.200689619424     0.032716544894
    H            2.734227880968    -0.998837714216    -0.481776417241
    H            2.667045945234     0.747699414491    -0.255822838058
    H            2.351285271495    -0.331655265322     1.104194700393

  Mulliken Charges: (a.u.)
   Center  Symbol    Alpha    Beta     Spin     Total
       1     H     0.43027  0.43027  0.00000  0.13945
       2     N     3.69407  3.69407  0.00000 -0.38815
       3     C     3.02174  3.02174  0.00000 -0.04349
       4     H     0.42245  0.42245  0.00000  0.15510
       5     C     2.96917  2.96917  0.00000  0.06166
       6     H     0.46471  0.46471  0.00000  0.07058
       7     H     0.45880  0.45880  0.00000  0.08240
       8     O     4.17974  4.17974  0.00000 -0.35947
       9     H     0.47042  0.47042  0.00000  0.05917
      10     H     0.46818  0.46818  0.00000  0.06363
      11     C     3.03171  3.03171  0.00000 -0.06341
      12     H     0.44755  0.44755  0.00000  0.10489
      13     H     0.47115  0.47115  0.00000  0.05770
      14     H     0.47003  0.47003  0.00000  0.05994

   Total alpha = 21.00000, Total beta = 21.00000, Total charge = -0.00000
