  ==> Input File <==

--------------------------------------------------------------------------
set {
	reference rhf
	basis 6-31G*
}

set_num_threads( 1 )
memory 2 gb

molecule MOL {
0 1

O	 -0.988096	 -1.408613	 0.050699
C	 -0.676749	 -0.249230	 -0.009274
C	 -1.746085	 0.827156	 -0.009539
N	 0.623947	 0.147590	 -0.102813
H	 -1.701500	 1.431508	 -0.908902
H	 -2.703425	 0.330732	 0.036390
H	 -1.647323	 1.487769	 0.845106
C	 1.643039	 -0.859311	 -0.325250
C	 1.111870	 1.435140	 0.340347
H	 2.397111	 -0.467327	 -0.998853
H	 1.193530	 -1.733880	 -0.762298
H	 2.129166	 -1.141882	 0.606016
H	 1.946596	 1.731621	 -0.283648
H	 0.354105	 2.197679	 0.255139
H	 1.458249	 1.405302	 1.371824

	symmetry c1
}
set optking {
	frozen_dihedral = ("
		2 4 8 10
	")
}

ee = energy('scf')
oeprop('DIPOLE', 'QUADRUPOLE', 'MULLIKEN_CHARGES')
f=open( 'psi4out.xyz', 'w' )
f.write( "15  " )
f.write( str(ee) + "\n" )
f.write( MOL.save_string_xyz() )
f.close()
--------------------------------------------------------------------------

    Molecular point group: c1

    Geometry (in Angstrom), charge = 0, multiplicity = 1:

       Center              X                  Y                   Z               Mass
    ------------   -----------------  -----------------  -----------------  -----------------
           O         -0.992355712406    -1.393264909495     0.056571758980    15.994914619560
           C         -0.681008712406    -0.233881909495    -0.003401241020    12.000000000000
           C         -1.750344712406     0.842504090505    -0.003666241020    12.000000000000
           N          0.619687287594     0.162938090505    -0.096940241020    14.003074004780
           H         -1.705759712406     1.446856090505    -0.903029241020     1.007825032070
           H         -2.707684712406     0.346080090505     0.042262758980     1.007825032070
           H         -1.651582712406     1.503117090505     0.850978758980     1.007825032070
           C          1.638779287594    -0.843962909495    -0.319377241020    12.000000000000
           C          1.107610287594     1.450488090505     0.346219758980    12.000000000000
           H          2.392851287594    -0.451978909495    -0.992980241020     1.007825032070
           H          1.189270287594    -1.718531909495    -0.756425241020     1.007825032070
           H          2.124906287594    -1.126533909495     0.611888758980     1.007825032070
           H          1.942336287594     1.746969090505    -0.277775241020     1.007825032070
           H          0.349845287594     2.213027090505     0.261011758980     1.007825032070
           H          1.453989287594     1.420650090505     1.377696758980     1.007825032070

  Charge       = 0
  Multiplicity = 1
  Basis Set: 6-31G*
  Basis Set:

    Orbital Energies (a.u.)
    -----------------------

    Doubly Occupied:

       1A    -20.516807     2A    -15.581607     3A    -11.341768
       4A    -11.266437     5A    -11.248088     6A    -11.227627
       7A     -1.385286     8A     -1.242853     9A     -1.013263
      10A     -0.972981    11A     -0.918649    12A     -0.737918
      13A     -0.680138    14A     -0.658080    15A     -0.651243
      16A     -0.592302    17A     -0.575598    18A     -0.569017
      19A     -0.559853    20A     -0.547210    21A     -0.530302
      22A     -0.499785    23A     -0.411607    24A     -0.365961

  @DF-RHF Final Energy:  -286.02754213095784

   => Energetics <=

    Nuclear Repulsion Energy =            252.2172730012293869
    One-Electron Energy =                -888.3007867761082252
    Two-Electron Energy =                 350.0559716439211115
    DFT Exchange-Correlation Energy =       0.0000000000000000
    Empirical Dispersion Energy =           0.0000000000000000
    PCM Polarization Energy =               0.0000000000000000
    EFP Energy =                            0.0000000000000000
    Total Energy =                       -286.0275421309577268

  Mulliken Charges: (a.u.)
   Center  Symbol    Alpha    Beta     Spin     Total
       1     O     4.30051  4.30051  0.00000 -0.60103
       2     C     2.62864  2.62864  0.00000  0.74271
       3     C     3.29597  3.29597  0.00000 -0.59195
       4     N     3.82231  3.82231  0.00000 -0.64462
       5     H     0.40568  0.40568  0.00000  0.18864
       6     H     0.39123  0.39123  0.00000  0.21753
       7     H     0.40906  0.40906  0.00000  0.18189
       8     C     3.14135  3.14135  0.00000 -0.28269
       9     C     3.14283  3.14283  0.00000 -0.28565
      10     H     0.41923  0.41923  0.00000  0.16154
      11     H     0.38923  0.38923  0.00000  0.22154
      12     H     0.41934  0.41934  0.00000  0.16132
      13     H     0.41192  0.41192  0.00000  0.17615
      14     H     0.40746  0.40746  0.00000  0.18509
      15     H     0.41524  0.41524  0.00000  0.16953

   Total alpha = 24.00000, Total beta = 24.00000, Total charge =  0.00000
