  ==> Input File <==

--------------------------------------------------------------------------
set {
	reference rhf
	basis 6-31G*
}

set_num_threads( 4 )
memory 2 gb

molecule MOL {
0 1

H	 -0.756394	 4.381235	 5.845212
C	 -1.421942	 3.533107	 5.717746
C	 -1.503242	 3.110247	 4.251542
H	 -1.047461	 2.722923	 6.336379
H	 -2.398214	 3.818217	 6.100375
C	 -2.439929	 1.919587	 4.035299
H	 -0.509558	 2.858085	 3.895720
H	 -1.847734	 3.952233	 3.653146
C	 -2.555732	 1.484829	 2.574189
H	 -2.100186	 1.077306	 4.627566
H	 -3.433259	 2.179232	 4.394358
C	 -1.309734	 0.809355	 2.020596
H	 -3.369566	 0.769296	 2.467148
H	 -2.819183	 2.326775	 1.937874
C	 -1.181045	 0.701995	 0.511084
O	 -0.468659	 0.361332	 2.740509
C	 -2.285934	 -0.139295	 -0.145128
H	 -0.209233	 0.269288	 0.305998
H	 -1.194903	 1.705788	 0.090498
C	 -3.651768	 0.085446	 0.506485
H	 -2.346596	 0.110469	 -1.202272
H	 -2.034737	 -1.195320	 -0.088721
C	 -4.759797	 -0.746382	 -0.137905
H	 -3.908762	 1.140117	 0.445781
H	 -3.588286	 -0.154158	 1.565709
H	 -4.868882	 -0.505166	 -1.191300
H	 -4.548009	 -1.809175	 -0.062213
H	 -5.715422	 -0.564821	 0.343442

	symmetry c1
}
set optking {
	frozen_dihedral = ("
		12 15 17 21
	")
}

ee = optimize('scf')
oeprop('DIPOLE', 'QUADRUPOLE', 'MULLIKEN_CHARGES')
f=open( 'psi4out.xyz', 'w' )
f.write( "28  " )
f.write( str(ee) + "\n" )
f.write( MOL.save_string_xyz() )
f.close()
--------------------------------------------------------------------------

    Molecular point group: c1
  Charge       = 0
  Multiplicity = 1
  Basis Set: 6-31G*
  Basis Set:
  @DF-RHF Final Energy:  -426.12818934219013
    Total Energy =                       -426.1281893421903533
    Molecular point group: c1
  Basis Set: 6-31G*
  Basis Set:
  Basis Set: 6-31G*
  Basis Set:
  @DF-RHF Final Energy:  -426.15261650199750
    Total Energy =                       -426.1526165019973860
  Basis Set: 6-31G*
  Basis Set:
  Basis Set: 6-31G*
  Basis Set:
  @DF-RHF Final Energy:  -426.15823577898686
    Total Energy =                       -426.1582357789870912
  Basis Set: 6-31G*
  Basis Set:
  Basis Set: 6-31G*
  Basis Set:
  @DF-RHF Final Energy:  -426.15886663892093
    Total Energy =                       -426.1588666389216087
  Basis Set: 6-31G*
  Basis Set:
  @DF-RHF Final Energy:  -426.16033737136308
    Total Energy =                       -426.1603373713626297
  @DF-RHF Final Energy:  -426.16197437354867
    Total Energy =                       -426.1619743735485599
  @DF-RHF Final Energy:  -426.16342927378901
    Total Energy =                       -426.1634292737892338
  @DF-RHF Final Energy:  -426.16482839111256
    Total Energy =                       -426.1648283911122235
  @DF-RHF Final Energy:  -426.16562278477386
    Total Energy =                       -426.1656227847738592
  @DF-RHF Final Energy:  -426.16600398205014
    Total Energy =                       -426.1660039820504835
  @DF-RHF Final Energy:  -426.16607358414694
    Total Energy =                       -426.1660735841467158
  @DF-RHF Final Energy:  -426.16616317550779
    Total Energy =                       -426.1661631755083590
  @DF-RHF Final Energy:  -426.16621863423177
    Total Energy =                       -426.1662186342321093
  @DF-RHF Final Energy:  -426.16633305988023
    Total Energy =                       -426.1663330598801167
  @DF-RHF Final Energy:  -426.16645860430856
    Total Energy =                       -426.1664586043086729
  @DF-RHF Final Energy:  -426.16655472145453
    Total Energy =                       -426.1665547214544176
  @DF-RHF Final Energy:  -426.16662484241658
    Total Energy =                       -426.1666248424170362
  Basis Set: 6-31G*
  Basis Set:
  @DF-RHF Final Energy:  -426.16664288637298
    Total Energy =                       -426.1666428863725287
  Basis Set: 6-31G*
  Basis Set:
  Basis Set: 6-31G*
  Basis Set:
  @DF-RHF Final Energy:  -426.16665215568958
    Total Energy =                       -426.1666521556894622
  Basis Set: 6-31G*
  Basis Set:
  Basis Set: 6-31G*
  Basis Set:
  @DF-RHF Final Energy:  -426.16665763809863
    Total Energy =                       -426.1666576380981724
  Basis Set: 6-31G*
  Basis Set:
  Charge       = 0
  Multiplicity = 1
  Basis Set: 6-31G*
  Basis Set:

    Orbital Energies (a.u.)
    -----------------------

    Doubly Occupied:

       1A    -20.549034     2A    -11.324585     3A    -11.231751
       4A    -11.231389     5A    -11.222172     6A    -11.216844
       7A    -11.212245     8A    -11.211968     9A    -11.207164
      10A    -11.205837    11A     -1.395058    12A     -1.087168
      13A     -1.075675    14A     -1.021082    15A     -0.989239
      16A     -0.909810    17A     -0.866182    18A     -0.808450
      19A     -0.790081    20A     -0.721085    21A     -0.673106
      22A     -0.640006    23A     -0.631356    24A     -0.615729
      25A     -0.605795    26A     -0.583708    27A     -0.577309
      28A     -0.574069    29A     -0.545813    30A     -0.524607
      31A     -0.519945    32A     -0.509585    33A     -0.494272
      34A     -0.479384    35A     -0.472490    36A     -0.466992
      37A     -0.465544    38A     -0.459713    39A     -0.456597
      40A     -0.392676

  @DF-RHF Final Energy:  -426.16665749839422

   => Energetics <=

    Nuclear Repulsion Energy =            539.7397803325736731
    One-Electron Energy =               -1647.8818389073526305
    Two-Electron Energy =                 681.9754010763847418
    DFT Exchange-Correlation Energy =       0.0000000000000000
    Empirical Dispersion Energy =           0.0000000000000000
    PCM Polarization Energy =               0.0000000000000000
    EFP Energy =                            0.0000000000000000
    Total Energy =                       -426.1666574983942155
    Molecular point group: c1
  Basis Set: 6-31G*
  Basis Set:

  -Total Gradient:
     Atom            X                  Y                   Z
    ------   -----------------  -----------------  -----------------
       1        0.000001353527     0.000010038520    -0.000002925823
       2       -0.000004016258     0.000016507690    -0.000005716369
       3        0.000004202245    -0.000025841547    -0.000001429735
       4        0.000007448891    -0.000000985469    -0.000010352106
       5       -0.000006014398     0.000000908377     0.000003424282
       6       -0.000003761317    -0.000005268852    -0.000008614049
       7        0.000002934666    -0.000006960936     0.000024679909
       8       -0.000004170154    -0.000010077582    -0.000012735785
       9        0.000023227301     0.000016525998     0.000018329253
      10        0.000004557685    -0.000011157269    -0.000009075447
      11       -0.000010431216    -0.000006317864     0.000011602909
      12       -0.004955369650     0.002006607553    -0.000731429314
      13       -0.000015015996     0.000007562205    -0.000003338753
      14        0.000008299901     0.000000971988    -0.000006734342
      15        0.005759724780    -0.002537969640     0.001333193951
      16        0.000001710823     0.000017796237    -0.000009518677
      17        0.005954573233    -0.001045160655    -0.001803443840
      18       -0.000005681894    -0.000004809073     0.000010826190
      19       -0.000003987722    -0.000000330999     0.000002629658
      20        0.000005364872    -0.000007344090    -0.000013815521
      21       -0.006757563764     0.001588364183     0.001211452189
      22       -0.000000469875    -0.000005005861    -0.000001141120
      23       -0.000005479338     0.000007807222     0.000004925612
      24       -0.000005212673     0.000004535718    -0.000001470505
      25        0.000005842178    -0.000004877131     0.000004119045
      26        0.000000429508    -0.000001887075    -0.000001008333
      27       -0.000000852381    -0.000000556972     0.000000099967
      28       -0.000001642974    -0.000003074674    -0.000002533244

  **** Optimization is complete! (in 21 steps) ****
    Final optimized geometry and variables:
    Molecular point group: c1

    Geometry (in Angstrom), charge = 0, multiplicity = 1:

    H            2.467808010048     1.893831388368     4.203186679355
    C            1.438287079291     1.875573699772     3.859294205963
    C            1.365864021667     1.710954657489     2.341835661949
    H            0.935521605217     1.056068255706     4.364294367305
    H            0.966417570600     2.800951032407     4.178507757575
    C           -0.073403011618     1.692033252922     1.821877548491
    H            1.865634217244     0.791487301199     2.055999502507
    H            1.908625930065     2.526104585794     1.865771887132
    C           -0.177481109630     1.547729370090     0.304627629882
    H           -0.619123357081     0.881180242867     2.292122879211
    H           -0.567949516041     2.616139275412     2.112482270104
    C            0.164505782781     0.167230604553    -0.228933540523
    H           -1.194475716582     1.757310433858    -0.026639989356
    H            0.447736859549     2.281358287316    -0.201241061340
    C            0.354403024154     0.060494487473    -1.733755558130
    O            0.295654570332    -0.776345765156     0.491403791595
    C           -0.074877907749    -1.263484227162    -2.388246147208
    H            1.409752013433     0.247815925178    -1.924746444719
    H           -0.179407949825     0.883554412881    -2.202079432450
    C           -1.403238681640    -1.838511870424    -1.878725132320
    H           -0.216999989651    -1.059905362658    -3.446690968079
    H            0.706592514164    -2.008511182923    -2.288169369327
    C           -1.863192620666    -3.037411865022    -2.708005518180
    H           -2.168440070665    -1.063584409031    -1.917522803318
    H           -1.307299977403    -2.132279923549    -0.841916259888
    H           -2.014277964735    -2.766343543491    -3.749393144853
    H           -1.128364607749    -3.837049116740    -2.678261325740
    H           -2.799476587401    -3.437039004158    -2.331106496057

  Mulliken Charges: (a.u.)
   Center  Symbol    Alpha    Beta     Spin     Total
       1     H     0.41933  0.41933  0.00000  0.16134
       2     C     3.24015  3.24015  0.00000 -0.48029
       3     C     3.15645  3.15645  0.00000 -0.31291
       4     H     0.41849  0.41849  0.00000  0.16301
       5     H     0.42369  0.42369  0.00000  0.15263
       6     C     3.14935  3.14935  0.00000 -0.29869
       7     H     0.40911  0.40911  0.00000  0.18177
       8     H     0.42775  0.42775  0.00000  0.14450
       9     C     3.21323  3.21323  0.00000 -0.42645
      10     H     0.40773  0.40773  0.00000  0.18454
      11     H     0.42171  0.42171  0.00000  0.15659
      12     C     2.72830  2.72830  0.00000  0.54340
      13     H     0.40484  0.40484  0.00000  0.19032
      14     H     0.41035  0.41035  0.00000  0.17931
      15     C     3.20933  3.20933  0.00000 -0.41866
      16     O     4.27103  4.27103  0.00000 -0.54206
      17     C     3.14461  3.14461  0.00000 -0.28922
      18     H     0.40147  0.40147  0.00000  0.19707
      19     H     0.41395  0.41395  0.00000  0.17209
      20     C     3.16332  3.16332  0.00000 -0.32665
      21     H     0.42095  0.42095  0.00000  0.15810
      22     H     0.41263  0.41263  0.00000  0.17474
      23     C     3.24030  3.24030  0.00000 -0.48061
      24     H     0.42922  0.42922  0.00000  0.14157
      25     H     0.40003  0.40003  0.00000  0.19994
      26     H     0.42408  0.42408  0.00000  0.15185
      27     H     0.42021  0.42021  0.00000  0.15959
      28     H     0.41841  0.41841  0.00000  0.16319

   Total alpha = 40.00000, Total beta = 40.00000, Total charge = -0.00000
