  ==> Input File <==

--------------------------------------------------------------------------
set {
	reference rhf
	basis 6-31G*
}

set_num_threads( 4 )
memory 2 gb

molecule MOL {
0 1

O	 -2.324811	 1.361668	 -0.277141
C	 -2.105949	 0.203097	 -0.092081
C	 -0.889235	 -0.467034	 -0.705952
C	 -3.002726	 -0.644460	 0.782455
C	 -0.213207	 0.457560	 -1.731258
H	 -1.226529	 -1.371108	 -1.201114
H	 -0.178198	 -0.748916	 0.065409
C	 0.999333	 -0.200514	 -2.394056
H	 -0.951537	 0.734504	 -2.475270
H	 0.101512	 1.378425	 -1.242681
C	 1.753381	 0.704131	 -3.375424
H	 0.678645	 -1.102913	 -2.911319
H	 1.690964	 -0.522992	 -1.618490
C	 0.958549	 1.085536	 -4.625531
H	 2.662561	 0.192992	 -3.681723
H	 2.072938	 1.607100	 -2.859073
H	 0.617416	 0.200706	 -5.156030
H	 1.572224	 1.663646	 -5.309338
H	 0.086283	 1.684563	 -4.386556
H	 -3.496582	 -1.399307	 0.176174
H	 -3.747939	 -0.023774	 1.260148
H	 -2.421318	 -1.168775	 1.535358

	symmetry c1
}
set optking {
	frozen_dihedral = ("
		6 3 2 1
	")
}

ee = optimize('scf')
oeprop('DIPOLE', 'QUADRUPOLE', 'MULLIKEN_CHARGES')
f=open( 'psi4out.xyz', 'w' )
f.write( "22  " )
f.write( str(ee) + "\n" )
f.write( MOL.save_string_xyz() )
f.close()
--------------------------------------------------------------------------

    Molecular point group: c1
  Charge       = 0
  Multiplicity = 1
  Basis Set: 6-31G*
  Basis Set:
  @DF-RHF Final Energy:  -348.09904403526087
    Total Energy =                       -348.0990440352610449
    Molecular point group: c1
  Basis Set: 6-31G*
  Basis Set:
  Basis Set: 6-31G*
  Basis Set:
  @DF-RHF Final Energy:  -348.09922755275727
    Total Energy =                       -348.0992275527571564
  Basis Set: 6-31G*
  Basis Set:
  Basis Set: 6-31G*
  Basis Set:
  @DF-RHF Final Energy:  -348.10000082617893
    Total Energy =                       -348.1000008261791550
  Basis Set: 6-31G*
  Basis Set:
  Basis Set: 6-31G*
  Basis Set:
  @DF-RHF Final Energy:  -348.10026604411109
    Total Energy =                       -348.1002660441110947
  Basis Set: 6-31G*
  Basis Set:
  @DF-RHF Final Energy:  -348.10028528672376
    Total Energy =                       -348.1002852867241018
  @DF-RHF Final Energy:  -348.10028481014990
    Total Energy =                       -348.1002848101499012
  @DF-RHF Final Energy:  -348.10023056969425
    Total Energy =                       -348.1002305696944745
  Basis Set: 6-31G*
  Basis Set:
  @DF-RHF Final Energy:  -348.10029109281891
    Total Energy =                       -348.1002910928184519
  Basis Set: 6-31G*
  Basis Set:
  Basis Set: 6-31G*
  Basis Set:
  @DF-RHF Final Energy:  -348.10027956579887
    Total Energy =                       -348.1002795657992692
  Basis Set: 6-31G*
  Basis Set:
  Basis Set: 6-31G*
  Basis Set:
  @DF-RHF Final Energy:  -348.10029322576031
    Total Energy =                       -348.1002932257603106
  Basis Set: 6-31G*
  Basis Set:
  Charge       = 0
  Multiplicity = 1
  Basis Set: 6-31G*
  Basis Set:

    Orbital Energies (a.u.)
    -----------------------

    Doubly Occupied:

       1A    -20.550407     2A    -11.326409     3A    -11.232051
       4A    -11.228463     5A    -11.217457     6A    -11.216562
       7A    -11.216133     8A    -11.207754     9A     -1.395779
      10A     -1.090495    11A     -1.042858    12A     -1.000854
      13A     -0.934837    14A     -0.854216    15A     -0.781265
      16A     -0.730925    17A     -0.655254    18A     -0.650342
      19A     -0.630071    20A     -0.612280    21A     -0.601873
      22A     -0.579757    23A     -0.559174    24A     -0.547789
      25A     -0.522413    26A     -0.512530    27A     -0.497372
      28A     -0.483677    29A     -0.464293    30A     -0.461953
      31A     -0.457824    32A     -0.399880

  @DF-RHF Final Energy:  -348.10029342082316

   => Energetics <=

    Nuclear Repulsion Energy =            372.3660761493333666
    One-Electron Energy =               -1209.6068422752323386
    Two-Electron Energy =                 489.1404727050758083
    DFT Exchange-Correlation Energy =       0.0000000000000000
    Empirical Dispersion Energy =           0.0000000000000000
    PCM Polarization Energy =               0.0000000000000000
    EFP Energy =                            0.0000000000000000
    Total Energy =                       -348.1002934208231636
    Molecular point group: c1
  Basis Set: 6-31G*
  Basis Set:

  -Total Gradient:
     Atom            X                  Y                   Z
    ------   -----------------  -----------------  -----------------
       1        0.000123721124     0.000054250258     0.000162378723
       2       -0.000170145476    -0.000110416785    -0.000199168276
       3        0.000002819922     0.000149272174    -0.000142871092
       4        0.000009094872     0.000001995053     0.000013011097
       5        0.000002737995    -0.000000079810    -0.000007254828
       6        0.000038983478    -0.000103919079     0.000181111832
       7       -0.000005388114    -0.000002085619     0.000005307154
       8       -0.000000883189     0.000006866600     0.000002312012
       9        0.000002251039     0.000004183925    -0.000002740615
      10        0.000005090514    -0.000002165411    -0.000008045895
      11        0.000001136018     0.000004099312     0.000001137887
      12       -0.000003157522     0.000001702453     0.000001034611
      13       -0.000001782873    -0.000000915361     0.000002011805
      14        0.000001297833    -0.000001412624    -0.000000314638
      15       -0.000001654058     0.000000283529    -0.000001925509
      16        0.000002625203     0.000000514615    -0.000000596420
      17       -0.000000063266    -0.000000089270    -0.000001634356
      18       -0.000000181997     0.000000740330     0.000000260138
      19        0.000000337328    -0.000001182014     0.000001144998
      20       -0.000002491192     0.000003360896    -0.000003516172
      21       -0.000002081922    -0.000001212651    -0.000000319129
      22       -0.000002265716    -0.000003790523    -0.000001323327

  **** Optimization is complete! (in 11 steps) ****
    Final optimized geometry and variables:
    Molecular point group: c1

    Geometry (in Angstrom), charge = 0, multiplicity = 1:

    O           -1.807213898528     1.038386124422     1.298528632301
    C           -1.514140041332    -0.103936073893     1.477581491357
    C           -0.308458932494    -0.744017592307     0.813447618798
    C           -2.333488587224    -0.995334549693     2.387950045457
    C            0.392826533947     0.154966220131    -0.200954665190
    H           -0.629359161686    -1.675880273365     0.350397754574
    H            0.380116033432    -1.038510464772     1.604923831986
    C            1.602996851058    -0.529645284500    -0.841284505131
    H           -0.323136327711     0.450597863560    -0.959673142760
    H            0.705346635264     1.070016533996     0.292108511047
    C            2.396278676881     0.359410031658    -1.805820242744
    H            1.278125139103    -1.426312860206    -1.367606515502
    H            2.274266791574    -0.867607599436    -0.053866651125
    C            1.632934240290     0.765714411947    -3.067659773198
    H            3.298535122298    -0.171632562696    -2.099109823850
    H            2.727025288532     1.252569610949    -1.280069486011
    H            1.278570258903    -0.108325012383    -3.607818854692
    H            2.272760514944     1.330270486241    -3.738830734422
    H            0.772884342707     1.386300604424    -2.840194645978
    H           -2.819878811489    -1.771574191466     1.803621785425
    H           -3.085893942573    -0.407251855769     2.894831803138
    H           -1.700818330046    -1.490309177605     3.118346125794

  Mulliken Charges: (a.u.)
   Center  Symbol    Alpha    Beta     Spin     Total
       1     O     4.26147  4.26147  0.00000 -0.52294
       2     C     2.73538  2.73538  0.00000  0.52923
       3     C     3.21062  3.21062  0.00000 -0.42125
       4     C     3.28683  3.28683  0.00000 -0.57366
       5     C     3.15007  3.15007  0.00000 -0.30013
       6     H     0.41104  0.41104  0.00000  0.17791
       7     H     0.40881  0.40881  0.00000  0.18238
       8     C     3.15445  3.15445  0.00000 -0.30890
       9     H     0.41158  0.41158  0.00000  0.17684
      10     H     0.41114  0.41114  0.00000  0.17773
      11     C     3.15223  3.15223  0.00000 -0.30445
      12     H     0.42531  0.42531  0.00000  0.14939
      13     H     0.42351  0.42351  0.00000  0.15298
      14     C     3.24217  3.24217  0.00000 -0.48433
      15     H     0.42109  0.42109  0.00000  0.15781
      16     H     0.42164  0.42164  0.00000  0.15673
      17     H     0.42303  0.42303  0.00000  0.15395
      18     H     0.41881  0.41881  0.00000  0.16239
      19     H     0.41710  0.41710  0.00000  0.16580
      20     H     0.40723  0.40723  0.00000  0.18555
      21     H     0.39654  0.39654  0.00000  0.20693
      22     H     0.40997  0.40997  0.00000  0.18006

   Total alpha = 32.00000, Total beta = 32.00000, Total charge =  0.00000
