  ==> Input File <==

--------------------------------------------------------------------------
set {
	reference rhf
	basis 6-31G*
}

set_num_threads( 4 )
memory 2 gb

molecule MOL {
0 1

H	 -3.202674	 -0.284171	 1.571187
C	 -3.282507	 -0.297082	 0.477075
C	 -2.671510	 0.891457	 -0.220541
O	 -3.820897	 -1.202965	 -0.071800
C	 -1.220012	 1.144545	 0.209990
H	 -2.748722	 0.737017	 -1.290539
H	 -3.277679	 1.759403	 0.036135
C	 -0.252658	 0.041456	 -0.226725
H	 -0.897702	 2.093430	 -0.208363
H	 -1.179248	 1.261464	 1.291852
C	 1.180775	 0.282413	 0.250794
H	 -0.266029	 -0.034465	 -1.312038
H	 -0.597733	 -0.921000	 0.146291
C	 2.148627	 -0.814315	 -0.201312
H	 1.516199	 1.249228	 -0.115937
H	 1.192670	 0.346017	 1.338083
C	 3.580890	 -0.659131	 0.322722
H	 2.166869	 -0.852443	 -1.289387
H	 1.762857	 -1.776509	 0.128956
C	 4.324889	 0.564933	 -0.213704
H	 4.142010	 -1.551473	 0.056605
H	 3.564836	 -0.624694	 1.410140
H	 4.342616	 0.565491	 -1.300421
H	 3.866655	 1.493402	 0.110242
H	 5.353900	 0.572371	 0.132816

	symmetry c1
}
set optking {
	frozen_dihedral = ("
		3 5 8 12
	")
}

ee = optimize('scf')
oeprop('DIPOLE', 'QUADRUPOLE', 'MULLIKEN_CHARGES')
f=open( 'psi4out.xyz', 'w' )
f.write( "25  " )
f.write( str(ee) + "\n" )
f.write( MOL.save_string_xyz() )
f.close()
--------------------------------------------------------------------------

    Molecular point group: c1
  Charge       = 0
  Multiplicity = 1
  Basis Set: 6-31G*
  Basis Set:
  @DF-RHF Final Energy:  -387.12202753952431
    Total Energy =                       -387.1220275395241970
    Molecular point group: c1
  Basis Set: 6-31G*
  Basis Set:
  Basis Set: 6-31G*
  Basis Set:
  @DF-RHF Final Energy:  -387.12160794775860
    Total Energy =                       -387.1216079477580934
  Basis Set: 6-31G*
  Basis Set:
  Basis Set: 6-31G*
  Basis Set:
  @DF-RHF Final Energy:  -387.12195806309364
    Total Energy =                       -387.1219580630930750
  Basis Set: 6-31G*
  Basis Set:
  Basis Set: 6-31G*
  Basis Set:
  @DF-RHF Final Energy:  -387.12203248364705
    Total Energy =                       -387.1220324836461941
  Basis Set: 6-31G*
  Basis Set:
  @DF-RHF Final Energy:  -387.12202094768747
    Total Energy =                       -387.1220209476872469
  Basis Set: 6-31G*
  Basis Set:
  @DF-RHF Final Energy:  -387.12203627655583
    Total Energy =                       -387.1220362765556047
  Basis Set: 6-31G*
  Basis Set:
  Basis Set: 6-31G*
  Basis Set:
  @DF-RHF Final Energy:  -387.12203226163672
    Total Energy =                       -387.1220322616368321
  Basis Set: 6-31G*
  Basis Set:
  Basis Set: 6-31G*
  Basis Set:
  @DF-RHF Final Energy:  -387.12203668130360
    Total Energy =                       -387.1220366813038254
  Basis Set: 6-31G*
  Basis Set:
  Charge       = 0
  Multiplicity = 1
  Basis Set: 6-31G*
  Basis Set:

    Orbital Energies (a.u.)
    -----------------------

    Doubly Occupied:

       1A    -20.562105     2A    -11.326237     3A    -11.235383
       4A    -11.234695     5A    -11.223977     6A    -11.219861
       7A    -11.218054     8A    -11.216992     9A    -11.210727
      10A     -1.402046    11A     -1.104001    12A     -1.069722
      13A     -1.013399    14A     -0.942509    15A     -0.875298
      16A     -0.820508    17A     -0.788316    18A     -0.781246
      19A     -0.664502    20A     -0.662146    21A     -0.633021
      22A     -0.625772    23A     -0.601821    24A     -0.594313
      25A     -0.575487    26A     -0.549924    27A     -0.535735
      28A     -0.524926    29A     -0.508305    30A     -0.495161
      31A     -0.491640    32A     -0.479561    33A     -0.464673
      34A     -0.458944    35A     -0.441217    36A     -0.409677

  @DF-RHF Final Energy:  -387.12203665821721

   => Energetics <=

    Nuclear Repulsion Energy =            439.1736632390012574
    One-Electron Energy =               -1394.6675974511945242
    Two-Electron Energy =                 568.3718975539761686
    DFT Exchange-Correlation Energy =       0.0000000000000000
    Empirical Dispersion Energy =           0.0000000000000000
    PCM Polarization Energy =               0.0000000000000000
    EFP Energy =                            0.0000000000000000
    Total Energy =                       -387.1220366582170982
    Molecular point group: c1
  Basis Set: 6-31G*
  Basis Set:

  -Total Gradient:
     Atom            X                  Y                   Z
    ------   -----------------  -----------------  -----------------
       1        0.000000583871    -0.000000354937    -0.000000461424
       2       -0.000000640853     0.000000077505    -0.000000297440
       3       -0.000059317143    -0.000178369572     0.000313229115
       4       -0.000000625430    -0.000000032609    -0.000000158182
       5        0.000168762744     0.000319821728    -0.000435178018
       6       -0.000000068692    -0.000000050399     0.000000104720
       7       -0.000000896227     0.000000299764    -0.000000080783
       8       -0.000475932322    -0.000479191846     0.000155274311
       9        0.000001037435    -0.000003511467    -0.000001358182
      10        0.000000286938     0.000002658508     0.000002314560
      11        0.000001172191     0.000002556789    -0.000004674690
      12        0.000366177183     0.000336112258    -0.000028109947
      13        0.000000300492    -0.000001558314    -0.000003473350
      14       -0.000002770124    -0.000000524543     0.000005271361
      15       -0.000000734149    -0.000002836044    -0.000004720448
      16        0.000002050026     0.000004499522    -0.000001219253
      17       -0.000001626892    -0.000000954135     0.000006140997
      18        0.000001487887     0.000004400146     0.000000918691
      19       -0.000002532106    -0.000002174884    -0.000002660953
      20       -0.000000165370     0.000000621790    -0.000000564516
      21       -0.000001027297    -0.000000361363     0.000000163980
      22        0.000001587964     0.000000191051     0.000000422152
      23        0.000000707797     0.000000041789    -0.000000720504
      24        0.000002513128    -0.000001022910    -0.000000726167
      25       -0.000000331052    -0.000000337823     0.000000563971

  **** Optimization is complete! (in 9 steps) ****
    Final optimized geometry and variables:
    Molecular point group: c1

    Geometry (in Angstrom), charge = 0, multiplicity = 1:

    H           -3.216404465187    -0.254650725674     1.544296424030
    C           -3.290302712079    -0.280497021875     0.449907749610
    C           -2.673808533291     0.898950748514    -0.258377796864
    O           -3.832447444647    -1.189322371278    -0.090411565896
    C           -1.222251398897     1.150999959530     0.172962478454
    H           -2.749533691060     0.733798618774    -1.326977169082
    H           -3.277655541951     1.771374841311    -0.011900199319
    C           -0.255262000699     0.046908155649    -0.262312077607
    H           -0.897303900984     2.100301390582    -0.242632530624
    H           -1.183921960735     1.265812180294     1.255062030980
    C            1.179393191588     0.291737803862     0.210179558332
    H           -0.268933362773    -0.028521736192    -1.347681952588
    H           -0.597739385931    -0.915561932136     0.112827762561
    C            2.148396134066    -0.803221649804    -0.243862046988
    H            1.511662757377     1.259346033133    -0.157400896428
    H            1.194316126141     0.355392023976     1.297307117971
    C            3.579405654350    -0.650285397531     0.284127257545
    H            2.169663612131    -0.836224860968    -1.331952289309
    H            1.761758993549    -1.766949875784     0.080777265929
    C            4.323526553147     0.578291973149    -0.242338486059
    H            4.141846557138    -1.540513144758     0.013958102746
    H            3.560340297112    -0.622868975500     1.371770527438
    H            4.347508338808     0.583987562956    -1.328809365474
    H            3.861528051847     1.504405573982     0.083390729980
    H            5.350462146083     0.586536748618     0.109697516021

  Mulliken Charges: (a.u.)
   Center  Symbol    Alpha    Beta     Spin     Total
       1     H     0.43259  0.43259  0.00000  0.13482
       2     C     2.83082  2.83082  0.00000  0.33836
       3     C     3.20807  3.20807  0.00000 -0.41614
       4     O     4.23776  4.23776  0.00000 -0.47553
       5     C     3.16670  3.16670  0.00000 -0.33339
       6     H     0.39971  0.39971  0.00000  0.20058
       7     H     0.40662  0.40662  0.00000  0.18675
       8     C     3.15476  3.15476  0.00000 -0.30952
       9     H     0.41275  0.41275  0.00000  0.17450
      10     H     0.41976  0.41976  0.00000  0.16048
      11     C     3.15427  3.15427  0.00000 -0.30854
      12     H     0.41816  0.41816  0.00000  0.16368
      13     H     0.41808  0.41808  0.00000  0.16383
      14     C     3.15309  3.15309  0.00000 -0.30619
      15     H     0.42086  0.42086  0.00000  0.15828
      16     H     0.42382  0.42382  0.00000  0.15236
      17     C     3.15275  3.15275  0.00000 -0.30551
      18     H     0.42306  0.42306  0.00000  0.15388
      19     H     0.42058  0.42058  0.00000  0.15884
      20     C     3.24137  3.24137  0.00000 -0.48274
      21     H     0.41994  0.41994  0.00000  0.16012
      22     H     0.42325  0.42325  0.00000  0.15350
      23     H     0.42190  0.42190  0.00000  0.15619
      24     H     0.42067  0.42067  0.00000  0.15867
      25     H     0.41864  0.41864  0.00000  0.16272

   Total alpha = 36.00000, Total beta = 36.00000, Total charge =  0.00000
