  ==> Input File <==

--------------------------------------------------------------------------
set {
	reference rhf
	basis cc-pvtz
}

set_num_threads( 4 )
memory 2 gb

molecule MOL {
0 1

O	 1.847685	 1.294399	 -0.000190
C	 1.704209	 0.119472	 -0.000093
C	 0.380337	 -0.600947	 -0.000234
O	 2.715427	 -0.733672	 0.000025
C	 -0.824290	 0.329213	 -0.000115
H	 0.371455	 -1.255476	 -0.865660
H	 0.371410	 -1.255787	 0.864952
C	 -2.146151	 -0.432825	 -0.000068
H	 -0.773936	 0.979158	 -0.866319
H	 -0.773838	 0.979034	 0.866186
C	 -3.366283	 0.483552	 0.000557
H	 -2.189286	 -1.084450	 -0.869996
H	 -2.188867	 -1.085083	 0.869399
C	 -4.661374	 -0.243538	 0.346233
H	 -3.464067	 0.949928	 -0.975706
H	 -3.206432	 1.291827	 0.708582
H	 -4.867129	 -1.036735	 -0.364919
H	 -5.506561	 0.434929	 0.337584
H	 -4.607612	 -0.691799	 1.332846
C	 4.020999	 -0.192556	 0.000019
H	 4.182809	 0.412891	 -0.879449
H	 4.692590	 -1.035653	 0.000152
H	 4.182726	 0.413087	 0.879368

	symmetry c1
}
set optking {
	frozen_dihedral = ("
		15 11 8 12
	")
}

ee = optimize('scf')
oeprop('DIPOLE', 'QUADRUPOLE', 'MULLIKEN_CHARGES')
f=open( 'psi4out.xyz', 'w' )
f.write( "23  " )
f.write( str(ee) + "\n" )
f.write( MOL.save_string_xyz() )
f.close()
--------------------------------------------------------------------------

    Molecular point group: c1
  Charge       = 0
  Multiplicity = 1
  Basis Set: CC-PVTZ
  Basis Set:
  @DF-RHF Final Energy:  -423.13033681049541
    Total Energy =                       -423.1303368104954643
    Molecular point group: c1
  Basis Set: CC-PVTZ
  Basis Set:
  Basis Set: CC-PVTZ
  Basis Set:
  @DF-RHF Final Energy:  -423.13042716597027
    Total Energy =                       -423.1304271659701044
  Basis Set: CC-PVTZ
  Basis Set:
  Basis Set: CC-PVTZ
  Basis Set:
  @DF-RHF Final Energy:  -423.13044484356197
    Total Energy =                       -423.1304448435615768
  Basis Set: CC-PVTZ
  Basis Set:
  Basis Set: CC-PVTZ
  Basis Set:
  @DF-RHF Final Energy:  -423.13037793796985
    Total Energy =                       -423.1303779379701382
  Basis Set: CC-PVTZ
  Basis Set:
  Basis Set: CC-PVTZ
  Basis Set:
  @DF-RHF Final Energy:  -423.13045621264263
    Total Energy =                       -423.1304562126424571
  Basis Set: CC-PVTZ
  Basis Set:
  Charge       = 0
  Multiplicity = 1
  Basis Set: CC-PVTZ
  Basis Set:

    Orbital Energies (a.u.)
    -----------------------

    Doubly Occupied:

       1A    -20.596255     2A    -20.534060     3A    -11.364502
       4A    -11.278443     5A    -11.233684     6A    -11.217062
       7A    -11.215850     8A    -11.214546     9A    -11.207614
      10A     -1.472141    11A     -1.365715    12A     -1.094324
      13A     -1.044588    14A     -0.987965    15A     -0.932568
      16A     -0.843826    17A     -0.795316    18A     -0.769234
      19A     -0.699046    20A     -0.686875    21A     -0.675357
      22A     -0.652893    23A     -0.610368    24A     -0.600777
      25A     -0.573658    26A     -0.562186    27A     -0.555229
      28A     -0.525241    29A     -0.522668    30A     -0.507323
      31A     -0.485809    32A     -0.469256    33A     -0.467459
      34A     -0.462861    35A     -0.459041    36A     -0.438211

  @DF-RHF Final Energy:  -423.13045630194455

   => Energetics <=

    Nuclear Repulsion Energy =            452.9217745158373987
    One-Electron Energy =               -1473.8605542034831615
    Two-Electron Energy =                 597.8083233857011010
    DFT Exchange-Correlation Energy =       0.0000000000000000
    Empirical Dispersion Energy =           0.0000000000000000
    PCM Polarization Energy =               0.0000000000000000
    EFP Energy =                            0.0000000000000000
    Total Energy =                       -423.1304563019447187
    Molecular point group: c1
  Basis Set: CC-PVTZ
  Basis Set:

  -Total Gradient:
     Atom            X                  Y                   Z
    ------   -----------------  -----------------  -----------------
       1       -0.000006432919     0.000011567600    -0.000004084581
       2        0.000007697693    -0.000011379542     0.000005803787
       3        0.000007155946    -0.000003345845    -0.000002776527
       4       -0.000006826970    -0.000003537917    -0.000002040132
       5       -0.000011820716     0.000001064064     0.000027084390
       6        0.000001269756    -0.000002194299    -0.000002345522
       7        0.000002063468     0.000000730489    -0.000000104584
       8       -0.001997341407    -0.002582830654     0.001487068503
       9       -0.000004687524     0.000003360127    -0.000000418612
      10        0.000011710286     0.000005914036     0.000001933908
      11        0.002127041507     0.002826241653     0.000653033790
      12        0.001336168535     0.001725663309    -0.001373439277
      13       -0.000001591674     0.000011297064    -0.000000721525
      14        0.000014308043     0.000005612374     0.000013277371
      15       -0.001463814451    -0.001970707654    -0.000807194655
      16       -0.000000397786    -0.000010406398    -0.000000895985
      17        0.000001308161    -0.000002028710    -0.000002971842
      18       -0.000007163452     0.000003536049    -0.000000098000
      19       -0.000009853807    -0.000009356219     0.000009099005
      20        0.000003552750     0.000002170617     0.000000054044
      21       -0.000000460948    -0.000000052017    -0.000000102297
      22       -0.000001207052    -0.000001095566    -0.000000043438
      23       -0.000000677434    -0.000000222562    -0.000000117821

  **** Optimization is complete! (in 6 steps) ****
    Final optimized geometry and variables:
    Molecular point group: c1

    Geometry (in Angstrom), charge = 0, multiplicity = 1:

    O            1.845749887715     1.289823460739    -0.031852054330
    C            1.702245260464     0.114920326068    -0.040719089111
    C            0.378451067854    -0.605549310671    -0.033466872708
    O            2.713479247666    -0.738103750308    -0.058760562935
    C           -0.826161100462     0.324346872323    -0.012892692112
    H            0.361039182750    -1.252848853856    -0.904165101609
    H            0.378393021495    -1.267651751401     0.826310155482
    C           -2.148964076749    -0.438166887342     0.001068220051
    H           -0.787548079889     0.978630794000    -0.876737937948
    H           -0.764299105546     0.970014337406     0.855592525435
    C           -3.366739724304     0.483627030460    -0.030021732966
    H           -2.181173703489    -1.096847804419    -0.863566769987
    H           -2.192525496472    -1.072409717867     0.882872401547
    C           -4.672977753939    -0.246456313170     0.269214368077
    H           -3.442076780334     0.938762401321    -1.013224846691
    H           -3.233051499171     1.291251718593     0.683076901488
    H           -4.839839364854    -1.054541865841    -0.435664262376
    H           -5.521396627810     0.425332123742     0.207362632052
    H           -4.662716899413    -0.675871310424     1.265463019702
    C            4.018892953465    -0.196891712204    -0.067492350453
    H            4.171636524731     0.416431892587    -0.943134175254
    H            4.690523749218    -1.039857940011    -0.081893512412
    H            4.189840006488     0.400889271940     0.815502589396

  Mulliken Charges: (a.u.)
   Center  Symbol    Alpha    Beta     Spin     Total
       1     O     4.19701  4.19701  0.00000 -0.39402
       2     C     2.80678  2.80678  0.00000  0.38644
       3     C     3.10155  3.10155  0.00000 -0.20310
       4     O     4.14647  4.14647  0.00000 -0.29295
       5     C     3.08336  3.08336  0.00000 -0.16672
       6     H     0.44011  0.44011  0.00000  0.11977
       7     H     0.44009  0.44009  0.00000  0.11981
       8     C     3.08971  3.08971  0.00000 -0.17941
       9     H     0.44636  0.44636  0.00000  0.10728
      10     H     0.44646  0.44646  0.00000  0.10707
      11     C     3.08433  3.08433  0.00000 -0.16867
      12     H     0.45526  0.45526  0.00000  0.08948
      13     H     0.45582  0.45582  0.00000  0.08836
      14     C     3.15000  3.15000  0.00000 -0.30001
      15     H     0.45293  0.45293  0.00000  0.09414
      16     H     0.45309  0.45309  0.00000  0.09382
      17     H     0.45536  0.45536  0.00000  0.08928
      18     H     0.44803  0.44803  0.00000  0.10393
      19     H     0.45541  0.45541  0.00000  0.08918
      20     C     3.03778  3.03778  0.00000 -0.07556
      21     H     0.45437  0.45437  0.00000  0.09127
      22     H     0.44535  0.44535  0.00000  0.10930
      23     H     0.45435  0.45435  0.00000  0.09129

   Total alpha = 36.00000, Total beta = 36.00000, Total charge = -0.00000
