  ==> Input File <==

--------------------------------------------------------------------------
set {
	reference rhf
	basis cc-pvtz
}

set_num_threads( 4 )
memory 2 gb

molecule MOL {
0 1

H	 -2.698799	 -0.000846	 0.036018
C	 -1.694291	 -0.000483	 0.434279
O	 -0.828718	 -0.000608	 -0.655022
H	 -1.576855	 0.881100	 1.056504
H	 -1.576401	 -0.881658	 1.057001
C	 0.557892	 0.000078	 -0.420099
C	 1.151547	 1.404300	 -0.422267
C	 0.940959	 -0.788452	 0.827189
H	 0.954590	 -0.527252	 -1.278686
H	 0.829299	 1.948437	 -1.301546
H	 2.233733	 1.345711	 -0.435995
H	 0.866644	 1.971159	 0.456416
H	 0.472743	 -1.765004	 0.814375
H	 2.015510	 -0.926672	 0.858961
H	 0.650371	 -0.279830	 1.739003

	symmetry c1
}
set optking {
	frozen_dihedral = ("
		9 6 3 2
	")
}

ee = optimize('scf')
oeprop('DIPOLE', 'QUADRUPOLE', 'MULLIKEN_CHARGES')
f=open( 'psi4out.xyz', 'w' )
f.write( "15  " )
f.write( str(ee) + "\n" )
f.write( MOL.save_string_xyz() )
f.close()
--------------------------------------------------------------------------

    Molecular point group: c1
  Charge       = 0
  Multiplicity = 1
  Basis Set: CC-PVTZ
  Basis Set:
  @DF-RHF Final Energy:  -232.22336689948503
    Total Energy =                       -232.2233668994851996
    Molecular point group: c1
  Basis Set: CC-PVTZ
  Basis Set:
  Basis Set: CC-PVTZ
  Basis Set:
  @DF-RHF Final Energy:  -232.22394969035614
    Total Energy =                       -232.2239496903561076
  Basis Set: CC-PVTZ
  Basis Set:
  Basis Set: CC-PVTZ
  Basis Set:
  @DF-RHF Final Energy:  -232.22438399405155
    Total Energy =                       -232.2243839940517773
  Basis Set: CC-PVTZ
  Basis Set:
  Basis Set: CC-PVTZ
  Basis Set:
  @DF-RHF Final Energy:  -232.22440673231858
    Total Energy =                       -232.2244067323186982
  Basis Set: CC-PVTZ
  Basis Set:
  Basis Set: CC-PVTZ
  Basis Set:
  @DF-RHF Final Energy:  -232.22441554179261
    Total Energy =                       -232.2244155417926095
  Basis Set: CC-PVTZ
  Basis Set:
  Charge       = 0
  Multiplicity = 1
  Basis Set: CC-PVTZ
  Basis Set:

    Orbital Energies (a.u.)
    -----------------------

    Doubly Occupied:

       1A    -20.540414     2A    -11.272805     3A    -11.259365
       4A    -11.211898     5A    -11.205769     6A     -1.371829
       7A     -1.052289     8A     -0.945578     9A     -0.924980
      10A     -0.781414    11A     -0.676335    12A     -0.643838
      13A     -0.634074    14A     -0.577688    15A     -0.556826
      16A     -0.551239    17A     -0.535134    18A     -0.504927
      19A     -0.494557    20A     -0.445956    21A     -0.405642

  @DF-RHF Final Energy:  -232.22441612494384

   => Energetics <=

    Nuclear Repulsion Energy =            198.8495931905436578
    One-Electron Energy =                -708.9629057214982595
    Two-Electron Energy =                 277.8888964060107583
    DFT Exchange-Correlation Energy =       0.0000000000000000
    Empirical Dispersion Energy =           0.0000000000000000
    PCM Polarization Energy =               0.0000000000000000
    EFP Energy =                            0.0000000000000000
    Total Energy =                       -232.2244161249438434
    Molecular point group: c1
  Basis Set: CC-PVTZ
  Basis Set:

  -Total Gradient:
     Atom            X                  Y                   Z
    ------   -----------------  -----------------  -----------------
       1        0.000001952636     0.000005039818     0.000012467777
       2       -0.000051576365    -0.003131498380     0.000047523998
       3        0.000090110173     0.004134876187     0.000288202482
       4       -0.000012825289    -0.000007937381    -0.000005896179
       5        0.000001159537    -0.000016802564     0.000017446279
       6        0.000377928440     0.002070594759    -0.002242216812
       7       -0.000006558929     0.000008239385     0.000033892590
       8       -0.000012736367     0.000039592611     0.000013121551
       9       -0.000315559648    -0.003118009350     0.001827664264
      10       -0.000009076027     0.000009760426    -0.000000740451
      11       -0.000040024533    -0.000010604778    -0.000008787568
      12        0.000002628410     0.000015330708     0.000014374403
      13       -0.000027562788     0.000009284966     0.000002233158
      14       -0.000007526803    -0.000003802739    -0.000006921280
      15        0.000009667554    -0.000004063667     0.000007635785

  **** Optimization is complete! (in 6 steps) ****
    Final optimized geometry and variables:
    Molecular point group: c1

    Geometry (in Angstrom), charge = 0, multiplicity = 1:

    H           -2.702767577599     0.031503903941     0.056847021932
    C           -1.709214389122    -0.090222116259     0.464244583729
    O           -0.833482338609    -0.122328311913    -0.615531937111
    H           -1.514903872271     0.743472979066     1.134271789176
    H           -1.687567113933    -1.008371644774     1.041319494934
    C            0.557186691851    -0.145816609702    -0.386496545656
    C            1.112125789692     1.271264790448    -0.393309168294
    C            0.975170304670    -0.922240575788     0.858082530186
    H            0.956107411889    -0.690997390264    -1.233809413335
    H            0.823549085478     1.779621671017    -1.304236939160
    H            2.194690000610     1.261492817387    -0.331984231757
    H            0.734339992038     1.842703010632     0.448016117032
    H            0.563862320706    -1.924242499389     0.848852107995
    H            2.055153732578    -1.006416754721     0.874937758213
    H            0.669425000019    -0.432625869045     1.775015450814

  Mulliken Charges: (a.u.)
   Center  Symbol    Alpha    Beta     Spin     Total
       1     H     0.44195  0.44195  0.00000  0.11610
       2     C     3.03878  3.03878  0.00000 -0.07755
       3     O     4.18687  4.18687  0.00000 -0.37374
       4     H     0.47118  0.47118  0.00000  0.05763
       5     H     0.46758  0.46758  0.00000  0.06485
       6     C     2.93213  2.93213  0.00000  0.13574
       7     C     3.14411  3.14411  0.00000 -0.28822
       8     C     3.16890  3.16890  0.00000 -0.33780
       9     H     0.44858  0.44858  0.00000  0.10284
      10     H     0.44584  0.44584  0.00000  0.10832
      11     H     0.45552  0.45552  0.00000  0.08896
      12     H     0.45704  0.45704  0.00000  0.08592
      13     H     0.44437  0.44437  0.00000  0.11125
      14     H     0.44530  0.44530  0.00000  0.10940
      15     H     0.45185  0.45185  0.00000  0.09631

   Total alpha = 21.00000, Total beta = 21.00000, Total charge =  0.00000
