  ==> Input File <==

--------------------------------------------------------------------------
set {
	reference rhf
	basis 6-31G*
}

set_num_threads( 4 )
memory 2 gb

molecule MOL {
0 1

O	 1.846825	 1.296220	 0.000415
C	 1.705091	 0.115954	 0.001797
C	 0.381791	 -0.609817	 0.001258
O	 2.721346	 -0.737485	 -0.000216
C	 -0.823008	 0.326187	 0.001381
H	 0.371250	 -1.265087	 -0.865474
H	 0.370908	 -1.265746	 0.867490
C	 -2.112910	 -0.388042	 -0.404932
H	 -0.631993	 1.154969	 -0.673025
H	 -0.937601	 0.761478	 0.989156
C	 -3.331599	 0.536415	 -0.411025
H	 -1.990387	 -0.825423	 -1.394721
H	 -2.297666	 -1.219472	 0.273647
C	 -4.620340	 -0.178062	 -0.815897
H	 -3.149661	 1.366171	 -1.090396
H	 -3.455832	 0.973426	 0.577269
H	 -4.539599	 -0.596727	 -1.815104
H	 -5.465616	 0.503062	 -0.810443
H	 -4.847962	 -0.992948	 -0.134385
C	 4.024888	 -0.184556	 -0.001949
H	 4.179030	 0.422472	 -0.882452
H	 4.701782	 -1.024608	 -0.003642
H	 4.181981	 0.421185	 0.878906

	symmetry c1
}
set optking {
	frozen_dihedral = ("
		9 5 3 6
	")
}

ee = optimize('scf')
oeprop('DIPOLE', 'QUADRUPOLE', 'MULLIKEN_CHARGES')
f=open( 'psi4out.xyz', 'w' )
f.write( "23  " )
f.write( str(ee) + "\n" )
f.write( MOL.save_string_xyz() )
f.close()
--------------------------------------------------------------------------

    Molecular point group: c1
  Charge       = 0
  Multiplicity = 1
  Basis Set: 6-31G*
  Basis Set:
  @DF-RHF Final Energy:  -422.97541444251254
    Total Energy =                       -422.9754144425128288
    Molecular point group: c1
  Basis Set: 6-31G*
  Basis Set:
  Basis Set: 6-31G*
  Basis Set:
  @DF-RHF Final Energy:  -422.97546514725053
    Total Energy =                       -422.9754651472507021
  Basis Set: 6-31G*
  Basis Set:
  Basis Set: 6-31G*
  Basis Set:
  @DF-RHF Final Energy:  -422.97527888528447
    Total Energy =                       -422.9752788852846379
  Basis Set: 6-31G*
  Basis Set:
  Basis Set: 6-31G*
  Basis Set:
  @DF-RHF Final Energy:  -422.97553657016351
    Total Energy =                       -422.9755365701630581
  Basis Set: 6-31G*
  Basis Set:
  Basis Set: 6-31G*
  Basis Set:
  @DF-RHF Final Energy:  -422.97553815463658
    Total Energy =                       -422.9755381546361832
  Basis Set: 6-31G*
  Basis Set:
  Basis Set: 6-31G*
  Basis Set:
  @DF-RHF Final Energy:  -422.97554166422429
    Total Energy =                       -422.9755416642238970
  Basis Set: 6-31G*
  Basis Set:
  Charge       = 0
  Multiplicity = 1
  Basis Set: 6-31G*
  Basis Set:

    Orbital Energies (a.u.)
    -----------------------

    Doubly Occupied:

       1A    -20.603767     2A    -20.545689     3A    -11.372664
       4A    -11.280932     5A    -11.235389     6A    -11.218938
       7A    -11.218009     8A    -11.216473     9A    -11.209651
      10A     -1.469548    11A     -1.362975    12A     -1.092869
      13A     -1.043574    14A     -0.987103    15A     -0.932150
      16A     -0.843782    17A     -0.795363    18A     -0.767465
      19A     -0.698144    20A     -0.683139    21A     -0.671752
      22A     -0.650554    23A     -0.608887    24A     -0.599793
      25A     -0.572794    26A     -0.558146    27A     -0.556970
      28A     -0.524185    29A     -0.521655    30A     -0.507091
      31A     -0.483310    32A     -0.470042    33A     -0.465560
      34A     -0.461169    35A     -0.455848    36A     -0.436217

  @DF-RHF Final Energy:  -422.97554230416580

   => Energetics <=

    Nuclear Repulsion Energy =            452.0882639593651788
    One-Electron Energy =               -1471.8844164242450461
    Two-Electron Energy =                 596.8206101607142955
    DFT Exchange-Correlation Energy =       0.0000000000000000
    Empirical Dispersion Energy =           0.0000000000000000
    PCM Polarization Energy =               0.0000000000000000
    EFP Energy =                            0.0000000000000000
    Total Energy =                       -422.9755423041656286
    Molecular point group: c1
  Basis Set: 6-31G*
  Basis Set:

  -Total Gradient:
     Atom            X                  Y                   Z
    ------   -----------------  -----------------  -----------------
       1        0.000012621245    -0.000011000822    -0.000006440315
       2       -0.000005410057     0.000006279523     0.000012900650
       3        0.001995093096     0.002572453825    -0.001271331884
       4        0.000009069005     0.000007062077    -0.000006230687
       5       -0.001656275801    -0.002161497939    -0.002080971236
       6       -0.001388760209    -0.001778426393     0.001372974959
       7       -0.000002439863    -0.000001297151    -0.000005533045
       8       -0.000010989075    -0.000004166693     0.000025415909
       9        0.001046782357     0.001372274970     0.001966230606
      10        0.000001868919     0.000000078016     0.000004065320
      11        0.000001498030     0.000000755391    -0.000024987061
      12        0.000003069059     0.000005522584     0.000006480476
      13       -0.000005578716    -0.000006955164     0.000000184894
      14       -0.000004513914    -0.000000167584     0.000010138340
      15        0.000002520052     0.000001453525    -0.000003024904
      16       -0.000000165385    -0.000001525882    -0.000004363250
      17       -0.000000980429     0.000006202594    -0.000001918998
      18       -0.000001880266    -0.000001808267     0.000005338607
      19        0.000002245597    -0.000004576308    -0.000004057818
      20        0.000000202684    -0.000001464702     0.000010929332
      21       -0.000001685293     0.000000160695    -0.000002556203
      22        0.000001198071     0.000000625651    -0.000001858648
      23        0.000002510887     0.000000018054    -0.000001385044

  **** Optimization is complete! (in 7 steps) ****
    Final optimized geometry and variables:
    Molecular point group: c1

    Geometry (in Angstrom), charge = 0, multiplicity = 1:

    O            1.846040156766     1.278138785345     0.171175530995
    C            1.696036675497     0.098916227709     0.169875219701
    C            0.369452310590    -0.618855852244     0.137970061762
    O            2.705931934130    -0.761370926173     0.199600696726
    C           -0.838992190109     0.315333966504     0.127143555372
    H            0.366367525628    -1.282435402821    -0.722622933844
    H            0.341241984045    -1.279268755160     1.000608468762
    C           -2.134933395789    -0.405883733576    -0.242819139999
    H           -0.651604779973     1.140203064590    -0.551608001911
    H           -0.941446704164     0.768143281379     1.109790839869
    C           -3.359448773707     0.510058557607    -0.210495784075
    H           -2.036657059715    -0.837855441413    -1.237533371733
    H           -2.294627175937    -1.241716878238     0.436974178728
    C           -4.652957350212    -0.209719542119    -0.590064387055
    H           -3.199433631546     1.346981813458    -0.886502639480
    H           -3.462525789461     0.937292740517     0.784471551216
    H           -4.594788262475    -0.617163240140    -1.595474629043
    H           -5.502694610760     0.464935871722    -0.555771871866
    H           -4.857252085069    -1.033464865489     0.088195201164
    C            4.012854763390    -0.217346261356     0.232377942810
    H            4.195686898724     0.385624608116    -0.645404669879
    H            4.683653704994    -1.062091840332     0.252083919455
    H            4.149551443827     0.390146203182     1.115422954250

  Mulliken Charges: (a.u.)
   Center  Symbol    Alpha    Beta     Spin     Total
       1     O     4.28588  4.28588  0.00000 -0.57177
       2     C     2.60547  2.60547  0.00000  0.78905
       3     C     3.20926  3.20926  0.00000 -0.41853
       4     O     4.30700  4.30700  0.00000 -0.61399
       5     C     3.15393  3.15393  0.00000 -0.30786
       6     H     0.40045  0.40045  0.00000  0.19910
       7     H     0.40014  0.40014  0.00000  0.19972
       8     C     3.15364  3.15364  0.00000 -0.30729
       9     H     0.40622  0.40622  0.00000  0.18756
      10     H     0.41561  0.41561  0.00000  0.16878
      11     C     3.15176  3.15176  0.00000 -0.30353
      12     H     0.42341  0.42341  0.00000  0.15318
      13     H     0.42415  0.42415  0.00000  0.15169
      14     C     3.23960  3.23960  0.00000 -0.47920
      15     H     0.42081  0.42081  0.00000  0.15838
      16     H     0.42169  0.42169  0.00000  0.15661
      17     H     0.42169  0.42169  0.00000  0.15662
      18     H     0.41847  0.41847  0.00000  0.16306
      19     H     0.42191  0.42191  0.00000  0.15619
      20     C     3.09240  3.09240  0.00000 -0.18479
      21     H     0.40906  0.40906  0.00000  0.18188
      22     H     0.40841  0.40841  0.00000  0.18319
      23     H     0.40903  0.40903  0.00000  0.18195

   Total alpha = 36.00000, Total beta = 36.00000, Total charge = -0.00000
