                              Psi4 1.0.54 Driver

  ==> Input File <==

--------------------------------------------------------------------------
set {
	reference rhf
	basis cc-pvtz
}

set_num_threads( 4 )
memory 2 gb

molecule MOL {
0 1

H	 5.269878	 0.195679	 1.068175
C	 4.673900	 -0.208485	 0.258034
C	 3.190199	 -0.204714	 0.610086
H	 4.865136	 0.391893	 -0.624684
H	 5.027838	 -1.214511	 0.056939
C	 2.319208	 -0.778154	 -0.505491
H	 2.876954	 0.809861	 0.827925
H	 3.035335	 -0.782733	 1.518235
C	 1.552098	 -2.034316	 -0.104883
H	 1.614736	 -0.025899	 -0.838145
H	 2.948602	 -1.020402	 -1.356939
C	 0.401046	 -1.794930	 0.857540
H	 1.116849	 -2.497422	 -0.986844
H	 2.219504	 -2.778948	 0.318923
C	 -0.148718	 -2.995795	 1.602559
O	 -0.069989	 -0.714212	 1.010674
C	 -0.776055	 -4.054488	 0.689333
H	 -0.884404	 -2.624510	 2.303096
H	 0.659898	 -3.445340	 2.172862
C	 -1.404133	 -5.202516	 1.474966
H	 -1.535626	 -3.585995	 0.069526
H	 -0.027405	 -4.455280	 0.013397
C	 -2.038819	 -6.259819	 0.578076
H	 -2.154674	 -4.804224	 2.151075
H	 -0.645550	 -5.666237	 2.099536
H	 -2.823441	 -5.831653	 -0.036515
H	 -1.304318	 -6.703267	 -0.085944
H	 -2.477595	 -7.057976	 1.165215

	symmetry c1
}
set optking {
	frozen_dihedral = ("
		10 6 3 2
	")
}

ee,wfn = optimize('scf', return_wfn=True)
oeprop( wfn, 'DIPOLE', 'QUADRUPOLE', 'MULLIKEN_CHARGES')
f=open( 'psi4out.xyz', 'w' )
f.write( "28  " )
f.write( str(ee) + "\n" )
f.write( MOL.save_string_xyz() )
f.close()
--------------------------------------------------------------------------

    Molecular point group: c1
  Charge       = 0
  Multiplicity = 1
  Basis Set: CC-PVTZ
  Basis Set:
  @DF-RHF Final Energy:  -426.31403928305929
    Total Energy =                       -426.3140392830595147
    Molecular point group: c1
  Basis Set: CC-PVTZ
  Basis Set:
  Basis Set: CC-PVTZ
  Basis Set:
  @DF-RHF Final Energy:  -426.31435404416584
    Total Energy =                       -426.3143540441653840
  Basis Set: CC-PVTZ
  Basis Set:
  Basis Set: CC-PVTZ
  Basis Set:
  @DF-RHF Final Energy:  -426.31439430901162
    Total Energy =                       -426.3143943090119592
  Basis Set: CC-PVTZ
  Basis Set:
  Basis Set: CC-PVTZ
  Basis Set:
  @DF-RHF Final Energy:  -426.31444335997355
    Total Energy =                       -426.3144433599733247
  Basis Set: CC-PVTZ
  Basis Set:
  @DF-RHF Final Energy:  -426.31446236105796
    Total Energy =                       -426.3144623610581903
  @DF-RHF Final Energy:  -426.31446992784129
    Total Energy =                       -426.3144699278409462
  @DF-RHF Final Energy:  -426.31448080624193
    Total Energy =                       -426.3144808062417042
  @DF-RHF Final Energy:  -426.31448368789461
    Total Energy =                       -426.3144836878941533
  @DF-RHF Final Energy:  -426.31448489464390
    Total Energy =                       -426.3144848946438970
  @DF-RHF Final Energy:  -426.31449088010936
    Total Energy =                       -426.3144908801086785
  @DF-RHF Final Energy:  -426.31449866184914
    Total Energy =                       -426.3144986618492567
  @DF-RHF Final Energy:  -426.31450477821352
    Total Energy =                       -426.3145047782135180
  @DF-RHF Final Energy:  -426.31451200079437
    Total Energy =                       -426.3145120007934565
  @DF-RHF Final Energy:  -426.31452207013081
    Total Energy =                       -426.3145220701310336
  @DF-RHF Final Energy:  -426.31453207865911
    Total Energy =                       -426.3145320786591128
  @DF-RHF Final Energy:  -426.31454168788218
    Total Energy =                       -426.3145416878817286
  @DF-RHF Final Energy:  -426.31455306229327
    Total Energy =                       -426.3145530622930437
  @DF-RHF Final Energy:  -426.31270812067055
    Total Energy =                       -426.3127081206698676
  @DF-RHF Final Energy:  -426.31454917743827
    Total Energy =                       -426.3145491774381526
  @DF-RHF Final Energy:  -426.31225549266298
    Total Energy =                       -426.3122554926627572
  @DF-RHF Final Energy:  -426.31503744159261
    Total Energy =                       -426.3150374415930628
  @DF-RHF Final Energy:  -426.31509969566866
    Total Energy =                       -426.3150996956691188
  @DF-RHF Final Energy:  -426.31512815669032
    Total Energy =                       -426.3151281566902071
  @DF-RHF Final Energy:  -426.31513818093640
    Total Energy =                       -426.3151381809368559
  @DF-RHF Final Energy:  -426.31514716072661
    Total Energy =                       -426.3151471607270651
  @DF-RHF Final Energy:  -426.31515551602024
    Total Energy =                       -426.3151555160206954
  @DF-RHF Final Energy:  -426.31516535226024
    Total Energy =                       -426.3151653522606921
  @DF-RHF Final Energy:  -426.31250146444404
    Total Energy =                       -426.3125014644436988
  @DF-RHF Final Energy:  -426.31536830209814
    Total Energy =                       -426.3153683020987046
  @DF-RHF Final Energy:  -426.31531461713485
    Total Energy =                       -426.3153146171353001
  @DF-RHF Final Energy:  -426.31540501143320
    Total Energy =                       -426.3154050114337679
  @DF-RHF Final Energy:  -426.31598274408816
    Total Energy =                       -426.3159827440879326
  @DF-RHF Final Energy:  -426.30641192349765
    Total Energy =                       -426.3064119234973077
  @DF-RHF Final Energy:  -426.31652659203667
    Total Energy =                       -426.3165265920365528
  @DF-RHF Final Energy:  -426.31553221779507
    Total Energy =                       -426.3155322177949529
  @DF-RHF Final Energy:  -426.31675000691439
    Total Energy =                       -426.3167500069141624
  Basis Set: CC-PVTZ
  Basis Set:
  @DF-RHF Final Energy:  -426.31673060651917
    Total Energy =                       -426.3167306065191724
  Basis Set: CC-PVTZ
  Basis Set:
  Basis Set: CC-PVTZ
  Basis Set:
  @DF-RHF Final Energy:  -426.31678588155421
    Total Energy =                       -426.3167858815544378
  Basis Set: CC-PVTZ
  Basis Set:
  Basis Set: CC-PVTZ
  Basis Set:
  @DF-RHF Final Energy:  -426.31679022198239
    Total Energy =                       -426.3167902219825010
  Basis Set: CC-PVTZ
  Basis Set:
  Charge       = 0
  Multiplicity = 1
  Basis Set: CC-PVTZ
  Basis Set:

    Orbital Energies (a.u.)
    -----------------------

    Doubly Occupied:

       1A    -20.537979     2A    -11.317379     3A    -11.229104
       4A    -11.229009     5A    -11.217211     6A    -11.214822
       7A    -11.214666     8A    -11.211434     9A    -11.207869
      10A    -11.206650    11A     -1.398358    12A     -1.089230
      13A     -1.077382    14A     -1.022781    15A     -0.991716
      16A     -0.911947    17A     -0.866838    18A     -0.807870
      19A     -0.791466    20A     -0.723885    21A     -0.666616
      22A     -0.656919    23A     -0.635532    24A     -0.620226
      25A     -0.598151    26A     -0.595421    27A     -0.582547
      28A     -0.567520    29A     -0.539015    30A     -0.527668
      31A     -0.521007    32A     -0.512739    33A     -0.491894
      34A     -0.481556    35A     -0.474508    36A     -0.474116
      37A     -0.468910    38A     -0.460132    39A     -0.457586
      40A     -0.396684

  @DF-RHF Final Energy:  -426.31679061695388

   => Energetics <=

    Nuclear Repulsion Energy =            530.8902743862500984
    One-Electron Energy =               -1630.4214394441942204
    Two-Electron Energy =                 673.2143744409904684
    DFT Exchange-Correlation Energy =       0.0000000000000000
    Empirical Dispersion Energy =           0.0000000000000000
    PCM Polarization Energy =               0.0000000000000000
    EFP Energy =                            0.0000000000000000
    Total Energy =                       -426.3167906169537673
    Molecular point group: c1
  Basis Set: CC-PVTZ
  Basis Set:

  -Total Gradient:
     Atom            X                  Y                   Z
    ------   -----------------  -----------------  -----------------
       1        0.000002778340     0.000003361701     0.000002270716
       2       -0.000012603290    -0.000017921110    -0.000018900611
       3       -0.000001627358     0.000024540472     0.000014386291
       4        0.000006843989     0.000005751200    -0.000000165646
       5       -0.000001951847    -0.000002002587     0.000000372881
       6        0.000024095813    -0.000002646314     0.000003471279
       7        0.000006617905    -0.000002445513    -0.000004752550
       8       -0.000011158248    -0.000001373378     0.000005881252
       9        0.000000569524    -0.000018733688    -0.000005663016
      10       -0.000002615324    -0.000001441419     0.000000851156
      11       -0.000004072294     0.000001524049    -0.000001249450
      12       -0.000034111179     0.000043519208    -0.000018978662
      13        0.000008463319    -0.000007031722     0.000004279357
      14       -0.000002172986    -0.000002770430     0.000001857534
      15        0.000008607567    -0.000007496319     0.000008690580
      16        0.000012808963    -0.000016672681     0.000015002651
      17        0.000000131932     0.000037346655    -0.000008302747
      18       -0.000002607725    -0.000023207910    -0.000020336628
      19        0.000001734471     0.000003469419     0.000000045187
      20       -0.000015972701    -0.000011051268     0.000006237096
      21        0.000006401652    -0.000006829331    -0.000004298249
      22        0.000008814675     0.000007508421     0.000011077940
      23        0.000010806072    -0.000000655586    -0.000002756671
      24       -0.000000682942    -0.000006033175    -0.000004949925
      25       -0.000005991891     0.000001298035     0.000002066707
      26        0.000005865317    -0.000003689853     0.000003624289
      27        0.000001162322     0.000005676320     0.000002846032
      28       -0.000010134071    -0.000001993201     0.000007393199

  **** Optimization is complete! (in 49 steps) ****
    Final optimized geometry and variables:
    Molecular point group: c1

    Geometry (in Angstrom), charge = 0, multiplicity = 1:

    H            3.207561760075     3.986095572271    -0.919051122739
    C            3.465414218238     2.964748181439    -0.662515423038
    C            2.339233962761     2.001625799956    -1.027329167804
    H            4.380319019853     2.712336761410    -1.188283642810
    H            3.679790950720     2.934664408007     0.401357193687
    C            2.654711450841     0.533066617660    -0.673112903593
    H            2.127826712966     2.082979516898    -2.086000789303
    H            1.430940317317     2.316647224660    -0.524080147244
    C            1.706164504369    -0.078673926410     0.351635696675
    H            2.634286399720    -0.075880573520    -1.566730579453
    H            3.662007455031     0.465589121546    -0.275881419544
    C            0.294282081019    -0.306521025474    -0.156699045343
    H            2.073511263610    -1.050705786126     0.674167117448
    H            1.658859394082     0.529022451073     1.251233128989
    C           -0.742564363043    -0.646789668739     0.895414014710
    O            0.022385401574    -0.234369887909    -1.310908232705
    C           -2.089614890505    -1.081806482914     0.335722809025
    H           -0.856801040549     0.235055911256     1.522642853592
    H           -0.326802719859    -1.411918534444     1.546084305631
    C           -3.106377237978    -1.398227343487     1.428939499514
    H           -2.474861609356    -0.302410647312    -0.311036663214
    H           -1.949105724687    -1.952280772710    -0.296326590660
    C           -4.457077078682    -1.836367086870     0.873150094100
    H           -3.244108541266    -0.523278473719     2.059021341485
    H           -2.713745909927    -2.179009130967     2.075287024906
    H           -4.892293511429    -1.062575098952     0.249968706118
    H           -4.358431195283    -2.730274017064     0.266635886802
    H           -5.158318302909    -2.053024515818     1.670789461435

  Mulliken Charges: (a.u.)
   Center  Symbol    Alpha    Beta     Spin     Total
       1     H     0.44915  0.44915  0.00000  0.10170
       2     C     3.14766  3.14766  0.00000 -0.29531
       3     C     3.08587  3.08587  0.00000 -0.17174
       4     H     0.45404  0.45404  0.00000  0.09193
       5     H     0.45813  0.45813  0.00000  0.08374
       6     C     3.09230  3.09230  0.00000 -0.18459
       7     H     0.44275  0.44275  0.00000  0.11450
       8     H     0.45727  0.45727  0.00000  0.08546
       9     C     3.11986  3.11986  0.00000 -0.23971
      10     H     0.44188  0.44188  0.00000  0.11624
      11     H     0.44852  0.44852  0.00000  0.10296
      12     C     2.87447  2.87447  0.00000  0.25107
      13     H     0.43617  0.43617  0.00000  0.12766
      14     H     0.44233  0.44233  0.00000  0.11533
      15     C     3.10750  3.10750  0.00000 -0.21501
      16     O     4.17626  4.17626  0.00000 -0.35253
      17     C     3.07847  3.07847  0.00000 -0.15695
      18     H     0.44547  0.44547  0.00000  0.10906
      19     H     0.44471  0.44471  0.00000  0.11057
      20     C     3.08585  3.08585  0.00000 -0.17171
      21     H     0.44453  0.44453  0.00000  0.11094
      22     H     0.44877  0.44877  0.00000  0.10245
      23     C     3.14971  3.14971  0.00000 -0.29943
      24     H     0.45570  0.45570  0.00000  0.08859
      25     H     0.45610  0.45610  0.00000  0.08780
      26     H     0.45368  0.45368  0.00000  0.09263
      27     H     0.45409  0.45409  0.00000  0.09183
      28     H     0.44875  0.44875  0.00000  0.10250

   Total alpha = 40.00000, Total beta = 40.00000, Total charge = -0.00000

*** Psi4 exiting successfully. Buy a developer a beer!
