                              Psi4 1.0.54 Driver

  ==> Input File <==

--------------------------------------------------------------------------
set {
	reference rhf
	basis cc-pvtz
}

set_num_threads( 4 )
memory 2 gb

molecule MOL {
0 1

O	 2.054612	 0.913984	 0.804275
C	 1.704209	 0.119472	 -0.000093
C	 0.380337	 -0.600947	 -0.000234
O	 2.450610	 -0.246831	 -1.029231
C	 -0.824290	 0.329213	 -0.000115
H	 0.371455	 -1.255476	 -0.865660
H	 0.371410	 -1.255787	 0.864952
C	 -2.146151	 -0.432825	 -0.000068
H	 -0.773936	 0.979158	 -0.866319
H	 -0.773838	 0.979034	 0.866186
C	 -3.366283	 0.483552	 0.000557
H	 -2.189286	 -1.084450	 -0.869996
H	 -2.188867	 -1.085083	 0.869399
C	 -4.687436	 -0.278003	 0.000108
H	 -3.325150	 1.134819	 -0.867957
H	 -3.325087	 1.133730	 0.869885
H	 -4.773783	 -0.912098	 -0.876078
H	 -5.531922	 0.401392	 0.000363
H	 -4.773901	 -0.912898	 0.875703
C	 3.724169	 0.353137	 -1.153366
H	 3.632592	 1.424066	 -1.257945
H	 4.167733	 -0.070755	 -2.039602
H	 4.334528	 0.134358	 -0.289762

	symmetry c1
}
set optking {
	frozen_dihedral = ("
		1 2 3 6
	")
}

ee,wfn = optimize('scf', return_wfn=True)
oeprop( wfn, 'DIPOLE', 'QUADRUPOLE', 'MULLIKEN_CHARGES')
f=open( 'psi4out.xyz', 'w' )
f.write( "23  " )
f.write( str(ee) + "\n" )
f.write( MOL.save_string_xyz() )
f.close()
--------------------------------------------------------------------------

    Molecular point group: c1
  Charge       = 0
  Multiplicity = 1
  Basis Set: CC-PVTZ
  Basis Set:
  @DF-RHF Final Energy:  -423.12914091269761
    Total Energy =                       -423.1291409126973804
    Molecular point group: c1
  Basis Set: CC-PVTZ
  Basis Set:
  Basis Set: CC-PVTZ
  Basis Set:
  @DF-RHF Final Energy:  -423.12940834616933
    Total Energy =                       -423.1294083461694981
  Basis Set: CC-PVTZ
  Basis Set:
  Basis Set: CC-PVTZ
  Basis Set:
  @DF-RHF Final Energy:  -423.12903985682385
    Total Energy =                       -423.1290398568239652
  Basis Set: CC-PVTZ
  Basis Set:
  Basis Set: CC-PVTZ
  Basis Set:
  @DF-RHF Final Energy:  -423.12974311099572
    Total Energy =                       -423.1297431109961735
  Basis Set: CC-PVTZ
  Basis Set:
  Basis Set: CC-PVTZ
  Basis Set:
  @DF-RHF Final Energy:  -423.12976135333992
    Total Energy =                       -423.1297613533396316
  Basis Set: CC-PVTZ
  Basis Set:
  Basis Set: CC-PVTZ
  Basis Set:
  @DF-RHF Final Energy:  -423.12976438127515
    Total Energy =                       -423.1297643812747538
  Basis Set: CC-PVTZ
  Basis Set:
  Charge       = 0
  Multiplicity = 1
  Basis Set: CC-PVTZ
  Basis Set:

    Orbital Energies (a.u.)
    -----------------------

    Doubly Occupied:

       1A    -20.598670     2A    -20.531115     3A    -11.363955
       4A    -11.278499     5A    -11.232219     6A    -11.223109
       7A    -11.217745     8A    -11.216251     9A    -11.208908
      10A     -1.472513    11A     -1.364484    12A     -1.096085
      13A     -1.044960    14A     -0.987574    15A     -0.934279
      16A     -0.845165    17A     -0.797131    18A     -0.773320
      19A     -0.697619    20A     -0.684187    21A     -0.675401
      22A     -0.654356    23A     -0.608271    24A     -0.599510
      25A     -0.576544    26A     -0.570656    27A     -0.546459
      28A     -0.530703    29A     -0.525501    30A     -0.506903
      31A     -0.487407    32A     -0.474010    33A     -0.468645
      34A     -0.465326    35A     -0.457465    36A     -0.434117

  @DF-RHF Final Energy:  -423.12976466255174

   => Energetics <=

    Nuclear Repulsion Energy =            453.5689175482290807
    One-Electron Energy =               -1475.0992494441454710
    Two-Electron Energy =                 598.4005672333648818
    DFT Exchange-Correlation Energy =       0.0000000000000000
    Empirical Dispersion Energy =           0.0000000000000000
    PCM Polarization Energy =               0.0000000000000000
    EFP Energy =                            0.0000000000000000
    Total Energy =                       -423.1297646625514517
    Molecular point group: c1
  Basis Set: CC-PVTZ
  Basis Set:

  -Total Gradient:
     Atom            X                  Y                   Z
    ------   -----------------  -----------------  -----------------
       1        0.000162379396    -0.000365270897     0.000134772138
       2       -0.000187924271     0.000434860846    -0.000176779794
       3       -0.000139740200     0.000233768668    -0.000138144649
       4        0.000040539064     0.000017906305    -0.000005035380
       5       -0.000014783321     0.000012501454    -0.000008198855
       6        0.000175747785    -0.000313148812     0.000189734126
       7       -0.000006419035    -0.000005638554    -0.000000198563
       8       -0.000001061011    -0.000002582617     0.000007483602
       9       -0.000001237719     0.000006224244    -0.000000223406
      10        0.000003723356    -0.000005790762     0.000001009243
      11        0.000000403401     0.000001012525    -0.000004084598
      12        0.000002307980    -0.000002952273    -0.000000556471
      13       -0.000004138606    -0.000004572295     0.000006139413
      14        0.000000488476    -0.000000250982     0.000001090089
      15        0.000001252629     0.000006088346    -0.000003541818
      16       -0.000002238005    -0.000000868113     0.000002391367
      17       -0.000000869691    -0.000000114442    -0.000003162734
      18       -0.000003500280     0.000002174246    -0.000001208935
      19       -0.000000418173    -0.000003390248     0.000003556902
      20       -0.000037767942    -0.000000998330    -0.000021994014
      21        0.000006131818    -0.000006845231     0.000002561048
      22        0.000002707292     0.000001498580     0.000003980894
      23        0.000004417058    -0.000003611655     0.000010410396

  **** Optimization is complete! (in 7 steps) ****
    Final optimized geometry and variables:
    Molecular point group: c1

    Geometry (in Angstrom), charge = 0, multiplicity = 1:

    O            2.075504748495     0.712781419970     0.955795926284
    C            1.738426349429     0.014067412378     0.060413971624
    C            0.426678508742    -0.729155220191     0.014402842378
    O            2.485555315345    -0.202884154078    -1.007619413863
    C           -0.769174474428     0.211019924373     0.172800381721
    H            0.362086806521    -1.292948800098    -0.905297980950
    H            0.444551877902    -1.436577781731     0.836732817793
    C           -2.098311022630    -0.536858058311     0.199568087628
    H           -0.773048276461     0.926066980715    -0.645310159984
    H           -0.646629164262     0.782653462193     1.084567710991
    C           -3.303202335378     0.387529043458     0.349011159315
    H           -2.205220359348    -1.120102519690    -0.712004095451
    H           -2.091055379187    -1.251329727303     1.019336901839
    C           -4.631221663013    -0.361366524963     0.380444866595
    H           -3.311410967254     1.101074840930    -0.470302056078
    H           -3.196183291985     0.970581798165     1.259277146103
    H           -4.783084170096    -0.927987842900    -0.532284880092
    H           -5.464893393772     0.322997176202     0.486854107027
    H           -4.667889971061    -1.058551660694     1.210897094709
    C            3.745396612803     0.436871304100    -1.056423202455
    H            3.629016223476     1.509851650337    -1.023503242279
    H            4.194299364768     0.138755505874    -1.989935254129
    H            4.363284977359     0.123939745431    -0.227968156668

  Mulliken Charges: (a.u.)
   Center  Symbol    Alpha    Beta     Spin     Total
       1     O     4.20455  4.20455  0.00000 -0.40910
       2     C     2.81414  2.81414  0.00000  0.37172
       3     C     3.08101  3.08101  0.00000 -0.16202
       4     O     4.14383  4.14383  0.00000 -0.28766
       5     C     3.09514  3.09514  0.00000 -0.19028
       6     H     0.43951  0.43951  0.00000  0.12097
       7     H     0.44487  0.44487  0.00000  0.11026
       8     C     3.09070  3.09070  0.00000 -0.18141
       9     H     0.45164  0.45164  0.00000  0.09673
      10     H     0.43889  0.43889  0.00000  0.12222
      11     C     3.08438  3.08438  0.00000 -0.16876
      12     H     0.45483  0.45483  0.00000  0.09034
      13     H     0.45381  0.45381  0.00000  0.09239
      14     C     3.15029  3.15029  0.00000 -0.30058
      15     H     0.45395  0.45395  0.00000  0.09210
      16     H     0.45252  0.45252  0.00000  0.09495
      17     H     0.45528  0.45528  0.00000  0.08945
      18     H     0.44765  0.44765  0.00000  0.10471
      19     H     0.45476  0.45476  0.00000  0.09048
      20     C     3.03494  3.03494  0.00000 -0.06987
      21     H     0.45405  0.45405  0.00000  0.09190
      22     H     0.44513  0.44513  0.00000  0.10974
      23     H     0.45414  0.45414  0.00000  0.09173

   Total alpha = 36.00000, Total beta = 36.00000, Total charge =  0.00000

*** Psi4 exiting successfully. Buy a developer a beer!
