  ==> Input File <==

--------------------------------------------------------------------------
set {
	reference rhf
	basis 6-31G*
}

set_num_threads( 4 )
memory 2 gb

molecule MOL {
0 1

H	 -0.216825	 0.021369	 -3.357402
C	 0.374198	 0.036393	 -2.447010
C	 -0.521757	 -0.028637	 -1.217342
H	 0.969602	 0.942322	 -2.434777
H	 1.053364	 -0.811668	 -2.481329
N	 0.263400	 0.031178	 0.000000
H	 -1.199035	 0.820290	 -1.219355
H	 -1.147901	 -0.924895	 -1.265384
C	 -0.521757	 -0.028637	 1.217342
H	 0.935769	 -0.712709	 0.000000
C	 -1.969452	 -0.391205	 0.914401
H	 -0.085991	 -0.789469	 1.858146
H	 -0.487539	 0.908551	 1.781390
H	 -2.021467	 -1.340549	 0.393437
H	 -2.549304	 -0.464659	 1.829127
H	 -2.438315	 0.362556	 0.286975

	symmetry c1
}
set optking {
	frozen_dihedral = ("
		12 9 6 3
	")
}

ee = optimize('scf')
oeprop('DIPOLE', 'QUADRUPOLE', 'MULLIKEN_CHARGES')
f=open( 'psi4out.xyz', 'w' )
f.write( "16  " )
f.write( str(ee) + "\n" )
f.write( MOL.save_string_xyz() )
f.close()
--------------------------------------------------------------------------

    Molecular point group: c1
  Charge       = 0
  Multiplicity = 1
  Basis Set: 6-31G*
  Basis Set:
  @DF-RHF Final Energy:  -212.29396680479255
    Total Energy =                       -212.2939668047924897
    Molecular point group: c1
  Basis Set: 6-31G*
  Basis Set:
  Basis Set: 6-31G*
  Basis Set:
  @DF-RHF Final Energy:  -212.29263393275045
    Total Energy =                       -212.2926339327505616
  Basis Set: 6-31G*
  Basis Set:
  Basis Set: 6-31G*
  Basis Set:
  @DF-RHF Final Energy:  -212.30098356135323
    Total Energy =                       -212.3009835613531209
  Basis Set: 6-31G*
  Basis Set:
  Basis Set: 6-31G*
  Basis Set:
  @DF-RHF Final Energy:  -212.30280360635160
    Total Energy =                       -212.3028036063516879
  Basis Set: 6-31G*
  Basis Set:
  Basis Set: 6-31G*
  Basis Set:
  @DF-RHF Final Energy:  -212.30311205943536
    Total Energy =                       -212.3031120594354206
  Basis Set: 6-31G*
  Basis Set:
  Basis Set: 6-31G*
  Basis Set:
  @DF-RHF Final Energy:  -212.30328023972663
    Total Energy =                       -212.3032802397264049
  Basis Set: 6-31G*
  Basis Set:
  Basis Set: 6-31G*
  Basis Set:
  @DF-RHF Final Energy:  -212.30329772378067
    Total Energy =                       -212.3032977237805881
  Basis Set: 6-31G*
  Basis Set:
  Charge       = 0
  Multiplicity = 1
  Basis Set: 6-31G*
  Basis Set:

    Orbital Energies (a.u.)
    -----------------------

    Doubly Occupied:

       1A    -15.529843     2A    -11.241743     3A    -11.239679
       4A    -11.210131     5A    -11.207018     6A     -1.196319
       7A     -1.023825     8A     -0.968301     9A     -0.853651
      10A     -0.793642    11A     -0.661788    12A     -0.627796
      13A     -0.599159    14A     -0.593916    15A     -0.537763
      16A     -0.528243    17A     -0.509643    18A     -0.494516
      19A     -0.480910    20A     -0.472951    21A     -0.348643

  @DF-RHF Final Energy:  -212.30329861570931

   => Energetics <=

    Nuclear Repulsion Energy =            191.4070135453629860
    One-Electron Energy =                -665.1816713634184453
    Two-Electron Energy =                 261.4713592023460933
    DFT Exchange-Correlation Energy =       0.0000000000000000
    Empirical Dispersion Energy =           0.0000000000000000
    PCM Polarization Energy =               0.0000000000000000
    EFP Energy =                            0.0000000000000000
    Total Energy =                       -212.3032986157093660
    Molecular point group: c1
  Basis Set: 6-31G*
  Basis Set:

  -Total Gradient:
     Atom            X                  Y                   Z
    ------   -----------------  -----------------  -----------------
       1        0.000004678730    -0.000003243307    -0.000006212782
       2        0.000003311761    -0.000026604313    -0.000017591868
       3        0.000267783047    -0.002959748038     0.000011377566
       4       -0.000012855638     0.000003587309     0.000002549291
       5        0.000006728913     0.000000275260    -0.000002818176
       6       -0.000893849761     0.003832145567    -0.000322089367
       7        0.000003602938     0.000005175575    -0.000015146749
       8       -0.000013127256    -0.000009797604     0.000017970121
       9        0.002853548227     0.001682844678     0.001792747001
      10        0.000021715686     0.000004492848    -0.000020803156
      11       -0.000015285282     0.000033706124     0.000016786791
      12       -0.002228159385    -0.002520303932    -0.001461884601
      13       -0.000014767588    -0.000006790382     0.000018619345
      14        0.000008831410    -0.000009525450    -0.000046925288
      15        0.000007122448    -0.000014910719    -0.000005533016
      16        0.000000721750    -0.000011303617     0.000038954889

  **** Optimization is complete! (in 8 steps) ****
    Final optimized geometry and variables:
    Molecular point group: c1

    Geometry (in Angstrom), charge = 0, multiplicity = 1:

    H            0.462665415902     0.157898295889    -3.112318119035
    C            0.975907118229     0.167116799530    -2.155654563731
    C           -0.018266972409     0.053639222655    -1.006574903211
    H            1.546003963080     1.085569369524    -2.075131268708
    H            1.676409576300    -0.664443875431    -2.150436556547
    N            0.687159869180     0.100049116125     0.260453285844
    H           -0.705811531962     0.891423728204    -1.054642476036
    H           -0.616243347224    -0.849948912413    -1.138537844809
    C           -0.066184764377     0.036559284418     1.516368240915
    H            1.394869883786    -0.605188144800     0.260909951974
    C           -1.556245418653    -0.299871232348     1.414821156218
    H            0.386275283536    -0.725509106967     2.144068017442
    H            0.037109266949     0.982465178414     2.040876862645
    H           -1.722540426778    -1.273898027015     0.966723972598
    H           -1.985016554823    -0.317416935225     2.412344734559
    H           -2.105820357807     0.435637083668     0.838268074157

  Mulliken Charges: (a.u.)
   Center  Symbol    Alpha    Beta     Spin     Total
       1     H     0.42076  0.42076  0.00000  0.15848
       2     C     3.24154  3.24154  0.00000 -0.48308
       3     C     3.05125  3.05125  0.00000 -0.10251
       4     H     0.41204  0.41204  0.00000  0.17593
       5     H     0.42577  0.42577  0.00000  0.14847
       6     N     3.86283  3.86283  0.00000 -0.72567
       7     H     0.42038  0.42038  0.00000  0.15924
       8     H     0.43366  0.43366  0.00000  0.13268
       9     C     3.04368  3.04368  0.00000 -0.08736
      10     H     0.33269  0.33269  0.00000  0.33461
      11     C     3.25323  3.25323  0.00000 -0.50646
      12     H     0.42653  0.42653  0.00000  0.14694
      13     H     0.42028  0.42028  0.00000  0.15944
      14     H     0.41989  0.41989  0.00000  0.16022
      15     H     0.41800  0.41800  0.00000  0.16400
      16     H     0.41746  0.41746  0.00000  0.16508

   Total alpha = 21.00000, Total beta = 21.00000, Total charge = -0.00000
