  ==> Input File <==

--------------------------------------------------------------------------
set {
	reference rhf
	basis 6-31G*
}

set_num_threads( 1 )
memory 2 gb

molecule MOL {
0 1

H	 -3.161837	 0.500524	 -0.000234
C	 -2.367097	 -0.232926	 -0.000000
O	 -1.158440	 0.455814	 -0.000122
H	 -2.468853	 -0.861886	 -0.882833
H	 -2.468942	 -0.861421	 0.883154
C	 -0.029776	 -0.365156	 0.000148
C	 0.528594	 -0.431323	 -1.410705
H	 -0.292346	 -1.364193	 0.350693
H	 0.720972	 0.029034	 0.686369
C	 1.772580	 -1.313523	 -1.506113
H	 -0.247805	 -0.805347	 -2.070987
H	 0.758495	 0.578094	 -1.737695
H	 1.557856	 -2.335415	 -1.206024
H	 2.149797	 -1.342314	 -2.522835
H	 2.571204	 -0.942526	 -0.869745

	symmetry c1
}
set optking {
	frozen_dihedral = ("
		6 3 2 4,
		11 7 6 8
	")
}

ee = energy('scf')
oeprop('DIPOLE', 'QUADRUPOLE', 'MULLIKEN_CHARGES')
f=open( 'psi4out.xyz', 'w' )
f.write( "15  " )
f.write( str(ee) + "\n" )
f.write( MOL.save_string_xyz() )
f.close()
--------------------------------------------------------------------------

    Molecular point group: c1

    Geometry (in Angstrom), charge = 0, multiplicity = 1:

       Center              X                  Y                   Z               Mass
    ------------   -----------------  -----------------  -----------------  -----------------
           H         -2.884194032356     0.882414363321     0.572575329427     1.007825032070
           C         -2.089454032356     0.148964363321     0.572809329427    12.000000000000
           O         -0.880797032356     0.837704363321     0.572687329427    15.994914619560
           H         -2.191210032356    -0.479995636679    -0.310023670573     1.007825032070
           H         -2.191299032356    -0.479530636679     1.455963329427     1.007825032070
           C          0.247866967644     0.016734363321     0.572957329427    12.000000000000
           C          0.806236967644    -0.049432636679    -0.837895670573    12.000000000000
           H         -0.014703032356    -0.982302636679     0.923502329427     1.007825032070
           H          0.998614967644     0.410924363321     1.259178329427     1.007825032070
           C          2.050222967644    -0.931632636679    -0.933303670573    12.000000000000
           H          0.029837967644    -0.423456636679    -1.498177670573     1.007825032070
           H          1.036137967644     0.959984363321    -1.164885670573     1.007825032070
           H          1.835498967644    -1.953524636679    -0.633214670573     1.007825032070
           H          2.427439967644    -0.960423636679    -1.950025670573     1.007825032070
           H          2.848846967644    -0.560635636679    -0.296935670573     1.007825032070

  Charge       = 0
  Multiplicity = 1
  Basis Set: 6-31G*
  Basis Set:

    Orbital Energies (a.u.)
    -----------------------

    Doubly Occupied:

       1A    -20.551432     2A    -11.266068     3A    -11.265186
       4A    -11.213187     5A    -11.212402     6A     -1.378332
       7A     -1.055763     8A     -0.956666     9A     -0.881212
      10A     -0.808079    11A     -0.671620    12A     -0.654760
      13A     -0.637122    14A     -0.598105    15A     -0.569097
      16A     -0.535191    17A     -0.510386    18A     -0.495642
      19A     -0.483185    20A     -0.462332    21A     -0.403654

  @DF-RHF Final Energy:  -232.13522685294859

   => Energetics <=

    Nuclear Repulsion Energy =            191.6862989770608863
    One-Electron Energy =                -694.4242416170727665
    Two-Electron Energy =                 270.6027157870643691
    DFT Exchange-Correlation Energy =       0.0000000000000000
    Empirical Dispersion Energy =           0.0000000000000000
    PCM Polarization Energy =               0.0000000000000000
    EFP Energy =                            0.0000000000000000
    Total Energy =                       -232.1352268529474827

  Mulliken Charges: (a.u.)
   Center  Symbol    Alpha    Beta     Spin     Total
       1     H     0.41218  0.41218  0.00000  0.17564
       2     C     3.08107  3.08107  0.00000 -0.16213
       3     O     4.30459  4.30459  0.00000 -0.60918
       4     H     0.43123  0.43123  0.00000  0.13754
       5     H     0.42879  0.42879  0.00000  0.14243
       6     C     2.99169  2.99169  0.00000  0.01662
       7     C     3.15667  3.15667  0.00000 -0.31333
       8     H     0.43227  0.43227  0.00000  0.13546
       9     H     0.41921  0.41921  0.00000  0.16158
      10     C     3.24890  3.24890  0.00000 -0.49780
      11     H     0.42118  0.42118  0.00000  0.15764
      12     H     0.41373  0.41373  0.00000  0.17255
      13     H     0.42189  0.42189  0.00000  0.15621
      14     H     0.41621  0.41621  0.00000  0.16759
      15     H     0.42041  0.42041  0.00000  0.15919

   Total alpha = 21.00000, Total beta = 21.00000, Total charge = -0.00000
