  ==> Input File <==

--------------------------------------------------------------------------
set {
	reference rhf
	basis 6-31G*
}

set_num_threads( 1 )
memory 2 gb

molecule MOL {
0 1

H	 -3.261111	 -0.295142	 1.469456
C	 -3.306842	 -0.277400	 0.373456
C	 -2.660244	 0.921717	 -0.272021
O	 -3.838538	 -1.161155	 -0.216482
C	 -1.219997	 0.642093	 -0.723411
H	 -3.282384	 1.241659	 -1.099843
H	 -2.654592	 1.719838	 0.469347
C	 -1.124566	 -0.371234	 -1.866810
H	 -0.768713	 1.579791	 -1.033813
H	 -0.636412	 0.292326	 0.126794
C	 0.315298	 -0.631456	 -2.313901
H	 -1.707649	 -0.010498	 -2.711637
H	 -1.581891	 -1.311781	 -1.565538
C	 0.405909	 -1.633132	 -3.468191
H	 0.770028	 0.312479	 -2.603623
H	 0.893398	 -1.003723	 -1.469151
C	 1.834491	 -1.988349	 -3.896028
H	 -0.139327	 -1.243771	 -4.326567
H	 -0.104111	 -2.548455	 -3.175316
C	 2.620615	 -0.829300	 -4.511035
H	 1.784389	 -2.797673	 -4.620205
H	 2.379640	 -2.381205	 -3.040225
H	 2.090838	 -0.405655	 -5.360228
H	 2.793238	 -0.031004	 -3.796963
H	 3.591165	 -1.166107	 -4.862590

	symmetry c1
}
set optking {
	frozen_dihedral = ("
		6 3 5 8,
		3 5 8 12,
		12 8 11 14,
		8 11 14 18,
		20 17 14 18
	")
}

ee = energy('scf')
oeprop('DIPOLE', 'QUADRUPOLE', 'MULLIKEN_CHARGES')
f=open( 'psi4out.xyz', 'w' )
f.write( "25  " )
f.write( str(ee) + "\n" )
f.write( MOL.save_string_xyz() )
f.close()
--------------------------------------------------------------------------

    Molecular point group: c1

    Geometry (in Angstrom), charge = 0, multiplicity = 1:

       Center              X                  Y                   Z               Mass
    ------------   -----------------  -----------------  -----------------  -----------------
           H         -2.489543548966     0.303430761745     3.354345245226     1.007825032070
           C         -2.535274548966     0.321172761745     2.258345245226    12.000000000000
           C         -1.888676548966     1.520289761745     1.612868245226    12.000000000000
           O         -3.066970548966    -0.562582238255     1.668407245226    15.994914619560
           C         -0.448429548966     1.240665761745     1.161478245226    12.000000000000
           H         -2.510816548966     1.840231761745     0.785046245226     1.007825032070
           H         -1.883024548966     2.318410761745     2.354236245226     1.007825032070
           C         -0.352998548966     0.227338761745     0.018079245226    12.000000000000
           H          0.002854451034     2.178363761745     0.851076245226     1.007825032070
           H          0.135155451034     0.890898761745     2.011683245226     1.007825032070
           C          1.086865451034    -0.032883238255    -0.429011754774    12.000000000000
           H         -0.936081548966     0.588074761745    -0.826747754774     1.007825032070
           H         -0.810323548966    -0.713208238255     0.319351245226     1.007825032070
           C          1.177476451034    -1.034559238255    -1.583301754774    12.000000000000
           H          1.541595451034     0.911051761745    -0.718733754774     1.007825032070
           H          1.664965451034    -0.405150238255     0.415738245226     1.007825032070
           C          2.606058451034    -1.389776238255    -2.011138754774    12.000000000000
           H          0.632240451034    -0.645198238255    -2.441677754774     1.007825032070
           H          0.667456451034    -1.949882238255    -1.290426754774     1.007825032070
           C          3.392182451034    -0.230727238255    -2.626145754774    12.000000000000
           H          2.555956451034    -2.199100238255    -2.735315754774     1.007825032070
           H          3.151207451034    -1.782632238255    -1.155335754774     1.007825032070
           H          2.862405451034     0.192917761745    -3.475338754774     1.007825032070
           H          3.564805451034     0.567568761745    -1.912073754774     1.007825032070
           H          4.362732451034    -0.567534238255    -2.977700754774     1.007825032070

  Charge       = 0
  Multiplicity = 1
  Basis Set: 6-31G*
  Basis Set:

    Orbital Energies (a.u.)
    -----------------------

    Doubly Occupied:

       1A    -20.563522     2A    -11.326905     3A    -11.234892
       4A    -11.234020     5A    -11.215470     6A    -11.214679
       7A    -11.214547     8A    -11.212725     9A    -11.207995
      10A     -1.403825    11A     -1.099096    12A     -1.066404
      13A     -1.010509    14A     -0.941002    15A     -0.874547
      16A     -0.815207    17A     -0.782967    18A     -0.775653
      19A     -0.675074    20A     -0.660766    21A     -0.630281
      22A     -0.616935    23A     -0.593721    24A     -0.588487
      25A     -0.577395    26A     -0.550361    27A     -0.537230
      28A     -0.516358    29A     -0.507269    30A     -0.494168
      31A     -0.487781    32A     -0.474148    33A     -0.460302
      34A     -0.454589    35A     -0.437817    36A     -0.407720

  @DF-RHF Final Energy:  -387.11999798487818

   => Energetics <=

    Nuclear Repulsion Energy =            442.9465544255816667
    One-Electron Energy =               -1402.4045094712600985
    Two-Electron Energy =                 572.3379570607977485
    DFT Exchange-Correlation Energy =       0.0000000000000000
    Empirical Dispersion Energy =           0.0000000000000000
    PCM Polarization Energy =               0.0000000000000000
    EFP Energy =                            0.0000000000000000
    Total Energy =                       -387.1199979848806834

  Mulliken Charges: (a.u.)
   Center  Symbol    Alpha    Beta     Spin     Total
       1     H     0.42926  0.42926  0.00000  0.14148
       2     C     2.84163  2.84163  0.00000  0.31674
       3     C     3.20117  3.20117  0.00000 -0.40234
       4     O     4.23505  4.23505  0.00000 -0.47009
       5     C     3.16310  3.16310  0.00000 -0.32620
       6     H     0.40004  0.40004  0.00000  0.19991
       7     H     0.41505  0.41505  0.00000  0.16990
       8     C     3.15561  3.15561  0.00000 -0.31123
       9     H     0.41359  0.41359  0.00000  0.17282
      10     H     0.41900  0.41900  0.00000  0.16201
      11     C     3.15465  3.15465  0.00000 -0.30931
      12     H     0.42062  0.42062  0.00000  0.15876
      13     H     0.40744  0.40744  0.00000  0.18512
      14     C     3.15283  3.15283  0.00000 -0.30566
      15     H     0.42291  0.42291  0.00000  0.15417
      16     H     0.42470  0.42470  0.00000  0.15060
      17     C     3.15254  3.15254  0.00000 -0.30509
      18     H     0.42358  0.42358  0.00000  0.15285
      19     H     0.41979  0.41979  0.00000  0.16042
      20     C     3.24107  3.24107  0.00000 -0.48215
      21     H     0.42049  0.42049  0.00000  0.15901
      22     H     0.42352  0.42352  0.00000  0.15297
      23     H     0.42227  0.42227  0.00000  0.15547
      24     H     0.42077  0.42077  0.00000  0.15846
      25     H     0.41931  0.41931  0.00000  0.16138

   Total alpha = 36.00000, Total beta = 36.00000, Total charge =  0.00000
