  ==> Input File <==

--------------------------------------------------------------------------
set {
	reference rhf
	basis 6-31G*
}

set_num_threads( 1 )
memory 2 gb

molecule MOL {
0 1

H	 3.463771	 0.168298	 -0.756243
C	 2.752674	 -0.045734	 0.033351
C	 1.322923	 0.120767	 -0.479465
H	 2.934561	 -1.059086	 0.377456
H	 2.958358	 0.631174	 0.856809
C	 0.306652	 -0.176050	 0.621399
H	 1.144658	 -0.551717	 -1.312180
H	 1.166477	 1.131798	 -0.836680
N	 -1.068537	 -0.011044	 0.085269
H	 0.372515	 -1.192590	 0.973735
H	 0.391664	 0.520566	 1.441230
O	 -1.918754	 0.334349	 0.846326
O	 -1.233873	 -0.267826	 -1.068313

	symmetry c1
}
set optking {
	frozen_dihedral = ("
		7 3 6 9
	")
}

ee = energy('scf')
oeprop('DIPOLE', 'QUADRUPOLE', 'MULLIKEN_CHARGES')
f=open( 'psi4out.xyz', 'w' )
f.write( "13  " )
f.write( str(ee) + "\n" )
f.write( MOL.save_string_xyz() )
f.close()
--------------------------------------------------------------------------

    Molecular point group: c1

    Geometry (in Angstrom), charge = 0, multiplicity = 1:

       Center              X                  Y                   Z               Mass
    ------------   -----------------  -----------------  -----------------  -----------------
           H          3.466831490232     0.175677554416    -0.761821301780     1.007825032070
           C          2.755734490232    -0.038354445584     0.027772698220    12.000000000000
           C          1.325983490232     0.128146554416    -0.485043301780    12.000000000000
           H          2.937621490232    -1.051706445584     0.371877698220     1.007825032070
           H          2.961418490232     0.638553554416     0.851230698220     1.007825032070
           C          0.309712490232    -0.168670445584     0.615820698220    12.000000000000
           H          1.147718490232    -0.544337445584    -1.317758301780     1.007825032070
           H          1.169537490232     1.139177554416    -0.842258301780     1.007825032070
           N         -1.065476509768    -0.003664445584     0.079690698220    14.003074004780
           H          0.375575490232    -1.185210445584     0.968156698220     1.007825032070
           H          0.394724490232     0.527945554416     1.435651698220     1.007825032070
           O         -1.915693509768     0.341728554416     0.840747698220    15.994914619560
           O         -1.230812509768    -0.260446445584    -1.073891301780    15.994914619560

  Charge       = 0
  Multiplicity = 1
  Basis Set: 6-31G*
  Basis Set:

    Orbital Energies (a.u.)
    -----------------------

    Doubly Occupied:

       1A    -20.602258     2A    -20.601653     3A    -15.848584
       4A    -11.300196     5A    -11.248663     6A    -11.235793
       7A     -1.632069     8A     -1.417876     9A     -1.133795
      10A     -1.026169    11A     -0.882739    12A     -0.826074
      13A     -0.762102    14A     -0.746309    15A     -0.726195
      16A     -0.660381    17A     -0.604527    18A     -0.581681
      19A     -0.549987    20A     -0.519722    21A     -0.510290
      22A     -0.483741    23A     -0.473254    24A     -0.449665

  @DF-RHF Final Energy:  -321.73397684735949

   => Energetics <=

    Nuclear Repulsion Energy =            248.0292731836479163
    One-Electron Energy =                -929.8791090467943832
    Two-Electron Energy =                 360.1158590157872936
    DFT Exchange-Correlation Energy =       0.0000000000000000
    Empirical Dispersion Energy =           0.0000000000000000
    PCM Polarization Energy =               0.0000000000000000
    EFP Energy =                            0.0000000000000000
    Total Energy =                       -321.7339768473592017

  Mulliken Charges: (a.u.)
   Center  Symbol    Alpha    Beta     Spin     Total
       1     H     0.40814  0.40814  0.00000  0.18373
       2     C     3.24863  3.24863  0.00000 -0.49726
       3     C     3.16916  3.16916  0.00000 -0.33832
       4     H     0.41681  0.41681  0.00000  0.16638
       5     H     0.41728  0.41728  0.00000  0.16544
       6     C     3.09035  3.09035  0.00000 -0.18070
       7     H     0.39380  0.39380  0.00000  0.21239
       8     H     0.40622  0.40622  0.00000  0.18755
       9     N     3.22189  3.22189  0.00000  0.55622
      10     H     0.38446  0.38446  0.00000  0.23107
      11     H     0.38646  0.38646  0.00000  0.22707
      12     O     4.22884  4.22884  0.00000 -0.45768
      13     O     4.22795  4.22795  0.00000 -0.45590

   Total alpha = 24.00000, Total beta = 24.00000, Total charge =  0.00000
