  ==> Input File <==

--------------------------------------------------------------------------
set {
	reference rhf
	basis cc-pvtz
}

set_num_threads( 4 )
memory 2 gb

molecule MOL {
0 1

O	 0.813808	 -1.447904	 -2.066420
C	 0.141544	 -1.327562	 -1.100263
C	 -1.265242	 -1.834763	 -0.961141
O	 0.550743	 -0.719877	 0.000412
H	 -1.321150	 -2.526656	 -0.130742
H	 -1.564837	 -2.323849	 -1.873594
H	 -1.929349	 -1.007837	 -0.745289
C	 1.863204	 -0.194033	 0.000410
H	 2.031502	 0.409177	 -0.879273
H	 2.524488	 -1.045142	 0.000793
H	 2.031291	 0.409823	 0.879686

	symmetry c1
}
set optking {
	frozen_dihedral = ("
		2 4 8 9
	")
}

ee = optimize('scf')
oeprop('DIPOLE', 'QUADRUPOLE', 'MULLIKEN_CHARGES')
f=open( 'psi4out.xyz', 'w' )
f.write( "11  " )
f.write( str(ee) + "\n" )
f.write( MOL.save_string_xyz() )
f.close()
--------------------------------------------------------------------------

    Molecular point group: c1
  Charge       = 0
  Multiplicity = 1
  Basis Set: CC-PVTZ
  Basis Set:
  @DF-RHF Final Energy:  -266.93760375681484
    Total Energy =                       -266.9376037568148377
    Molecular point group: c1
  Basis Set: CC-PVTZ
  Basis Set:
  Basis Set: CC-PVTZ
  Basis Set:
  @DF-RHF Final Energy:  -266.93878246367228
    Total Energy =                       -266.9387824636722257
  Basis Set: CC-PVTZ
  Basis Set:
  Basis Set: CC-PVTZ
  Basis Set:
  @DF-RHF Final Energy:  -266.93883216419476
    Total Energy =                       -266.9388321641946504
  Basis Set: CC-PVTZ
  Basis Set:
  Basis Set: CC-PVTZ
  Basis Set:
  @DF-RHF Final Energy:  -266.93897739311353
    Total Energy =                       -266.9389773931135892
  Basis Set: CC-PVTZ
  Basis Set:
  Basis Set: CC-PVTZ
  Basis Set:
  @DF-RHF Final Energy:  -266.93905478297427
    Total Energy =                       -266.9390547829741536
  Basis Set: CC-PVTZ
  Basis Set:
  Charge       = 0
  Multiplicity = 1
  Basis Set: CC-PVTZ
  Basis Set:

    Orbital Energies (a.u.)
    -----------------------

    Doubly Occupied:

       1A    -20.598725     2A    -20.535255     3A    -11.368943
       4A    -11.279879     5A    -11.233221     6A     -1.474171
       7A     -1.367724     8A     -1.037027     9A     -0.953746
      10A     -0.780232    11A     -0.698368    12A     -0.684304
      13A     -0.681197    14A     -0.595824    15A     -0.593616
      16A     -0.561977    17A     -0.527172    18A     -0.525143
      19A     -0.462070    20A     -0.445957

  @DF-RHF Final Energy:  -266.93907311277133

   => Energetics <=

    Nuclear Repulsion Energy =            183.6818150592793017
    One-Electron Energy =                -728.4326756407881476
    Two-Electron Energy =                 277.8117874687374069
    DFT Exchange-Correlation Energy =       0.0000000000000000
    Empirical Dispersion Energy =           0.0000000000000000
    PCM Polarization Energy =               0.0000000000000000
    EFP Energy =                            0.0000000000000000
    Total Energy =                       -266.9390731127714389
    Molecular point group: c1
  Basis Set: CC-PVTZ
  Basis Set:

  -Total Gradient:
     Atom            X                  Y                   Z
    ------   -----------------  -----------------  -----------------
       1       -0.000010171682     0.000023342814     0.000066489317
       2       -0.000296748684     0.000674069961    -0.000293415892
       3        0.000010764639    -0.000053306152     0.000002411309
       4        0.000510788381    -0.001186250532     0.000240216062
       5       -0.000001058191     0.000023081984    -0.000040607175
       6       -0.000008469627    -0.000018320846     0.000005937516
       7       -0.000020112645     0.000032761914     0.000016888816
       8       -0.000524525267     0.001255393137     0.000447129317
       9        0.000326690489    -0.000757805607    -0.000469093662
      10        0.000013022812     0.000018891586    -0.000003447359
      11       -0.000000180222    -0.000011858260     0.000027491750

  **** Optimization is complete! (in 6 steps) ****
    Final optimized geometry and variables:
    Molecular point group: c1

    Geometry (in Angstrom), charge = 0, multiplicity = 1:

    O            0.368353125271    -0.360476323331    -1.250883293195
    C           -0.298792923738    -0.232872838457    -0.282152186204
    C           -1.710432826555    -0.725027450222    -0.138171765647
    O            0.120468399069     0.368816589605     0.818110507544
    H           -1.770810936498    -1.415367448562     0.693121297535
    H           -2.017976880373    -1.212142090895    -1.049048148872
    H           -2.365130347858     0.109105859848     0.078934176140
    C            1.431551461427     0.898218354646     0.812945390822
    H            1.594871090254     1.508274867143    -0.061784553236
    H            2.159700401013     0.099592180332     0.822138855394
    H            1.519663145654     1.488793118029     1.710180325424

  Mulliken Charges: (a.u.)
   Center  Symbol    Alpha    Beta     Spin     Total
       1     O     4.19679  4.19679  0.00000 -0.39359
       2     C     2.80150  2.80150  0.00000  0.39699
       3     C     3.13809  3.13809  0.00000 -0.27619
       4     O     4.14787  4.14787  0.00000 -0.29574
       5     H     0.44525  0.44525  0.00000  0.10949
       6     H     0.43787  0.43787  0.00000  0.12426
       7     H     0.44562  0.44562  0.00000  0.10877
       8     C     3.03358  3.03358  0.00000 -0.06717
       9     H     0.45201  0.45201  0.00000  0.09599
      10     H     0.45571  0.45571  0.00000  0.08858
      11     H     0.44570  0.44570  0.00000  0.10860

   Total alpha = 20.00000, Total beta = 20.00000, Total charge =  0.00000
