                              Psi4 1.0.54 Driver

  ==> Input File <==

--------------------------------------------------------------------------
set {
	reference rhf
	basis cc-pvtz
}

set_num_threads( 4 )
memory 2 gb

molecule MOL {
0 1

H	 -1.752232	 -2.214755	 -0.011938
C	 -1.343852	 -1.221619	 -0.018179
N	 -0.058800	 -1.097635	 -0.261688
C	 -2.148159	 -0.124236	 0.219734
C	 0.449026	 0.119242	 -0.273393
H	 -3.196988	 -0.237571	 0.417076
N	 -1.655094	 1.094230	 0.209506
C	 -0.370318	 1.215445	 -0.035100
C	 1.924033	 0.265863	 -0.538106
H	 0.033214	 2.210441	 -0.046812
C	 2.267058	 1.572739	 -1.254944
H	 2.442872	 0.229978	 0.412306
H	 2.269367	 -0.577090	 -1.124952
H	 3.337842	 1.657618	 -1.396901
H	 1.931844	 2.423739	 -0.676662
H	 1.794216	 1.619037	 -2.229533

	symmetry c1
}
set optking {
	frozen_dihedral = ("
		12 9 5 3
	")
}

ee,wfn = optimize('scf', return_wfn=True)
oeprop( wfn, 'DIPOLE', 'QUADRUPOLE', 'MULLIKEN_CHARGES')
f=open( 'psi4out.xyz', 'w' )
f.write( "16  " )
f.write( str(ee) + "\n" )
f.write( MOL.save_string_xyz() )
f.close()
--------------------------------------------------------------------------

    Molecular point group: c1
  Charge       = 0
  Multiplicity = 1
  Basis Set: CC-PVTZ
  Basis Set:
  @DF-RHF Final Energy:  -340.86850133678053
    Total Energy =                       -340.8685013367804117
    Molecular point group: c1
  Basis Set: CC-PVTZ
  Basis Set:
  Basis Set: CC-PVTZ
  Basis Set:
  @DF-RHF Final Energy:  -340.86917257873392
    Total Energy =                       -340.8691725787340374
  Basis Set: CC-PVTZ
  Basis Set:
  Basis Set: CC-PVTZ
  Basis Set:
  @DF-RHF Final Energy:  -340.86999829382427
    Total Energy =                       -340.8699982938239827
  Basis Set: CC-PVTZ
  Basis Set:
  Basis Set: CC-PVTZ
  Basis Set:
  @DF-RHF Final Energy:  -340.87004382898158
    Total Energy =                       -340.8700438289816930
  Basis Set: CC-PVTZ
  Basis Set:
  Basis Set: CC-PVTZ
  Basis Set:
  @DF-RHF Final Energy:  -340.87005506251427
    Total Energy =                       -340.8700550625142114
  Basis Set: CC-PVTZ
  Basis Set:
  Charge       = 0
  Multiplicity = 1
  Basis Set: CC-PVTZ
  Basis Set:

    Orbital Energies (a.u.)
    -----------------------

    Doubly Occupied:

       1A    -15.579991     2A    -15.574982     3A    -11.279267
       4A    -11.271373     5A    -11.267799     6A    -11.266906
       7A    -11.231819     8A    -11.221633     9A     -1.315282
      10A     -1.223061    11A     -1.086603    12A     -1.016448
      13A     -0.908871    14A     -0.894501    15A     -0.831739
      16A     -0.716643    17A     -0.712669    18A     -0.654929
      19A     -0.625655    20A     -0.609964    21A     -0.575276
      22A     -0.566095    23A     -0.522175    24A     -0.512619
      25A     -0.506556    26A     -0.484102    27A     -0.432463
      28A     -0.397244    29A     -0.346366

  @DF-RHF Final Energy:  -340.87005623989108

   => Energetics <=

    Nuclear Repulsion Energy =            349.9233578729013630
    One-Electron Energy =               -1154.3207658547939900
    Two-Electron Energy =                 463.5273517420013150
    DFT Exchange-Correlation Energy =       0.0000000000000000
    Empirical Dispersion Energy =           0.0000000000000000
    PCM Polarization Energy =               0.0000000000000000
    EFP Energy =                            0.0000000000000000
    Total Energy =                       -340.8700562398913689
    Molecular point group: c1
  Basis Set: CC-PVTZ
  Basis Set:

  -Total Gradient:
     Atom            X                  Y                   Z
    ------   -----------------  -----------------  -----------------
       1       -0.000000994230    -0.000004658292     0.000016550350
       2        0.000210836776    -0.000057406682    -0.000107851237
       3       -0.000143172116    -0.000157172571     0.000130676168
       4        0.000008629161     0.000228154088     0.000053252665
       5       -0.000036942111     0.000191381984    -0.000082836801
       6       -0.000003079000    -0.000004476728    -0.000005994107
       7       -0.000173854372    -0.000118262744     0.000010145169
       8        0.000181691763    -0.000080616254    -0.000026922300
       9       -0.000020957453     0.000138865587     0.000044126694
      10       -0.000015405083     0.000004678031    -0.000014196175
      11        0.000012707732     0.000023494283    -0.000030454632
      12        0.000009622052    -0.000137416957     0.000012880859
      13        0.000002089965     0.000002871912    -0.000005431535
      14       -0.000084118673     0.000013349520     0.000006180649
      15        0.000004916243    -0.000065544320    -0.000047462715
      16        0.000048029347     0.000022759142     0.000047336947

  **** Optimization is complete! (in 6 steps) ****
    Final optimized geometry and variables:
    Molecular point group: c1

    Geometry (in Angstrom), charge = 0, multiplicity = 1:

    H           -1.679489324756    -2.464564583626     0.208510371929
    C           -1.282611498084    -1.466910877432     0.216074066498
    N            0.005629375105    -1.327889325765    -0.008701422234
    C           -2.099550094046    -0.381142553811     0.450722308467
    C            0.505811981693    -0.108570855473    -0.004177831787
    H           -3.150029491079    -0.503954896498     0.632379589794
    N           -1.615580062268     0.842082302173     0.457455411065
    C           -0.329709537143     0.978634723658     0.232453696130
    C            1.993262953572     0.024073293920    -0.231040528085
    H            0.055209371917     1.979085150807     0.238697442381
    C            2.442762996013     1.276330243856    -0.979967033966
    H            2.488691227152    -0.016105382096     0.735125920039
    H            2.307468933429    -0.860173345543    -0.768234896647
    H            3.509190221729     1.232101497567    -1.162546258294
    H            2.249457066379     2.182145773194    -0.419084438070
    H            1.943716759316     1.362510772602    -1.938205073232

  Mulliken Charges: (a.u.)
   Center  Symbol    Alpha    Beta     Spin     Total
       1     H     0.41390  0.41390  0.00000  0.17221
       2     C     3.04187  3.04187  0.00000 -0.08374
       3     N     3.59147  3.59147  0.00000 -0.18294
       4     C     3.04794  3.04794  0.00000 -0.09588
       5     C     2.95493  2.95493  0.00000  0.09014
       6     H     0.41387  0.41387  0.00000  0.17227
       7     N     3.58837  3.58837  0.00000 -0.17673
       8     C     3.07313  3.07313  0.00000 -0.14626
       9     C     3.07073  3.07073  0.00000 -0.14146
      10     H     0.41377  0.41377  0.00000  0.17246
      11     C     3.15549  3.15549  0.00000 -0.31098
      12     H     0.44661  0.44661  0.00000  0.10677
      13     H     0.44144  0.44144  0.00000  0.11713
      14     H     0.44471  0.44471  0.00000  0.11058
      15     H     0.45455  0.45455  0.00000  0.09090
      16     H     0.44723  0.44723  0.00000  0.10553

   Total alpha = 29.00000, Total beta = 29.00000, Total charge = -0.00000

*** Psi4 exiting successfully. Buy a developer a beer!
