  ==> Input File <==

--------------------------------------------------------------------------
set {
	reference rhf
	basis cc-pvtz
}

set_num_threads( 4 )
memory 2 gb

molecule MOL {
0 1

H	 -1.752232	 -2.214755	 -0.011938
C	 -1.343852	 -1.221619	 -0.018179
N	 -0.058800	 -1.097635	 -0.261688
C	 -2.148159	 -0.124236	 0.219734
C	 0.449026	 0.119242	 -0.273393
H	 -3.196988	 -0.237571	 0.417076
N	 -1.655094	 1.094230	 0.209506
C	 -0.370318	 1.215445	 -0.035100
C	 1.924033	 0.265863	 -0.538106
H	 0.033214	 2.210441	 -0.046812
C	 2.783584	 -0.221309	 0.629493
H	 2.166190	 -0.305657	 -1.426074
H	 2.149226	 1.303901	 -0.752533
H	 3.836171	 -0.131849	 0.388675
H	 2.572123	 -1.259163	 0.851125
H	 2.592914	 0.360915	 1.524035

	symmetry c1
}
set optking {
	frozen_dihedral = ("
		12 9 5 3
	")
}

ee = optimize('scf')
oeprop('DIPOLE', 'QUADRUPOLE', 'MULLIKEN_CHARGES')
f=open( 'psi4out.xyz', 'w' )
f.write( "16  " )
f.write( str(ee) + "\n" )
f.write( MOL.save_string_xyz() )
f.close()
--------------------------------------------------------------------------

    Molecular point group: c1
  Charge       = 0
  Multiplicity = 1
  Basis Set: CC-PVTZ
  Basis Set:
  @DF-RHF Final Energy:  -340.87238282267771
    Total Energy =                       -340.8723828226777641
    Molecular point group: c1
  Basis Set: CC-PVTZ
  Basis Set:
  Basis Set: CC-PVTZ
  Basis Set:
  @DF-RHF Final Energy:  -340.87238145138087
    Total Energy =                       -340.8723814513806474
  Basis Set: CC-PVTZ
  Basis Set:
  Charge       = 0
  Multiplicity = 1
  Basis Set: CC-PVTZ
  Basis Set:

    Orbital Energies (a.u.)
    -----------------------

    Doubly Occupied:

       1A    -15.580710     2A    -15.576197     3A    -11.278224
       4A    -11.272848     5A    -11.268313     6A    -11.268169
       7A    -11.231550     8A    -11.216670     9A     -1.316284
      10A     -1.224332    11A     -1.086259    12A     -1.015341
      13A     -0.906958    14A     -0.895361    15A     -0.829449
      16A     -0.719454    17A     -0.712891    18A     -0.660028
      19A     -0.614687    20A     -0.604305    21A     -0.583508
      22A     -0.563067    23A     -0.524091    24A     -0.507005
      25A     -0.501062    26A     -0.489824    27A     -0.433144
      28A     -0.397851    29A     -0.347058

  @DF-RHF Final Energy:  -340.87238373554464

   => Energetics <=

    Nuclear Repulsion Energy =            350.6028460931014479
    One-Electron Energy =               -1155.7011795297039498
    Two-Electron Energy =                 464.2259497010574592
    DFT Exchange-Correlation Energy =       0.0000000000000000
    Empirical Dispersion Energy =           0.0000000000000000
    PCM Polarization Energy =               0.0000000000000000
    EFP Energy =                            0.0000000000000000
    Total Energy =                       -340.8723837355450428
    Molecular point group: c1
  Basis Set: CC-PVTZ
  Basis Set:

  -Total Gradient:
     Atom            X                  Y                   Z
    ------   -----------------  -----------------  -----------------
       1       -0.000001355694     0.000005398531    -0.000004246187
       2        0.000063853845    -0.000010530692     0.000013590896
       3       -0.000051813478    -0.000018155729    -0.000001055661
       4        0.000005833859     0.000061220656    -0.000010104314
       5       -0.000012353496     0.000041238925    -0.000025663622
       6        0.000004472736    -0.000001785810    -0.000000261956
       7       -0.000034628819    -0.000046797744     0.000005014311
       8        0.000047384061    -0.000027021333     0.000000783932
       9       -0.000005813279     0.000014002462     0.000013067703
      10       -0.000004391007    -0.000005790991     0.000003827270
      11       -0.000002301301     0.000002774139    -0.000006906684
      12       -0.000005284397    -0.000014707879     0.000011638713
      13       -0.000002686206     0.000001990671     0.000002296348
      14       -0.000000378886    -0.000000726215    -0.000001497710
      15       -0.000000980082    -0.000000019752     0.000000981343
      16        0.000000442147    -0.000001089242    -0.000001464380

  **** Optimization is complete! (in 3 steps) ****
    Final optimized geometry and variables:
    Molecular point group: c1

    Geometry (in Angstrom), charge = 0, multiplicity = 1:

    H           -1.752423731693    -2.214945721629    -0.010987045608
    C           -1.343869828043    -1.221958622815    -0.017588675880
    N           -0.058935546129    -1.098418808464    -0.262136878232
    C           -2.147745141629    -0.124531982789     0.220070265180
    C            0.448925850833     0.118333452500    -0.274639618518
    H           -3.196419628334    -0.237550275814     0.418026659244
    N           -1.654495023781     1.093881426549     0.209409890793
    C           -0.369887827196     1.214611296691    -0.035828169845
    C            1.923917315840     0.264543637687    -0.538967642786
    H            0.033963453142     2.209407116111    -0.047786252321
    C            2.782737909007    -0.222131506263     0.629302223820
    H            2.166116983940    -0.307730835786    -1.426348762574
    H            2.149433875028     1.302393454615    -0.753836281047
    H            3.835499066086    -0.126498969002     0.391725630315
    H            2.575886557997    -1.261792411972     0.846742610346
    H            2.586579553543     0.356055825814     1.525245465560

  Mulliken Charges: (a.u.)
   Center  Symbol    Alpha    Beta     Spin     Total
       1     H     0.41373  0.41373  0.00000  0.17253
       2     C     3.04386  3.04386  0.00000 -0.08773
       3     N     3.59792  3.59792  0.00000 -0.19583
       4     C     3.04752  3.04752  0.00000 -0.09503
       5     C     2.93747  2.93747  0.00000  0.12506
       6     H     0.41368  0.41368  0.00000  0.17265
       7     N     3.58670  3.58670  0.00000 -0.17341
       8     C     3.07850  3.07850  0.00000 -0.15699
       9     C     3.07766  3.07766  0.00000 -0.15532
      10     H     0.41569  0.41569  0.00000  0.16863
      11     C     3.14452  3.14452  0.00000 -0.28904
      12     H     0.44484  0.44484  0.00000  0.11031
      13     H     0.44944  0.44944  0.00000  0.10111
      14     H     0.44948  0.44948  0.00000  0.10104
      15     H     0.44526  0.44526  0.00000  0.10949
      16     H     0.45373  0.45373  0.00000  0.09253

   Total alpha = 29.00000, Total beta = 29.00000, Total charge =  0.00000
