  ==> Input File <==

--------------------------------------------------------------------------
set {
	reference rhf
	basis 6-31G*
}

set_num_threads( 4 )
memory 2 gb

molecule MOL {
0 1

H	 -2.281722	 -0.135500	 0.666584
C	 -1.929622	 -0.601482	 -0.248865
O	 -0.774054	 0.001095	 -0.743181
H	 -2.690668	 -0.476097	 -1.007428
H	 -1.799320	 -1.664614	 -0.070078
C	 0.406953	 0.000033	 0.038965
C	 1.527284	 -0.003667	 -0.998752
C	 0.498933	 1.262172	 0.902524
C	 0.494271	 -1.259566	 0.906664
H	 1.452513	 0.873252	 -1.631882
H	 1.448863	 -0.881882	 -1.629595
H	 2.502020	 -0.005104	 -0.521731
H	 0.364280	 2.147110	 0.289513
H	 1.472180	 1.321775	 1.378800
H	 -0.247853	 1.275162	 1.689097
H	 0.356778	 -2.146106	 0.296587
H	 1.467182	 -1.320941	 1.383330
H	 -0.252763	 -1.267328	 1.693119

	symmetry c1
}
set optking {
	frozen_dihedral = ("
		2 3 6 7
	")
}

ee = optimize('scf')
oeprop('DIPOLE', 'QUADRUPOLE', 'MULLIKEN_CHARGES')
f=open( 'psi4out.xyz', 'w' )
f.write( "18  " )
f.write( str(ee) + "\n" )
f.write( MOL.save_string_xyz() )
f.close()
--------------------------------------------------------------------------

    Molecular point group: c1
  Charge       = 0
  Multiplicity = 1
  Basis Set: 6-31G*
  Basis Set:
  @DF-RHF Final Energy:  -271.17261273000292
    Total Energy =                       -271.1726127300030385
    Molecular point group: c1
  Basis Set: 6-31G*
  Basis Set:
  Basis Set: 6-31G*
  Basis Set:
  @DF-RHF Final Energy:  -271.17328096937877
    Total Energy =                       -271.1732809693787658
  Basis Set: 6-31G*
  Basis Set:
  Basis Set: 6-31G*
  Basis Set:
  @DF-RHF Final Energy:  -271.17375801506313
    Total Energy =                       -271.1737580150630151
  Basis Set: 6-31G*
  Basis Set:
  Basis Set: 6-31G*
  Basis Set:
  @DF-RHF Final Energy:  -271.17379727237011
    Total Energy =                       -271.1737972723699386
  Basis Set: 6-31G*
  Basis Set:
  Basis Set: 6-31G*
  Basis Set:
  @DF-RHF Final Energy:  -271.17379864469859
    Total Energy =                       -271.1737986446984792
  Basis Set: 6-31G*
  Basis Set:
  Basis Set: 6-31G*
  Basis Set:
  @DF-RHF Final Energy:  -271.17380124163924
    Total Energy =                       -271.1738012416392962
  Basis Set: 6-31G*
  Basis Set:
  Basis Set: 6-31G*
  Basis Set:
  @DF-RHF Final Energy:  -271.17380241472847
    Total Energy =                       -271.1738024147283568
  Basis Set: 6-31G*
  Basis Set:
  Charge       = 0
  Multiplicity = 1
  Basis Set: 6-31G*
  Basis Set:

    Orbital Energies (a.u.)
    -----------------------

    Doubly Occupied:

       1A    -20.545333     2A    -11.281470     3A    -11.261638
       4A    -11.212256     5A    -11.205490     6A    -11.203309
       7A     -1.368498     8A     -1.073402     9A     -0.948973
      10A     -0.937094    11A     -0.911685    12A     -0.751780
      13A     -0.656117    14A     -0.645779    15A     -0.637202
      16A     -0.587432    17A     -0.574342    18A     -0.551343
      19A     -0.537361    20A     -0.525020    21A     -0.514954
      22A     -0.491215    23A     -0.483997    24A     -0.440184
      25A     -0.400154

  @DF-RHF Final Energy:  -271.17380232413313

   => Energetics <=

    Nuclear Repulsion Energy =            272.1624584720505027
    One-Electron Energy =                -907.1804616988424641
    Two-Electron Energy =                 363.8442009026588266
    DFT Exchange-Correlation Energy =       0.0000000000000000
    Empirical Dispersion Energy =           0.0000000000000000
    PCM Polarization Energy =               0.0000000000000000
    EFP Energy =                            0.0000000000000000
    Total Energy =                       -271.1738023241331348
    Molecular point group: c1
  Basis Set: 6-31G*
  Basis Set:

  -Total Gradient:
     Atom            X                  Y                   Z
    ------   -----------------  -----------------  -----------------
       1        0.000003905374     0.000001096069     0.000020326016
       2        0.000832605898    -0.002849940369    -0.001433473037
       3       -0.001258844056     0.003561794738     0.002149910528
       4        0.000002888879     0.000005042525    -0.000006635336
       5        0.000014564829     0.000010489478    -0.000007274212
       6        0.000477201613     0.001958728484    -0.000680901394
       7       -0.000032151693    -0.002682540818    -0.000024016792
       8       -0.000017595395    -0.000002912282    -0.000018758396
       9       -0.000005497365    -0.000002897120     0.000002357111
      10        0.000005347535    -0.000001399795    -0.000016835078
      11       -0.000006761290    -0.000000905374     0.000015126829
      12       -0.000000725794     0.000012243452     0.000000233965
      13       -0.000015931547    -0.000002045650     0.000009950793
      14        0.000015880130     0.000007174831    -0.000004391814
      15       -0.000007486369    -0.000011187511    -0.000003450989
      16       -0.000002594559    -0.000013445120     0.000006051174
      17       -0.000006612742     0.000006085993    -0.000012521535
      18        0.000001806554     0.000004618469     0.000004302170

  **** Optimization is complete! (in 8 steps) ****
    Final optimized geometry and variables:
    Molecular point group: c1

    Geometry (in Angstrom), charge = 0, multiplicity = 1:

    H           -2.243512953552    -0.074285246563     0.758846075259
    C           -1.960514829447    -0.462949531797    -0.216707646203
    O           -0.796612566702     0.122721197955    -0.709159453486
    H           -2.747414562779    -0.219717834508    -0.918311438043
    H           -1.883288006681    -1.543402578295    -0.149589956045
    C            0.398825834175     0.093865958427     0.056417267580
    C            1.519467929225     0.084188919277    -0.981104955224
    C            0.452969900982     1.358965927500     0.914529129442
    C            0.517989708530    -1.156291533484     0.935231711434
    H            1.419892172011     0.934307363111    -1.646794068526
    H            1.467323569461    -0.818729315974    -1.579021820153
    H            2.494453503175     0.131045191917    -0.506057102656
    H            0.380880440291     2.238604845819     0.284813209484
    H            1.378982234939     1.412930732119     1.478847303575
    H           -0.370698463111     1.383137648807     1.621431015666
    H            0.431782194189    -2.060621856090     0.342100690175
    H            1.489482898356    -1.166444765670     1.417583735866
    H           -0.233394234218    -1.185516101751     1.716640768919

  Mulliken Charges: (a.u.)
   Center  Symbol    Alpha    Beta     Spin     Total
       1     H     0.43213  0.43213  0.00000  0.13573
       2     C     3.07732  3.07732  0.00000 -0.15464
       3     O     4.32194  4.32194  0.00000 -0.64388
       4     H     0.41253  0.41253  0.00000  0.17494
       5     H     0.42805  0.42805  0.00000  0.14390
       6     C     2.84129  2.84129  0.00000  0.31741
       7     C     3.23216  3.23216  0.00000 -0.46431
       8     C     3.23568  3.23568  0.00000 -0.47136
       9     C     3.25632  3.25632  0.00000 -0.51263
      10     H     0.41316  0.41316  0.00000  0.17368
      11     H     0.41689  0.41689  0.00000  0.16621
      12     H     0.42559  0.42559  0.00000  0.14881
      13     H     0.41352  0.41352  0.00000  0.17296
      14     H     0.42427  0.42427  0.00000  0.15145
      15     H     0.42140  0.42140  0.00000  0.15720
      16     H     0.41433  0.41433  0.00000  0.17134
      17     H     0.41563  0.41563  0.00000  0.16873
      18     H     0.41777  0.41777  0.00000  0.16445

   Total alpha = 25.00000, Total beta = 25.00000, Total charge = -0.00000
