  ==> Input File <==

--------------------------------------------------------------------------
set {
	reference rhf
	basis 6-31G*
}

set_num_threads( 4 )
memory 2 gb

molecule MOL {
0 1

H	 -0.188417	 3.063274	 -0.433595
C	 0.506362	 2.288849	 -0.085382
C	 0.065331	 0.871482	 -0.349150
O	 1.521605	 2.594911	 0.450645
C	 -1.339775	 0.583656	 0.198860
H	 0.801961	 0.199421	 0.075851
H	 0.065316	 0.729746	 -1.428998
C	 -1.808407	 -0.848507	 -0.061364
H	 -2.036183	 1.280685	 -0.256307
H	 -1.360094	 0.788874	 1.267089
H	 -1.828843	 -1.063152	 -1.125336
H	 -2.808409	 -1.004529	 0.329750
H	 -1.153967	 -1.577789	 0.406873

	symmetry c1
}
set optking {
	frozen_dihedral = ("
		6 3 5 9
	")
}

ee = optimize('scf')
oeprop('DIPOLE', 'QUADRUPOLE', 'MULLIKEN_CHARGES')
f=open( 'psi4out.xyz', 'w' )
f.write( "13  " )
f.write( str(ee) + "\n" )
f.write( MOL.save_string_xyz() )
f.close()
--------------------------------------------------------------------------

    Molecular point group: c1
  Charge       = 0
  Multiplicity = 1
  Basis Set: 6-31G*
  Basis Set:
  @DF-RHF Final Energy:  -230.98496518567606
    Total Energy =                       -230.9849651856761454
    Molecular point group: c1
  Basis Set: 6-31G*
  Basis Set:
  Basis Set: 6-31G*
  Basis Set:
  @DF-RHF Final Energy:  -230.98505627173100
    Total Energy =                       -230.9850562717309401
  Basis Set: 6-31G*
  Basis Set:
  Basis Set: 6-31G*
  Basis Set:
  @DF-RHF Final Energy:  -230.98424067144038
    Total Energy =                       -230.9842406714404035
  Basis Set: 6-31G*
  Basis Set:
  Basis Set: 6-31G*
  Basis Set:
  @DF-RHF Final Energy:  -230.98507489118111
    Total Energy =                       -230.9850748911811706
  Basis Set: 6-31G*
  Basis Set:
  Basis Set: 6-31G*
  Basis Set:
  @DF-RHF Final Energy:  -230.98507655156484
    Total Energy =                       -230.9850765515650721
  Basis Set: 6-31G*
  Basis Set:
  Charge       = 0
  Multiplicity = 1
  Basis Set: 6-31G*
  Basis Set:

    Orbital Energies (a.u.)
    -----------------------

    Doubly Occupied:

       1A    -20.562963     2A    -11.327022     3A    -11.239378
       4A    -11.235850     5A    -11.223970     6A     -1.402736
       7A     -1.087318     8A     -0.976383     9A     -0.839825
      10A     -0.794528    11A     -0.677580    12A     -0.641175
      13A     -0.631747    14A     -0.587926    15A     -0.556985
      16A     -0.532119    17A     -0.514182    18A     -0.492469
      19A     -0.483556    20A     -0.410572

  @DF-RHF Final Energy:  -230.98507708754298

   => Energetics <=

    Nuclear Repulsion Energy =            170.4256440044796079
    One-Electron Energy =                -650.3848753426716485
    Two-Electron Energy =                 248.9741542506487519
    DFT Exchange-Correlation Energy =       0.0000000000000000
    Empirical Dispersion Energy =           0.0000000000000000
    PCM Polarization Energy =               0.0000000000000000
    EFP Energy =                            0.0000000000000000
    Total Energy =                       -230.9850770875432602
    Molecular point group: c1
  Basis Set: 6-31G*
  Basis Set:

  -Total Gradient:
     Atom            X                  Y                   Z
    ------   -----------------  -----------------  -----------------
       1        0.000000447240    -0.000007773658     0.000009077629
       2       -0.000002567240     0.000015281296    -0.000003491662
       3       -0.000002191289     0.000356903862     0.000328509714
       4        0.000029756090    -0.000005159138    -0.000013154333
       5        0.000116728162     0.000318089967     0.000338987736
       6       -0.000085020926    -0.000306691588    -0.000332853266
       7        0.000028481827     0.000000252857    -0.000000056318
       8       -0.000023421114    -0.000070240989    -0.000009534973
       9       -0.000035441230    -0.000299234109    -0.000312230670
      10       -0.000016786426     0.000017334745    -0.000005951130
      11        0.000007068351     0.000003690174     0.000007946423
      12       -0.000010071775    -0.000018033367    -0.000017273056
      13       -0.000006981678    -0.000004420059     0.000010023903

  **** Optimization is complete! (in 6 steps) ****
    Final optimized geometry and variables:
    Molecular point group: c1

    Geometry (in Angstrom), charge = 0, multiplicity = 1:

    H            0.036939760845     1.971734522519    -0.488147057229
    C            0.718399386346     1.192834313236    -0.125585134212
    C            0.273038607905    -0.222476768183    -0.387742088732
    O            1.724951659505     1.492236435779     0.430600299397
    C           -1.131908590843    -0.498070179846     0.164135491013
    H            1.005161759805    -0.896926414521     0.040974790155
    H            0.270865374583    -0.374928067520    -1.466591133367
    C           -1.588656802580    -1.931774545661    -0.101135588463
    H           -1.840181765756     0.193992951405    -0.285290334156
    H           -1.143937786901    -0.305021362363     1.233572227782
    H           -1.612821375757    -2.144235524548    -1.165935714376
    H           -2.584640940502    -2.101689091558     0.294257133197
    H           -0.919195915027    -2.647938314809     0.365191113152

  Mulliken Charges: (a.u.)
   Center  Symbol    Alpha    Beta     Spin     Total
       1     H     0.43203  0.43203  0.00000  0.13594
       2     C     2.82992  2.82992  0.00000  0.34015
       3     C     3.20719  3.20719  0.00000 -0.41438
       4     O     4.23701  4.23701  0.00000 -0.47402
       5     C     3.16472  3.16472  0.00000 -0.32944
       6     H     0.39943  0.39943  0.00000  0.20113
       7     H     0.40962  0.40962  0.00000  0.18075
       8     C     3.23937  3.23937  0.00000 -0.47874
       9     H     0.41811  0.41811  0.00000  0.16379
      10     H     0.41199  0.41199  0.00000  0.17602
      11     H     0.41927  0.41927  0.00000  0.16146
      12     H     0.41465  0.41465  0.00000  0.17069
      13     H     0.41668  0.41668  0.00000  0.16665

   Total alpha = 20.00000, Total beta = 20.00000, Total charge = -0.00000
