  ==> Input File <==

--------------------------------------------------------------------------
set {
	reference rhf
	basis 6-31G*
}

set_num_threads( 4 )
memory 2 gb

molecule MOL {
0 1

H	 -3.726646	 0.189067	 -1.637002
C	 -3.054511	 -0.483660	 -1.140682
C	 -2.076860	 -0.007332	 -0.404944
H	 -3.203158	 -1.540138	 -1.261799
O	 -1.180634	 -0.819263	 0.215062
H	 -1.915256	 1.046959	 -0.265123
C	 0.051604	 -1.018856	 -0.387932
C	 1.043764	 0.054862	 -0.001873
H	 -0.017620	 -1.041351	 -1.469781
H	 0.437898	 -1.966374	 -0.042284
F	 2.212596	 -0.199467	 -0.571921
F	 0.652529	 1.252447	 -0.405055
F	 1.230877	 0.110694	 1.300533

	symmetry c1
}
set optking {
	frozen_dihedral = ("
		6 3 5 7
	")
}

ee = optimize('scf')
oeprop('DIPOLE', 'QUADRUPOLE', 'MULLIKEN_CHARGES')
f=open( 'psi4out.xyz', 'w' )
f.write( "13  " )
f.write( str(ee) + "\n" )
f.write( MOL.save_string_xyz() )
f.close()
--------------------------------------------------------------------------

    Molecular point group: c1
  Charge       = 0
  Multiplicity = 1
  Basis Set: 6-31G*
  Basis Set:
  @DF-RHF Final Energy:  -527.53285091901830
    Total Energy =                       -527.5328509190180739
    Molecular point group: c1
  Basis Set: 6-31G*
  Basis Set:
  Basis Set: 6-31G*
  Basis Set:
  @DF-RHF Final Energy:  -527.53315990818601
    Total Energy =                       -527.5331599081858940
  Basis Set: 6-31G*
  Basis Set:
  Basis Set: 6-31G*
  Basis Set:
  @DF-RHF Final Energy:  -527.53341469340671
    Total Energy =                       -527.5334146934069395
  Basis Set: 6-31G*
  Basis Set:
  Basis Set: 6-31G*
  Basis Set:
  @DF-RHF Final Energy:  -527.53342526901338
    Total Energy =                       -527.5334252690133781
  Basis Set: 6-31G*
  Basis Set:
  Basis Set: 6-31G*
  Basis Set:
  @DF-RHF Final Energy:  -527.53342738218748
    Total Energy =                       -527.5334273821877105
  Basis Set: 6-31G*
  Basis Set:
  Charge       = 0
  Multiplicity = 1
  Basis Set: 6-31G*
  Basis Set:

    Orbital Energies (a.u.)
    -----------------------

    Doubly Occupied:

       1A    -26.342764     2A    -26.342687     3A    -26.338728
       4A    -20.598140     5A    -11.500831     6A    -11.313574
       7A    -11.295034     8A    -11.229371     9A     -1.739845
      10A     -1.638195    11A     -1.636273    12A     -1.426177
      13A     -1.079696    14A     -1.018534    15A     -0.924698
      16A     -0.833448    17A     -0.829078    18A     -0.825867
      19A     -0.769884    20A     -0.719149    21A     -0.712096
      22A     -0.701101    23A     -0.673721    24A     -0.656850
      25A     -0.651084    26A     -0.641774    27A     -0.639807
      28A     -0.593979    29A     -0.567820    30A     -0.527079
      31A     -0.463716    32A     -0.377233

  @DF-RHF Final Energy:  -527.53342784396318

   => Energetics <=

    Nuclear Repulsion Energy =            412.4882950370867434
    One-Electron Energy =               -1548.8269836003973978
    Two-Electron Energy =                 608.8052607193473023
    DFT Exchange-Correlation Energy =       0.0000000000000000
    Empirical Dispersion Energy =           0.0000000000000000
    PCM Polarization Energy =               0.0000000000000000
    EFP Energy =                            0.0000000000000000
    Total Energy =                       -527.5334278439632953
    Molecular point group: c1
  Basis Set: 6-31G*
  Basis Set:

  -Total Gradient:
     Atom            X                  Y                   Z
    ------   -----------------  -----------------  -----------------
       1       -0.000003329746    -0.000003519953    -0.000020958201
       2       -0.000001147170    -0.000016751800     0.000030762771
       3        0.000872282961    -0.000348380155    -0.001853752261
       4        0.000009875170     0.000013341434    -0.000003841840
       5        0.000362259562     0.001284091980     0.001242124282
       6       -0.000834348345     0.000000787050     0.001166825044
       7       -0.000360320890    -0.000915762630    -0.000568495610
       8        0.000018923100    -0.000000836552    -0.000003686708
       9       -0.000003109822    -0.000006159440     0.000003621905
      10       -0.000003796110    -0.000001276864    -0.000000195491
      11       -0.000043463618     0.000004526503     0.000031308312
      12       -0.000033154551     0.000020275382    -0.000037274574
      13        0.000019329473    -0.000030334956     0.000013562372

  **** Optimization is complete! (in 6 steps) ****
    Final optimized geometry and variables:
    Molecular point group: c1

    Geometry (in Angstrom), charge = 0, multiplicity = 1:

    H           -3.829177506421     0.243522804134    -1.474728975891
    C           -3.119198018636    -0.404824792013    -0.997028739303
    C           -2.100444412442     0.099308117581    -0.339908356335
    H           -3.276907010028    -1.465772733336    -1.061403599751
    O           -1.206947832146    -0.692082081937     0.331755037680
    H           -1.934432512668     1.156138650285    -0.237058782442
    C            0.033213578077    -0.903986999154    -0.264491907217
    C            1.038924256323     0.141755632446     0.158670669035
    H           -0.030184960132    -0.902262049298    -1.345485187928
    H            0.400268795543    -1.864034036976     0.068891043547
    F            2.207224725547    -0.106181639448    -0.414239077001
    F            0.666296281281     1.360680832559    -0.202624351713
    F            1.222263327236     0.152847573478     1.463681001630

  Mulliken Charges: (a.u.)
   Center  Symbol    Alpha    Beta     Spin     Total
       1     H     0.40508  0.40508  0.00000  0.18984
       2     C     3.21334  3.21334  0.00000 -0.42668
       3     C     2.91937  2.91937  0.00000  0.16126
       4     H     0.40252  0.40252  0.00000  0.19496
       5     O     4.31006  4.31006  0.00000 -0.62012
       6     H     0.39970  0.39970  0.00000  0.20060
       7     C     3.05431  3.05431  0.00000 -0.10862
       8     C     2.45884  2.45884  0.00000  1.08232
       9     H     0.40382  0.40382  0.00000  0.19235
      10     H     0.39340  0.39340  0.00000  0.21321
      11     F     4.68251  4.68251  0.00000 -0.36502
      12     F     4.68155  4.68155  0.00000 -0.36310
      13     F     4.67550  4.67550  0.00000 -0.35101

   Total alpha = 32.00000, Total beta = 32.00000, Total charge = -0.00000
