                              Psi4 1.0.54 Driver

  ==> Input File <==

--------------------------------------------------------------------------
set {
	reference rhf
	basis cc-pvtz
}

set_num_threads( 4 )
memory 2 gb

molecule MOL {
0 1

O	 -2.081319	 -0.951530	 -0.502732
N	 -1.613558	 0.006676	 0.014756
C	 -0.329345	 -0.171618	 0.743966
O	 -2.068523	 1.100482	 -0.024385
C	 0.835904	 0.041968	 -0.213982
H	 -0.346048	 -1.174374	 1.137184
H	 -0.333613	 0.555559	 1.538590
C	 2.177039	 -0.130175	 0.494460
H	 0.754456	 -0.665923	 -1.030569
H	 0.765464	 1.037260	 -0.637266
C	 2.569731	 1.100699	 1.303919
H	 2.948759	 -0.341208	 -0.239945
H	 2.130407	 -0.994395	 1.150475
H	 2.656967	 1.974842	 0.668339
H	 1.831333	 1.318087	 2.067612
H	 3.522826	 0.952129	 1.796564

	symmetry c1
}
set optking {
	frozen_dihedral = ("
		11 8 5 9
	")
}

ee,wfn = optimize('scf', return_wfn=True)
oeprop( wfn, 'DIPOLE', 'QUADRUPOLE', 'MULLIKEN_CHARGES')
f=open( 'psi4out.xyz', 'w' )
f.write( "16  " )
f.write( str(ee) + "\n" )
f.write( MOL.save_string_xyz() )
f.close()
--------------------------------------------------------------------------

    Molecular point group: c1
  Charge       = 0
  Multiplicity = 1
  Basis Set: CC-PVTZ
  Basis Set:
  @DF-RHF Final Energy:  -360.90707126252687
    Total Energy =                       -360.9070712625273245
    Molecular point group: c1
  Basis Set: CC-PVTZ
  Basis Set:
  Basis Set: CC-PVTZ
  Basis Set:
  @DF-RHF Final Energy:  -360.90738310744985
    Total Energy =                       -360.9073831074501868
  Basis Set: CC-PVTZ
  Basis Set:
  Basis Set: CC-PVTZ
  Basis Set:
  @DF-RHF Final Energy:  -360.90689183501667
    Total Energy =                       -360.9068918350167223
  Basis Set: CC-PVTZ
  Basis Set:
  Basis Set: CC-PVTZ
  Basis Set:
  @DF-RHF Final Energy:  -360.90739267214502
    Total Energy =                       -360.9073926721453063
  Basis Set: CC-PVTZ
  Basis Set:
  Basis Set: CC-PVTZ
  Basis Set:
  @DF-RHF Final Energy:  -360.90739046909334
    Total Energy =                       -360.9073904690932295
  Basis Set: CC-PVTZ
  Basis Set:
  Basis Set: CC-PVTZ
  Basis Set:
  @DF-RHF Final Energy:  -360.90742981053853
    Total Energy =                       -360.9074298105386447
  Basis Set: CC-PVTZ
  Basis Set:
  Charge       = 0
  Multiplicity = 1
  Basis Set: CC-PVTZ
  Basis Set:

    Orbital Energies (a.u.)
    -----------------------

    Doubly Occupied:

       1A    -20.589663     2A    -20.589448     3A    -15.836116
       4A    -11.296095     5A    -11.250791     6A    -11.241987
       7A    -11.227280     8A     -1.635123     9A     -1.419375
      10A     -1.136348    11A     -1.058383    12A     -0.950544
      13A     -0.851121    14A     -0.822444    15A     -0.761108
      16A     -0.737483    17A     -0.726460    18A     -0.666579
      19A     -0.631871    20A     -0.602408    21A     -0.569945
      22A     -0.549998    23A     -0.513607    24A     -0.501605
      25A     -0.495749    26A     -0.485034    27A     -0.470717
      28A     -0.451919

  @DF-RHF Final Energy:  -360.90742998868666

   => Energetics <=

    Nuclear Repulsion Energy =            315.8245381464956836
    One-Electron Energy =               -1117.3255314173266015
    Two-Electron Energy =                 440.5935632821444869
    DFT Exchange-Correlation Energy =       0.0000000000000000
    Empirical Dispersion Energy =           0.0000000000000000
    PCM Polarization Energy =               0.0000000000000000
    EFP Energy =                            0.0000000000000000
    Total Energy =                       -360.9074299886864310
    Molecular point group: c1
  Basis Set: CC-PVTZ
  Basis Set:

  -Total Gradient:
     Atom            X                  Y                   Z
    ------   -----------------  -----------------  -----------------
       1       -0.000055943504     0.000073933703    -0.000026940650
       2        0.000091781692    -0.000006807316     0.000063920913
       3        0.000002855797     0.000009176507     0.000009281573
       4       -0.000064296823    -0.000054458981    -0.000057402410
       5       -0.000757759933    -0.001550405625     0.001112765225
       6        0.000017536882    -0.000002680037     0.000001013322
       7        0.000013821400    -0.000001627349     0.000003653059
       8       -0.000810959202    -0.000509847820     0.001433679811
       9        0.000838063511     0.001433204962    -0.001303168422
      10       -0.000008216232    -0.000000925023     0.000002718798
      11        0.000724731609     0.000606988264    -0.001240251525
      12        0.000008364136     0.000011493904     0.000004674261
      13        0.000000977470    -0.000005573012    -0.000000525452
      14        0.000001232488     0.000005795615     0.000003289864
      15       -0.000005305723    -0.000010992440    -0.000010049404
      16        0.000003116434     0.000002724648     0.000003341039

  **** Optimization is complete! (in 7 steps) ****
    Final optimized geometry and variables:
    Molecular point group: c1

    Geometry (in Angstrom), charge = 0, multiplicity = 1:

    O           -1.970024226438    -1.098956009629    -0.780948438197
    N           -1.503598728478    -0.145473982801    -0.253570844769
    C           -0.228672314353    -0.332735183360     0.489892019256
    O           -1.953547837408     0.950511143733    -0.292555348160
    C            0.946935625031    -0.109122025328    -0.454410099351
    H           -0.248629804115    -1.341234961917     0.867683256273
    H           -0.248445779199     0.382336979894     1.294197051374
    C            2.297314044428    -0.258799950107     0.252619607700
    H            0.878905684152    -0.813423800676    -1.273989685229
    H            0.867261655383     0.882692794757    -0.884729714189
    C            2.705753180395     0.956072651706     1.081652281468
    H            3.053183873276    -0.429631025607    -0.505304027366
    H            2.289344400300    -1.149262405620     0.874399047607
    H            2.772296983556     1.841940839577     0.460385547196
    H            2.000210386266     1.164202515626     1.878305719057
    H            3.674433387194     0.798384764232     1.540115108847

  Mulliken Charges: (a.u.)
   Center  Symbol    Alpha    Beta     Spin     Total
       1     O     4.17387  4.17387  0.00000 -0.34774
       2     N     3.27527  3.27527  0.00000  0.44946
       3     C     3.04112  3.04112  0.00000 -0.08224
       4     O     4.17379  4.17379  0.00000 -0.34758
       5     C     3.10864  3.10864  0.00000 -0.21729
       6     H     0.43390  0.43390  0.00000  0.13219
       7     H     0.43413  0.43413  0.00000  0.13173
       8     C     3.09820  3.09820  0.00000 -0.19641
       9     H     0.43124  0.43124  0.00000  0.13753
      10     H     0.43859  0.43859  0.00000  0.12281
      11     C     3.14747  3.14747  0.00000 -0.29494
      12     H     0.44242  0.44242  0.00000  0.11517
      13     H     0.45139  0.45139  0.00000  0.09722
      14     H     0.45049  0.45049  0.00000  0.09903
      15     H     0.45555  0.45555  0.00000  0.08890
      16     H     0.44392  0.44392  0.00000  0.11215

   Total alpha = 28.00000, Total beta = 28.00000, Total charge = -0.00000

*** Psi4 exiting successfully. Buy a developer a beer!
