                              Psi4 1.0.54 Driver

  ==> Input File <==

--------------------------------------------------------------------------
set {
	reference rhf
	basis cc-pvtz
}

set_num_threads( 4 )
memory 2 gb

molecule MOL {
0 1

H	 -1.753821	 -0.908456	 0.388009
O	 -2.041679	 -0.058866	 0.103463
C	 -0.959304	 0.780994	 -0.094939
C	 0.354905	 0.037902	 -0.006215
H	 -0.985899	 1.279578	 -1.057596
H	 -0.969809	 1.529522	 0.682889
F	 0.412060	 -0.931028	 -0.902708
F	 1.359641	 0.856111	 -0.239961
F	 0.545380	 -0.506387	 1.171682

	symmetry c1
}
set optking {
	frozen_dihedral = ("
		1 2 3 5
	")
}

ee,wfn = optimize('scf', return_wfn=True)
oeprop( wfn, 'DIPOLE', 'QUADRUPOLE', 'MULLIKEN_CHARGES')
f=open( 'psi4out.xyz', 'w' )
f.write( "9  " )
f.write( str(ee) + "\n" )
f.write( MOL.save_string_xyz() )
f.close()
--------------------------------------------------------------------------

    Molecular point group: c1
  Charge       = 0
  Multiplicity = 1
  Basis Set: CC-PVTZ
  Basis Set:
  @DF-RHF Final Energy:  -450.84249948841853
    Total Energy =                       -450.8424994884185253
    Molecular point group: c1
  Basis Set: CC-PVTZ
  Basis Set:
  Basis Set: CC-PVTZ
  Basis Set:
  @DF-RHF Final Energy:  -450.84108984036180
    Total Energy =                       -450.8410898403617466
  Basis Set: CC-PVTZ
  Basis Set:
  Basis Set: CC-PVTZ
  Basis Set:
  @DF-RHF Final Energy:  -450.84352296991500
    Total Energy =                       -450.8435229699151137
  Basis Set: CC-PVTZ
  Basis Set:
  Basis Set: CC-PVTZ
  Basis Set:
  @DF-RHF Final Energy:  -450.84361756654755
    Total Energy =                       -450.8436175665473229
  Basis Set: CC-PVTZ
  Basis Set:
  Basis Set: CC-PVTZ
  Basis Set:
  @DF-RHF Final Energy:  -450.84362607895787
    Total Energy =                       -450.8436260789579819
  Basis Set: CC-PVTZ
  Basis Set:
  Charge       = 0
  Multiplicity = 1
  Basis Set: CC-PVTZ
  Basis Set:

    Orbital Energies (a.u.)
    -----------------------

    Doubly Occupied:

       1A    -26.346221     2A    -26.345720     3A    -26.343595
       4A    -20.580651     5A    -11.501772     6A    -11.310104
       7A     -1.755043     8A     -1.652475     9A     -1.649216
      10A     -1.403528    11A     -1.054178    12A     -0.935065
      13A     -0.844235    14A     -0.843665    15A     -0.821629
      16A     -0.727368    17A     -0.726201    18A     -0.686109
      19A     -0.678943    20A     -0.677338    21A     -0.656373
      22A     -0.647441    23A     -0.625526    24A     -0.527936
      25A     -0.481938

  @DF-RHF Final Energy:  -450.84362758149251

   => Energetics <=

    Nuclear Repulsion Energy =            277.9996829156129365
    One-Electron Energy =               -1178.0420803865222297
    Two-Electron Energy =                 449.1987698894168943
    DFT Exchange-Correlation Energy =       0.0000000000000000
    Empirical Dispersion Energy =           0.0000000000000000
    PCM Polarization Energy =               0.0000000000000000
    EFP Energy =                            0.0000000000000000
    Total Energy =                       -450.8436275814923420
    Molecular point group: c1
  Basis Set: CC-PVTZ
  Basis Set:

  -Total Gradient:
     Atom            X                  Y                   Z
    ------   -----------------  -----------------  -----------------
       1       -0.000156394091    -0.000402703565    -0.001688556370
       2        0.000377019139     0.000205647801     0.001933627923
       3       -0.000841708577     0.001278529361     0.000572154296
       4        0.000051517730     0.000003604932     0.000212135394
       5        0.000664396544    -0.001093749753    -0.000813979327
       6        0.000000222160     0.000007755931     0.000024323286
       7       -0.000007687740    -0.000102436987    -0.000120560208
       8       -0.000018477519     0.000007992125     0.000006648915
       9       -0.000068887655     0.000095360152    -0.000125793906

  **** Optimization is complete! (in 6 steps) ****
    Final optimized geometry and variables:
    Molecular point group: c1

    Geometry (in Angstrom), charge = 0, multiplicity = 1:

    H           -1.730742422245    -0.927383710228     0.629113409164
    O           -2.009468687945    -0.045746615759     0.458222848015
    C           -0.943115390254     0.791228108585     0.155814788978
    C            0.345414188171     0.041657039892    -0.085111357400
    H           -1.159780861981     1.339664869787    -0.750959940325
    H           -0.761897128439     1.492785328086     0.960581121270
    F            0.253341244420    -0.779180669255    -1.110751653704
    F            1.326912009755     0.879787076948    -0.325109597313
    F            0.682815632823    -0.689228626660     0.960927956969

  Mulliken Charges: (a.u.)
   Center  Symbol    Alpha    Beta     Spin     Total
       1     H     0.38650  0.38650  0.00000  0.22699
       2     O     4.19573  4.19573  0.00000 -0.39146
       3     C     2.96882  2.96882  0.00000  0.06237
       4     C     2.68994  2.68994  0.00000  0.62013
       5     H     0.46021  0.46021  0.00000  0.07958
       6     H     0.46401  0.46401  0.00000  0.07199
       7     F     4.61191  4.61191  0.00000 -0.22381
       8     F     4.60751  4.60751  0.00000 -0.21502
       9     F     4.61538  4.61538  0.00000 -0.23076

   Total alpha = 25.00000, Total beta = 25.00000, Total charge =  0.00000

*** Psi4 exiting successfully. Buy a developer a beer!
