  ==> Input File <==

--------------------------------------------------------------------------
set {
	reference rhf
	basis 6-31G*
}

set_num_threads( 4 )
memory 2 gb

molecule MOL {
0 1

H	 0.971572	 -0.894200	 2.029153
C	 0.030571	 -0.984041	 1.504033
O	 0.000000	 0.000000	 0.521119
H	 -0.037968	 -1.981289	 1.072189
H	 -0.783557	 -0.861303	 2.216648
C	 -1.165642	 0.000000	 -0.238270
H	 -1.228672	 0.883184	 -0.872070
H	 -2.003012	 0.000000	 0.445920
H	 -1.228672	 -0.883184	 -0.872070

	symmetry c1
}
set optking {
	frozen_dihedral = ("
		2 3 6 7
	")
}

ee = optimize('scf')
oeprop('DIPOLE', 'QUADRUPOLE', 'MULLIKEN_CHARGES')
f=open( 'psi4out.xyz', 'w' )
f.write( "9  " )
f.write( str(ee) + "\n" )
f.write( MOL.save_string_xyz() )
f.close()
--------------------------------------------------------------------------

    Molecular point group: c1
  Charge       = 0
  Multiplicity = 1
  Basis Set: 6-31G*
  Basis Set:
  @DF-RHF Final Energy:  -154.06322822089300
    Total Energy =                       -154.0632282208929951
    Molecular point group: c1
  Basis Set: 6-31G*
  Basis Set:
  Basis Set: 6-31G*
  Basis Set:
  @DF-RHF Final Energy:  -154.06410681405487
    Total Energy =                       -154.0641068140548100
  Basis Set: 6-31G*
  Basis Set:
  Basis Set: 6-31G*
  Basis Set:
  @DF-RHF Final Energy:  -154.06436907529607
    Total Energy =                       -154.0643690752961845
  Basis Set: 6-31G*
  Basis Set:
  Charge       = 0
  Multiplicity = 1
  Basis Set: 6-31G*
  Basis Set:

    Orbital Energies (a.u.)
    -----------------------

    Doubly Occupied:

       1A    -20.556122     2A    -11.265301     3A    -11.265208
       4A     -1.379259     5A     -0.974900     6A     -0.872971
       7A     -0.661622     8A     -0.654104     9A     -0.645128
      10A     -0.552627    11A     -0.529165    12A     -0.474687
      13A     -0.417167

  @DF-RHF Final Energy:  -154.06437034657498

   => Energetics <=

    Nuclear Repulsion Energy =             84.7552886311213172
    One-Electron Energy =                -377.1427972749257265
    Two-Electron Energy =                 138.3231382972294625
    DFT Exchange-Correlation Energy =       0.0000000000000000
    Empirical Dispersion Energy =           0.0000000000000000
    PCM Polarization Energy =               0.0000000000000000
    EFP Energy =                            0.0000000000000000
    Total Energy =                       -154.0643703465749184
    Molecular point group: c1
  Basis Set: 6-31G*
  Basis Set:

  -Total Gradient:
     Atom            X                  Y                   Z
    ------   -----------------  -----------------  -----------------
       1       -0.000000837713     0.000092789737    -0.000085425713
       2       -0.000730584921     0.000736607228     0.000721547850
       3        0.000601103890    -0.000899544612    -0.000906392918
       4        0.000023091084    -0.000016247916     0.000006921399
       5        0.000002294789     0.000019061985     0.000016309794
       6        0.000677996492    -0.000694460894    -0.001031486065
       7       -0.000652287845     0.000776875943     0.001185414367
       8        0.000021927988    -0.000009230825     0.000052305261
       9        0.000057296236    -0.000005850647     0.000040806024

  **** Optimization is complete! (in 4 steps) ****
    Final optimized geometry and variables:
    Molecular point group: c1

    Geometry (in Angstrom), charge = 0, multiplicity = 1:

    H            1.377399691176    -0.545588037924     1.419132876409
    C            0.430819970426    -0.641526734873     0.905314939554
    O            0.387896336990     0.337407671790    -0.082325465127
    H            0.360766664426    -1.642379505109     0.481813122487
    H           -0.375923750419    -0.515279932865     1.625338887480
    C           -0.785124036716     0.332233715839    -0.830943129123
    H           -0.791426229402     1.227585731382    -1.437359744269
    H           -1.665711946804     0.345054605817    -0.190502767748
    H           -0.842662967205    -0.541598472627    -1.477389906378

  Mulliken Charges: (a.u.)
   Center  Symbol    Alpha    Beta     Spin     Total
       1     H     0.41179  0.41179  0.00000  0.17641
       2     C     3.08029  3.08029  0.00000 -0.16057
       3     O     4.29533  4.29533  0.00000 -0.59065
       4     H     0.43045  0.43045  0.00000  0.13909
       5     H     0.42992  0.42992  0.00000  0.14015
       6     C     3.08009  3.08009  0.00000 -0.16017
       7     H     0.41200  0.41200  0.00000  0.17600
       8     H     0.43121  0.43121  0.00000  0.13759
       9     H     0.42892  0.42892  0.00000  0.14215

   Total alpha = 13.00000, Total beta = 13.00000, Total charge =  0.00000
