  ==> Input File <==

--------------------------------------------------------------------------
set {
	reference rhf
	basis 6-31G*
}

set_num_threads( 4 )
memory 2 gb

molecule MOL {
0 1

H	 -3.420663	 1.227371	 -1.044276
O	 -3.452007	 0.283848	 -0.965577
C	 -3.181085	 -0.079926	 0.364119
C	 -1.765924	 0.277073	 0.805136
H	 -3.327791	 -1.152017	 0.410903
H	 -3.905698	 0.375695	 1.036898
C	 -0.677594	 -0.417312	 -0.014550
H	 -1.637766	 1.358238	 0.744969
H	 -1.659588	 0.017670	 1.857098
C	 0.738335	 -0.034840	 0.421385
H	 -0.814977	 -0.178223	 -1.064632
H	 -0.802730	 -1.495410	 0.071702
C	 1.822265	 -0.738362	 -0.399735
H	 0.853533	 1.043532	 0.342250
H	 0.871597	 -0.279636	 1.474438
C	 3.258060	 -0.455774	 0.057203
H	 1.718003	 -0.459167	 -1.447053
H	 1.651028	 -1.811884	 -0.354513
C	 4.109294	 -1.705630	 0.288857
H	 3.218940	 0.114915	 0.981906
H	 3.748380	 0.184788	 -0.673187
H	 3.637085	 -2.371600	 1.006241
H	 5.086440	 -1.439433	 0.680218
H	 4.267938	 -2.264963	 -0.627191

	symmetry c1
}
set optking {
	frozen_dihedral = ("
		20 16 13 17
	")
}

ee = optimize('scf')
oeprop('DIPOLE', 'QUADRUPOLE', 'MULLIKEN_CHARGES')
f=open( 'psi4out.xyz', 'w' )
f.write( "24  " )
f.write( str(ee) + "\n" )
f.write( MOL.save_string_xyz() )
f.close()
--------------------------------------------------------------------------

    Molecular point group: c1
  Charge       = 0
  Multiplicity = 1
  Basis Set: 6-31G*
  Basis Set:
  @DF-RHF Final Energy:  -349.24344076340543
    Total Energy =                       -349.2434407634052604
    Molecular point group: c1
  Basis Set: 6-31G*
  Basis Set:
  Basis Set: 6-31G*
  Basis Set:
  @DF-RHF Final Energy:  -349.24399569575496
    Total Energy =                       -349.2439956957551885
  Basis Set: 6-31G*
  Basis Set:
  Basis Set: 6-31G*
  Basis Set:
  @DF-RHF Final Energy:  -349.24407714634617
    Total Energy =                       -349.2440771463460578
  Basis Set: 6-31G*
  Basis Set:
  Basis Set: 6-31G*
  Basis Set:
  @DF-RHF Final Energy:  -349.24406222074441
    Total Energy =                       -349.2440622207442402
  Basis Set: 6-31G*
  Basis Set:
  Basis Set: 6-31G*
  Basis Set:
  @DF-RHF Final Energy:  -349.24409152821704
    Total Energy =                       -349.2440915282169271
  Basis Set: 6-31G*
  Basis Set:
  Charge       = 0
  Multiplicity = 1
  Basis Set: 6-31G*
  Basis Set:

    Orbital Energies (a.u.)
    -----------------------

    Doubly Occupied:

       1A    -20.553584     2A    -11.267695     3A    -11.217482
       4A    -11.213334     5A    -11.212976     6A    -11.211121
       7A    -11.210873     8A    -11.207755     9A     -1.360180
      10A     -1.087394    11A     -1.047547    12A     -0.987878
      13A     -0.913466    14A     -0.842740    15A     -0.798158
      16A     -0.787623    17A     -0.678867    18A     -0.655045
      19A     -0.627011    20A     -0.614532    21A     -0.593514
      22A     -0.586519    23A     -0.554158    24A     -0.537032
      25A     -0.526767    26A     -0.505369    27A     -0.494203
      28A     -0.473641    29A     -0.465796    30A     -0.459295
      31A     -0.455438    32A     -0.452756    33A     -0.417883

  @DF-RHF Final Energy:  -349.24409133018338

   => Energetics <=

    Nuclear Repulsion Energy =            380.8466237879884488
    One-Electron Energy =               -1228.1461663391137336
    Two-Electron Energy =                 498.0554512209417908
    DFT Exchange-Correlation Energy =       0.0000000000000000
    Empirical Dispersion Energy =           0.0000000000000000
    PCM Polarization Energy =               0.0000000000000000
    EFP Energy =                            0.0000000000000000
    Total Energy =                       -349.2440913301835508
    Molecular point group: c1
  Basis Set: 6-31G*
  Basis Set:

  -Total Gradient:
     Atom            X                  Y                   Z
    ------   -----------------  -----------------  -----------------
       1        0.000000794685    -0.000002002127     0.000001414579
       2        0.000008979755    -0.000006696629    -0.000002560558
       3       -0.000003248830     0.000006440494     0.000003934995
       4        0.000006588272    -0.000022567822     0.000016636938
       5       -0.000001811951     0.000000295569     0.000000131867
       6        0.000000881887     0.000000811420     0.000000547152
       7       -0.000001240725     0.000032342015    -0.000027494737
       8       -0.000007320513    -0.000008184211    -0.000006332530
       9        0.000002276136     0.000003912136     0.000009528582
      10       -0.000006346569    -0.000003556225     0.000000677919
      11       -0.000013433356     0.000016097659    -0.000009841357
      12        0.000011110436     0.000006045377    -0.000006721415
      13        0.000929642228    -0.002279137429    -0.001023529594
      14        0.000006297282    -0.000006928492    -0.000002881535
      15       -0.000017721867    -0.000007993946    -0.000004937559
      16       -0.000031130286    -0.002049640261     0.001769721848
      17       -0.000773543189     0.002252744102     0.000634371238
      18        0.000022019694    -0.000000826262     0.000008939985
      19       -0.000000794849     0.000004209749    -0.000004397488
      20       -0.000139471574     0.002050037215    -0.001341726506
      21        0.000012384627    -0.000001217173    -0.000023732018
      22       -0.000005207364     0.000005224051     0.000001309182
      23       -0.000010263525    -0.000000762129     0.000000224038
      24        0.000010559591     0.000011352917     0.000006716977

  **** Optimization is complete! (in 6 steps) ****
    Final optimized geometry and variables:
    Molecular point group: c1

    Geometry (in Angstrom), charge = 0, multiplicity = 1:

    H           -3.430784352810     1.643559392002    -1.097565868895
    O           -3.487289540509     0.699824998007    -1.038260901552
    C           -3.242730006879     0.303032984381     0.287117643590
    C           -1.824464002863     0.614220621776     0.752200951121
    H           -3.417539068175    -0.765513000850     0.310528717148
    H           -3.963784756486     0.763924195417     0.960061505650
    C           -0.744107487244    -0.090069883796    -0.069685090450
    H           -1.668178008991     1.692751495748     0.716605521132
    H           -1.737515442935     0.330054180032     1.799527393045
    C            0.674911649152     0.249707179579     0.387620652420
    H           -0.864997957285     0.171817199325    -1.116350921064
    H           -0.895365159064    -1.166505780144    -0.005344997000
    C            1.758699784434    -0.469210617011    -0.420929289160
    H            0.829741297419     1.325430078254     0.315712038212
    H            0.788330081024    -0.002892708171     1.440950672060
    C            3.193560167159    -0.098637819500     0.013825785501
    H            1.618155505562    -0.223808998957    -1.470503238075
    H            1.609373753451    -1.542791431207    -0.332716033473
    C            4.103827359753    -1.308463541356     0.220817679514
    H            3.159674357463     0.491885009489     0.926073688282
    H            3.640203012487     0.554548712221    -0.731401927561
    H            3.716718273751    -1.959620303056     0.999701627080
    H            5.105540387911    -1.004561456305     0.509264978797
    H            4.185077558261    -1.896437355486    -0.689108529871

  Mulliken Charges: (a.u.)
   Center  Symbol    Alpha    Beta     Spin     Total
       1     H     0.28339  0.28339  0.00000  0.43322
       2     O     4.36830  4.36830  0.00000 -0.73660
       3     C     2.99613  2.99613  0.00000  0.00774
       4     C     3.16901  3.16901  0.00000 -0.33801
       5     H     0.41633  0.41633  0.00000  0.16734
       6     H     0.42815  0.42815  0.00000  0.14369
       7     C     3.15274  3.15274  0.00000 -0.30548
       8     H     0.42824  0.42824  0.00000  0.14353
       9     H     0.42234  0.42234  0.00000  0.15531
      10     C     3.15398  3.15398  0.00000 -0.30795
      11     H     0.41210  0.41210  0.00000  0.17580
      12     H     0.42354  0.42354  0.00000  0.15291
      13     C     3.15395  3.15395  0.00000 -0.30790
      14     H     0.42474  0.42474  0.00000  0.15051
      15     H     0.42490  0.42490  0.00000  0.15020
      16     C     3.15480  3.15480  0.00000 -0.30960
      17     H     0.42067  0.42067  0.00000  0.15866
      18     H     0.42099  0.42099  0.00000  0.15802
      19     C     3.23952  3.23952  0.00000 -0.47904
      20     H     0.42089  0.42089  0.00000  0.15821
      21     H     0.42104  0.42104  0.00000  0.15791
      22     H     0.42222  0.42222  0.00000  0.15556
      23     H     0.42084  0.42084  0.00000  0.15833
      24     H     0.42119  0.42119  0.00000  0.15762

   Total alpha = 33.00000, Total beta = 33.00000, Total charge = -0.00000
