  ==> Input File <==

--------------------------------------------------------------------------
set {
	reference rhf
	basis 6-31G*
}

set_num_threads( 1 )
memory 2 gb

molecule MOL {
0 1

O	 -2.042549	 -1.228399	 -0.269030
C	 -1.653912	 -0.146171	 0.050137
C	 -0.332303	 0.024011	 0.778412
C	 -2.438579	 1.106236	 -0.272369
C	 0.845713	 -0.001731	 -0.208243
H	 -0.323783	 0.953829	 1.340327
H	 -0.235459	 -0.796807	 1.480410
C	 0.647080	 -1.015296	 -1.336188
H	 1.766538	 -0.233755	 0.324044
H	 0.969683	 0.993158	 -0.625340
C	 1.812967	 -1.036670	 -2.323841
H	 0.514356	 -2.007874	 -0.911217
H	 -0.273085	 -0.783564	 -1.867378
H	 2.743123	 -1.299143	 -1.827886
H	 1.949477	 -0.065107	 -2.789537
H	 1.643517	 -1.761609	 -3.113637
H	 -3.277823	 0.863061	 -0.908988
H	 -1.806773	 1.843019	 -0.759671
H	 -2.802853	 1.554979	 0.648059

	symmetry c1
}
set optking {
	frozen_dihedral = ("
		11 8 5 9,
		5 3 2 4
	")
}

ee = energy('scf')
oeprop('DIPOLE', 'QUADRUPOLE', 'MULLIKEN_CHARGES')
f=open( 'psi4out.xyz', 'w' )
f.write( "19  " )
f.write( str(ee) + "\n" )
f.write( MOL.save_string_xyz() )
f.close()
--------------------------------------------------------------------------

    Molecular point group: c1

    Geometry (in Angstrom), charge = 0, multiplicity = 1:

       Center              X                  Y                   Z               Mass
    ------------   -----------------  -----------------  -----------------  -----------------
           O         -1.590699278349    -0.896401951351     0.261793946575    15.994914619560
           C         -1.202062278349     0.185826048649     0.580960946575    12.000000000000
           C          0.119546721651     0.356008048649     1.309235946575    12.000000000000
           C         -1.986729278349     1.438233048649     0.258454946575    12.000000000000
           C          1.297562721651     0.330266048649     0.322580946575    12.000000000000
           H          0.128066721651     1.285826048649     1.871150946575     1.007825032070
           H          0.216390721651    -0.464809951351     2.011233946575     1.007825032070
           C          1.098929721651    -0.683298951351    -0.805364053425    12.000000000000
           H          2.218387721651     0.098242048649     0.854867946575     1.007825032070
           H          1.421532721651     1.325155048649    -0.094516053425     1.007825032070
           C          2.264816721651    -0.704672951351    -1.793017053425    12.000000000000
           H          0.966205721651    -1.675876951351    -0.380393053425     1.007825032070
           H          0.178764721651    -0.451566951351    -1.336554053425     1.007825032070
           H          3.194972721651    -0.967145951351    -1.297062053425     1.007825032070
           H          2.401326721651     0.266890048649    -2.258713053425     1.007825032070
           H          2.095366721651    -1.429611951351    -2.582813053425     1.007825032070
           H         -2.825973278349     1.195058048649    -0.378164053425     1.007825032070
           H         -1.354923278349     2.175016048649    -0.228847053425     1.007825032070
           H         -2.351003278349     1.886976048649     1.178882946575     1.007825032070

  Charge       = 0
  Multiplicity = 1
  Basis Set: 6-31G*
  Basis Set:

    Orbital Energies (a.u.)
    -----------------------

    Doubly Occupied:

       1A    -20.547404     2A    -11.325297     3A    -11.229519
       4A    -11.229313     5A    -11.228910     6A    -11.212715
       7A    -11.207880     8A     -1.395056     9A     -1.089145
      10A     -1.025857    11A     -0.982381    12A     -0.886097
      13A     -0.806567    14A     -0.729429    15A     -0.658548
      16A     -0.645582    17A     -0.622736    18A     -0.608941
      19A     -0.580122    20A     -0.573420    21A     -0.556736
      22A     -0.540478    23A     -0.510355    24A     -0.492904
      25A     -0.480246    26A     -0.465160    27A     -0.458313
      28A     -0.396899

  @DF-RHF Final Energy:  -309.05812729262789

   => Energetics <=

    Nuclear Repulsion Energy =            312.5216627656039918
    One-Electron Energy =               -1038.1875221396965117
    Two-Electron Energy =                 416.6077320814636096
    DFT Exchange-Correlation Energy =       0.0000000000000000
    Empirical Dispersion Energy =           0.0000000000000000
    PCM Polarization Energy =               0.0000000000000000
    EFP Energy =                            0.0000000000000000
    Total Energy =                       -309.0581272926289103

  Mulliken Charges: (a.u.)
   Center  Symbol    Alpha    Beta     Spin     Total
       1     O     4.26215  4.26215  0.00000 -0.52429
       2     C     2.74133  2.74133  0.00000  0.51733
       3     C     3.19694  3.19694  0.00000 -0.39387
       4     C     3.28886  3.28886  0.00000 -0.57773
       5     C     3.16233  3.16233  0.00000 -0.32466
       6     H     0.41500  0.41500  0.00000  0.16999
       7     H     0.40073  0.40073  0.00000  0.19854
       8     C     3.15565  3.15565  0.00000 -0.31130
       9     H     0.41388  0.41388  0.00000  0.17224
      10     H     0.42087  0.42087  0.00000  0.15825
      11     C     3.23987  3.23987  0.00000 -0.47973
      12     H     0.41100  0.41100  0.00000  0.17799
      13     H     0.41420  0.41420  0.00000  0.17160
      14     H     0.42314  0.42314  0.00000  0.15373
      15     H     0.42412  0.42412  0.00000  0.15175
      16     H     0.41676  0.41676  0.00000  0.16648
      17     H     0.39715  0.39715  0.00000  0.20570
      18     H     0.40994  0.40994  0.00000  0.18012
      19     H     0.40607  0.40607  0.00000  0.18786

   Total alpha = 28.00000, Total beta = 28.00000, Total charge =  0.00000
