  ==> Input File <==

--------------------------------------------------------------------------
set {
	reference rhf
	basis 6-31G*
}

set_num_threads( 1 )
memory 2 gb

molecule MOL {
0 1

H	 -2.646374	 -0.642757	 1.268656
C	 -2.083525	 -0.384536	 0.393091
O	 -0.807605	 -0.127164	 0.768327
F	 -2.118945	 -1.383102	 -0.486752
F	 -2.621877	 0.670592	 -0.209486
C	 0.084052	 0.273579	 -0.209957
C	 1.434196	 0.462625	 0.469405
Cl	 -0.448614	 1.782223	 -0.969876
H	 0.196587	 -0.461595	 -0.987535
F	 2.342162	 0.833899	 -0.408030
F	 1.813023	 -0.688365	 0.988202
F	 1.384741	 1.354252	 1.428847

	symmetry c1
}
set optking {
	frozen_dihedral = ("
		10 7 6 9,
		6 3 2 4
	")
}

ee = energy('scf')
oeprop('DIPOLE', 'QUADRUPOLE', 'MULLIKEN_CHARGES')
f=open( 'psi4out.xyz', 'w' )
f.write( "12  " )
f.write( str(ee) + "\n" )
f.write( MOL.save_string_xyz() )
f.close()
--------------------------------------------------------------------------

    Molecular point group: c1

    Geometry (in Angstrom), charge = 0, multiplicity = 1:

       Center              X                  Y                   Z               Mass
    ------------   -----------------  -----------------  -----------------  -----------------
           H         -2.523117524140    -1.068650977304     1.206535456891     1.007825032070
           C         -1.960268524140    -0.810429977304     0.330970456891    12.000000000000
           O         -0.684348524140    -0.553057977304     0.706206456891    15.994914619560
           F         -1.995688524140    -1.808995977304    -0.548872543109    18.998403224000
           F         -2.498620524140     0.244698022696    -0.271606543109    18.998403224000
           C          0.207308475860    -0.152314977304    -0.272077543109    12.000000000000
           C          1.557452475860     0.036731022696     0.407284456891    12.000000000000
          CL         -0.325357524140     1.356329022696    -1.031996543109    34.968852682000
           H          0.319843475860    -0.887488977304    -1.049655543109     1.007825032070
           F          2.465418475860     0.408005022696    -0.470150543109    18.998403224000
           F          1.936279475860    -1.114258977304     0.926081456891    18.998403224000
           F          1.507997475860     0.928358022696     1.366726456891    18.998403224000

  Charge       = 0
  Multiplicity = 1
  Basis Set: 6-31G*
  Basis Set:

    Orbital Energies (a.u.)
    -----------------------

    Doubly Occupied:

       1A   -104.835385     2A    -26.360546     3A    -26.358634
       4A    -26.357689     5A    -26.344468     6A    -26.338133
       7A    -20.649856     8A    -11.528961     9A    -11.487608
      10A    -11.399036    11A    -10.571056    12A     -8.040366
      13A     -8.036784    14A     -8.036702    15A     -1.761226
      16A     -1.714807    17A     -1.657762    18A     -1.656271
      19A     -1.635265    20A     -1.485682    21A     -1.177356
      22A     -1.053514    23A     -0.984417    24A     -0.918991
      25A     -0.857100    26A     -0.851474    27A     -0.845903
      28A     -0.813985    29A     -0.809249    30A     -0.789594
      31A     -0.730562    32A     -0.725728    33A     -0.710623
      34A     -0.694758    35A     -0.680077    36A     -0.674676
      37A     -0.658173    38A     -0.655927    39A     -0.644743
      40A     -0.636172    41A     -0.599794    42A     -0.569211
      43A     -0.525938    44A     -0.467435    45A     -0.460721

  @DF-RHF Final Energy: -1146.30170881103891

   => Energetics <=

    Nuclear Repulsion Energy =            744.0821282572189830
    One-Electron Energy =               -3071.1827249344523807
    Two-Electron Energy =                1180.7988878661958552
    DFT Exchange-Correlation Energy =       0.0000000000000000
    Empirical Dispersion Energy =           0.0000000000000000
    PCM Polarization Energy =               0.0000000000000000
    EFP Energy =                            0.0000000000000000
    Total Energy =                      -1146.3017088110377699

  Mulliken Charges: (a.u.)
   Center  Symbol    Alpha    Beta     Spin     Total
       1     H     0.40177  0.40177  0.00000  0.19646
       2     C     2.55269  2.55269  0.00000  0.89463
       3     O     4.30727  4.30727  0.00000 -0.61454
       4     F     4.68911  4.68911  0.00000 -0.37823
       5     F     4.68121  4.68121  0.00000 -0.36241
       6     C     3.04760  3.04760  0.00000 -0.09521
       7     C     2.42973  2.42973  0.00000  1.14054
       8    CL     8.50157  8.50157  0.00000 -0.00314
       9     H     0.36949  0.36949  0.00000  0.26102
      10     F     4.67456  4.67456  0.00000 -0.34913
      11     F     4.67669  4.67669  0.00000 -0.35338
      12     F     4.66831  4.66831  0.00000 -0.33661

   Total alpha = 45.00000, Total beta = 45.00000, Total charge =  0.00000
