  ==> Input File <==

--------------------------------------------------------------------------
set {
	reference rhf
	basis 6-31G*
}

set_num_threads( 1 )
memory 2 gb

molecule MOL {
0 1

H	 -2.798360	 -0.862255	 -0.071053
N	 -1.863561	 -0.715187	 0.256814
C	 -1.344686	 0.554728	 -0.219830
H	 -1.300452	 -1.461917	 -0.101532
C	 0.018572	 0.353338	 -0.847605
H	 -1.989803	 1.046548	 -0.949172
H	 -1.239283	 1.226201	 0.626808
O	 -0.135758	 -0.448800	 -1.983319
H	 0.451543	 1.314434	 -1.124135
H	 0.682696	 -0.128017	 -0.133132
C	 1.058054	 -0.786091	 -2.614682
H	 0.814225	 -1.400140	 -3.470947
H	 1.590896	 0.099082	 -2.957510
H	 1.713090	 -1.348235	 -1.952314

	symmetry c1
}
set optking {
	frozen_dihedral = ("
		8 5 3 6,
		5 8 11 13,
		11 8 5 3
	")
}

ee = energy('scf')
oeprop('DIPOLE', 'QUADRUPOLE', 'MULLIKEN_CHARGES')
f=open( 'psi4out.xyz', 'w' )
f.write( "14  " )
f.write( str(ee) + "\n" )
f.write( MOL.save_string_xyz() )
f.close()
--------------------------------------------------------------------------

    Molecular point group: c1

    Geometry (in Angstrom), charge = 0, multiplicity = 1:

       Center              X                  Y                   Z               Mass
    ------------   -----------------  -----------------  -----------------  -----------------
           H         -2.351095605944    -0.632387580292     1.028271073435     1.007825032070
           N         -1.416296605944    -0.485319580292     1.356138073435    14.003074004780
           C         -0.897421605944     0.784595419708     0.879494073435    12.000000000000
           H         -0.853187605944    -1.232049580292     0.997792073435     1.007825032070
           C          0.465836394056     0.583205419708     0.251719073435    12.000000000000
           H         -1.542538605944     1.276415419708     0.150152073435     1.007825032070
           H         -0.792018605944     1.456068419708     1.726132073435     1.007825032070
           O          0.311506394056    -0.218932580292    -0.883994926565    15.994914619560
           H          0.898807394056     1.544301419708    -0.024810926565     1.007825032070
           H          1.129960394056     0.101850419708     0.966192073435     1.007825032070
           C          1.505318394056    -0.556223580292    -1.515357926565    12.000000000000
           H          1.261489394056    -1.170272580292    -2.371622926565     1.007825032070
           H          2.038160394056     0.328949419708    -1.858185926565     1.007825032070
           H          2.160354394056    -1.118367580292    -0.852989926565     1.007825032070

  Charge       = 0
  Multiplicity = 1
  Basis Set: 6-31G*
  Basis Set:

    Orbital Energies (a.u.)
    -----------------------

    Doubly Occupied:

       1A    -20.562126     2A    -15.525310     3A    -11.271532
       4A    -11.270394     5A    -11.240098     6A     -1.386672
       7A     -1.173355     8A     -1.000716     9A     -0.910322
      10A     -0.821298    11A     -0.690895    12A     -0.668537
      13A     -0.652397    14A     -0.623542    15A     -0.584804
      16A     -0.550609    17A     -0.535877    18A     -0.503313
      19A     -0.471683    20A     -0.423313    21A     -0.376543

  @DF-RHF Final Energy:  -248.11983962566350

   => Energetics <=

    Nuclear Repulsion Energy =            195.2296698580334748
    One-Electron Energy =                -724.2122729336570046
    Two-Electron Energy =                 280.8627634499599139
    DFT Exchange-Correlation Energy =       0.0000000000000000
    Empirical Dispersion Energy =           0.0000000000000000
    PCM Polarization Energy =               0.0000000000000000
    EFP Energy =                            0.0000000000000000
    Total Energy =                       -248.1198396256635874

  Mulliken Charges: (a.u.)
   Center  Symbol    Alpha    Beta     Spin     Total
       1     H     0.33084  0.33084  0.00000  0.33832
       2     N     3.93031  3.93031  0.00000 -0.86062
       3     C     3.05357  3.05357  0.00000 -0.10714
       4     H     0.32456  0.32456  0.00000  0.35089
       5     C     3.01216  3.01216  0.00000 -0.02432
       6     H     0.42115  0.42115  0.00000  0.15770
       7     H     0.42033  0.42033  0.00000  0.15934
       8     O     4.30626  4.30626  0.00000 -0.61253
       9     H     0.42624  0.42624  0.00000  0.14753
      10     H     0.42559  0.42559  0.00000  0.14881
      11     C     3.08007  3.08007  0.00000 -0.16013
      12     H     0.41128  0.41128  0.00000  0.17745
      13     H     0.42867  0.42867  0.00000  0.14267
      14     H     0.42899  0.42899  0.00000  0.14203

   Total alpha = 21.00000, Total beta = 21.00000, Total charge = -0.00000
