  ==> Input File <==

--------------------------------------------------------------------------
set {
	reference rhf
	basis 6-31G*
}

set_num_threads( 1 )
memory 2 gb

molecule MOL {
0 1

H	 -0.337816	 2.368667	 0.969297
C	 0.527741	 1.718440	 1.144847
C	 0.692068	 0.589600	 0.160137
O	 1.256360	 1.928822	 2.059714
C	 -0.558097	 -0.297372	 0.091132
H	 1.567859	 0.017118	 0.442512
H	 0.877622	 1.028131	 -0.819705
C	 -1.850991	 0.512573	 -0.019058
H	 -0.476753	 -0.965681	 -0.762987
H	 -0.604799	 -0.930658	 0.975228
C	 -3.096943	 -0.368295	 -0.099594
H	 -1.800724	 1.150330	 -0.898172
H	 -1.931651	 1.177355	 0.838044
H	 -3.060452	 -1.020287	 -0.967456
H	 -3.996858	 0.233488	 -0.175704
H	 -3.191959	 -0.995686	 0.782074

	symmetry c1
}
set optking {
	frozen_dihedral = ("
		9 5 8 12,
		4 2 3 6
	")
}

ee = energy('scf')
oeprop('DIPOLE', 'QUADRUPOLE', 'MULLIKEN_CHARGES')
f=open( 'psi4out.xyz', 'w' )
f.write( "16  " )
f.write( str(ee) + "\n" )
f.write( MOL.save_string_xyz() )
f.close()
--------------------------------------------------------------------------

    Molecular point group: c1

    Geometry (in Angstrom), charge = 0, multiplicity = 1:

       Center              X                  Y                   Z               Mass
    ------------   -----------------  -----------------  -----------------  -----------------
           H          0.177980085167     1.685647924969     0.403956494433     1.007825032070
           C          1.043537085167     1.035420924969     0.579506494433    12.000000000000
           C          1.207864085167    -0.093419075031    -0.405203505567    12.000000000000
           O          1.772156085167     1.245802924969     1.494373494433    15.994914619560
           C         -0.042300914833    -0.980391075031    -0.474208505567    12.000000000000
           H          2.083655085167    -0.665901075031    -0.122828505567     1.007825032070
           H          1.393418085167     0.345111924969    -1.385045505567     1.007825032070
           C         -1.335194914833    -0.170446075031    -0.584398505567    12.000000000000
           H          0.039043085167    -1.648700075031    -1.328327505567     1.007825032070
           H         -0.089002914833    -1.613677075031     0.409887494433     1.007825032070
           C         -2.581146914833    -1.051314075031    -0.664934505567    12.000000000000
           H         -1.284927914833     0.467310924969    -1.463512505567     1.007825032070
           H         -1.415854914833     0.494335924969     0.272703494433     1.007825032070
           H         -2.544655914833    -1.703306075031    -1.532796505567     1.007825032070
           H         -3.481061914833    -0.449531075031    -0.741044505567     1.007825032070
           H         -2.676162914833    -1.678705075031     0.216733494433     1.007825032070

  Charge       = 0
  Multiplicity = 1
  Basis Set: 6-31G*
  Basis Set:

    Orbital Energies (a.u.)
    -----------------------

    Doubly Occupied:

       1A    -20.561411     2A    -11.324372     3A    -11.235994
       4A    -11.234742     5A    -11.231210     6A    -11.219828
       7A     -1.401299     8A     -1.099996     9A     -1.016473
      10A     -0.903888    11A     -0.837892    12A     -0.772989
      13A     -0.676937    14A     -0.654112    15A     -0.622260
      16A     -0.602318    17A     -0.579036    18A     -0.562066
      19A     -0.532373    20A     -0.512148    21A     -0.494726
      22A     -0.478393    23A     -0.472487    24A     -0.405405

  @DF-RHF Final Energy:  -270.01389206219005

   => Energetics <=

    Nuclear Repulsion Energy =            234.2599835685114442
    One-Electron Energy =                -829.6830984411240024
    Two-Electron Energy =                 325.4092228104231594
    DFT Exchange-Correlation Energy =       0.0000000000000000
    Empirical Dispersion Energy =           0.0000000000000000
    PCM Polarization Energy =               0.0000000000000000
    EFP Energy =                            0.0000000000000000
    Total Energy =                       -270.0138920621894272

  Mulliken Charges: (a.u.)
   Center  Symbol    Alpha    Beta     Spin     Total
       1     H     0.42771  0.42771  0.00000  0.14458
       2     C     2.83432  2.83432  0.00000  0.33136
       3     C     3.20748  3.20748  0.00000 -0.41496
       4     O     4.23960  4.23960  0.00000 -0.47920
       5     C     3.16086  3.16086  0.00000 -0.32172
       6     H     0.39770  0.39770  0.00000  0.20461
       7     H     0.40941  0.40941  0.00000  0.18118
       8     C     3.16349  3.16349  0.00000 -0.32699
       9     H     0.41392  0.41392  0.00000  0.17217
      10     H     0.41283  0.41283  0.00000  0.17435
      11     C     3.23873  3.23873  0.00000 -0.47746
      12     H     0.42031  0.42031  0.00000  0.15937
      13     H     0.41869  0.41869  0.00000  0.16263
      14     H     0.41991  0.41991  0.00000  0.16018
      15     H     0.41633  0.41633  0.00000  0.16734
      16     H     0.41871  0.41871  0.00000  0.16257

   Total alpha = 24.00000, Total beta = 24.00000, Total charge = -0.00000
