                              Psi4 1.0.54 Driver

  ==> Input File <==

--------------------------------------------------------------------------
set {
	reference rhf
	basis cc-pvtz
}

set_num_threads( 4 )
memory 2 gb

molecule MOL {
0 1

H	 0.582065	 -0.729865	 1.905378
O	 1.084970	 -0.518351	 1.139349
C	 0.611453	 0.666438	 0.577492
C	 -0.793473	 0.591216	 0.050087
H	 1.284923	 0.910944	 -0.235500
H	 0.675801	 1.486508	 1.290265
C	 -1.534243	 -0.493009	 -0.013340
H	 -1.192677	 1.529237	 -0.299200
H	 -1.101195	 -1.466332	 -0.144046
H	 -2.604242	 -0.437780	 0.050785

	symmetry c1
}
set optking {
	frozen_dihedral = ("
		3 4 7 9
	")
}

ee,wfn = optimize('scf', return_wfn=True)
oeprop( wfn, 'DIPOLE', 'QUADRUPOLE', 'MULLIKEN_CHARGES')
f=open( 'psi4out.xyz', 'w' )
f.write( "10  " )
f.write( str(ee) + "\n" )
f.write( MOL.save_string_xyz() )
f.close()
--------------------------------------------------------------------------

    Molecular point group: c1
  Charge       = 0
  Multiplicity = 1
  Basis Set: CC-PVTZ
  Basis Set:
  @DF-RHF Final Energy:  -191.97905478382694
    Total Energy =                       -191.9790547838270243
    Molecular point group: c1
  Basis Set: CC-PVTZ
  Basis Set:
  Basis Set: CC-PVTZ
  Basis Set:
  @DF-RHF Final Energy:  -191.98906316012645
    Total Energy =                       -191.9890631601264204
  Basis Set: CC-PVTZ
  Basis Set:
  Basis Set: CC-PVTZ
  Basis Set:
  @DF-RHF Final Energy:  -191.99162503363118
    Total Energy =                       -191.9916250336311805
  Basis Set: CC-PVTZ
  Basis Set:
  Basis Set: CC-PVTZ
  Basis Set:
  @DF-RHF Final Energy:  -191.99183056056506
    Total Energy =                       -191.9918305605649493
  Basis Set: CC-PVTZ
  Basis Set:
  Basis Set: CC-PVTZ
  Basis Set:
  @DF-RHF Final Energy:  -191.99187413173752
    Total Energy =                       -191.9918741317374611
  Basis Set: CC-PVTZ
  Basis Set:
  Charge       = 0
  Multiplicity = 1
  Basis Set: CC-PVTZ
  Basis Set:

    Orbital Energies (a.u.)
    -----------------------

    Doubly Occupied:

       1A    -20.553958     2A    -11.279439     3A    -11.234856
       4A    -11.218649     5A     -1.374953     6A     -1.063882
       7A     -0.934179     8A     -0.773274     9A     -0.691674
      10A     -0.664554    11A     -0.624010    12A     -0.572697
      13A     -0.539189    14A     -0.500670    15A     -0.451470
      16A     -0.368505

  @DF-RHF Final Energy:  -191.99187775673286

   => Energetics <=

    Nuclear Repulsion Energy =            119.4588698505642412
    One-Electron Energy =                -497.2095758583294014
    Two-Electron Energy =                 185.7588282510322983
    DFT Exchange-Correlation Energy =       0.0000000000000000
    Empirical Dispersion Energy =           0.0000000000000000
    PCM Polarization Energy =               0.0000000000000000
    EFP Energy =                            0.0000000000000000
    Total Energy =                       -191.9918777567328902
    Molecular point group: c1
  Basis Set: CC-PVTZ
  Basis Set:

  -Total Gradient:
     Atom            X                  Y                   Z
    ------   -----------------  -----------------  -----------------
       1        0.000017160862     0.000014314445    -0.000038682616
       2        0.000056917227    -0.000080851598     0.000072411062
       3       -0.004563466349     0.004462605405     0.010157528969
       4        0.007398544182    -0.007889198101    -0.023890230438
       5       -0.000029619218    -0.000022250331     0.000003889655
       6       -0.000009088862    -0.000002404167    -0.000031388913
       7       -0.002423018065     0.004854346003     0.029636474282
       8       -0.000035817605    -0.000022626792    -0.000000892486
       9       -0.000446847522    -0.001289415472    -0.015920464269
      10        0.000035235353    -0.000024519393     0.000011354755

  **** Optimization is complete! (in 6 steps) ****
    Final optimized geometry and variables:
    Molecular point group: c1

    Geometry (in Angstrom), charge = 0, multiplicity = 1:

    H            0.674162224166    -0.861046367413     1.288299934919
    O            1.224623087420    -0.546099985754     0.593605771546
    C            0.702131027723     0.640064785279     0.083534738841
    C           -0.686377768757     0.523302709523    -0.479100614173
    H            1.396666611897     0.978575963199    -0.676406265867
    H            0.673469413995     1.416058548100     0.845994097295
    C           -1.481198258242    -0.522645946425    -0.373164394013
    H           -1.116201693343     1.470808573726    -0.763732109072
    H           -1.101368176014    -1.525757041779    -0.302352731499
    H           -2.513582913373    -0.440598317400    -0.659617668254

  Mulliken Charges: (a.u.)
   Center  Symbol    Alpha    Beta     Spin     Total
       1     H     0.39002  0.39002  0.00000  0.21995
       2     O     4.20034  4.20034  0.00000 -0.40068
       3     C     2.95018  2.95018  0.00000  0.09965
       4     C     3.07474  3.07474  0.00000 -0.14949
       5     H     0.45378  0.45378  0.00000  0.09244
       6     H     0.46869  0.46869  0.00000  0.06262
       7     C     3.18449  3.18449  0.00000 -0.36898
       8     H     0.42520  0.42520  0.00000  0.14960
       9     H     0.42203  0.42203  0.00000  0.15595
      10     H     0.43053  0.43053  0.00000  0.13894

   Total alpha = 16.00000, Total beta = 16.00000, Total charge = -0.00000

*** Psi4 exiting successfully. Buy a developer a beer!
