  ==> Input File <==

--------------------------------------------------------------------------
set {
	reference rhf
	basis 6-31G*
}

set_num_threads( 4 )
memory 2 gb

molecule MOL {
0 1

O	 1.532674	 1.361975	 1.553539
C	 0.696113	 1.248277	 0.698003
C	 -0.341526	 2.337105	 0.498392
N	 0.623947	 0.147590	 -0.102813
H	 -1.347958	 1.956868	 0.634772
H	 -0.150023	 3.103826	 1.233586
H	 -0.277588	 2.772114	 -0.493203
C	 1.665360	 -0.855771	 0.000151
C	 -0.208758	 0.057055	 -1.282071
H	 2.465253	 -0.618490	 -0.692587
H	 1.257730	 -1.821716	 -0.242189
H	 2.081488	 -0.891645	 1.004627
H	 -0.522828	 -0.971283	 -1.415933
H	 -1.097929	 0.659854	 -1.187497
H	 0.323859	 0.364628	 -2.180142

	symmetry c1
}
set optking {
	frozen_dihedral = ("
		2 4 8 10
	")
}

ee = optimize('scf')
oeprop('DIPOLE', 'QUADRUPOLE', 'MULLIKEN_CHARGES')
f=open( 'psi4out.xyz', 'w' )
f.write( "15  " )
f.write( str(ee) + "\n" )
f.write( MOL.save_string_xyz() )
f.close()
--------------------------------------------------------------------------

    Molecular point group: c1
  Charge       = 0
  Multiplicity = 1
  Basis Set: 6-31G*
  Basis Set:
  @DF-RHF Final Energy:  -286.02933231141856
    Total Energy =                       -286.0293323114187842
    Molecular point group: c1
  Basis Set: 6-31G*
  Basis Set:
  Basis Set: 6-31G*
  Basis Set:
  @DF-RHF Final Energy:  -286.02971069062505
    Total Energy =                       -286.0297106906253362
  Basis Set: 6-31G*
  Basis Set:
  Basis Set: 6-31G*
  Basis Set:
  @DF-RHF Final Energy:  -286.02963269466682
    Total Energy =                       -286.0296326946670433
  Basis Set: 6-31G*
  Basis Set:
  Basis Set: 6-31G*
  Basis Set:
  @DF-RHF Final Energy:  -286.02978393408341
    Total Energy =                       -286.0297839340833548
  Basis Set: 6-31G*
  Basis Set:
  Basis Set: 6-31G*
  Basis Set:
  @DF-RHF Final Energy:  -286.02978706118154
    Total Energy =                       -286.0297870611817643
  Basis Set: 6-31G*
  Basis Set:
  Basis Set: 6-31G*
  Basis Set:
  @DF-RHF Final Energy:  -286.02978919391950
    Total Energy =                       -286.0297891939193846
  Basis Set: 6-31G*
  Basis Set:
  Charge       = 0
  Multiplicity = 1
  Basis Set: 6-31G*
  Basis Set:

    Orbital Energies (a.u.)
    -----------------------

    Doubly Occupied:

       1A    -20.514915     2A    -15.583679     3A    -11.341348
       4A    -11.266373     5A    -11.247847     6A    -11.228388
       7A     -1.384711     8A     -1.243385     9A     -1.014131
      10A     -0.972661    11A     -0.918704    12A     -0.737734
      13A     -0.680877    14A     -0.658971    15A     -0.651330
      16A     -0.589182    17A     -0.576303    18A     -0.568058
      19A     -0.561916    20A     -0.546472    21A     -0.529580
      22A     -0.502818    23A     -0.410701    24A     -0.367020

  @DF-RHF Final Energy:  -286.02978986066819

   => Energetics <=

    Nuclear Repulsion Energy =            252.4510430324389745
    One-Electron Energy =                -888.7674587937242450
    Two-Electron Energy =                 350.2866259006170822
    DFT Exchange-Correlation Energy =       0.0000000000000000
    Empirical Dispersion Energy =           0.0000000000000000
    PCM Polarization Energy =               0.0000000000000000
    EFP Energy =                            0.0000000000000000
    Total Energy =                       -286.0297898606681883
    Molecular point group: c1
  Basis Set: 6-31G*
  Basis Set:

  -Total Gradient:
     Atom            X                  Y                   Z
    ------   -----------------  -----------------  -----------------
       1        0.000007005019     0.000040524565    -0.000005207292
       2        0.000055730227     0.000073796804    -0.000094372796
       3       -0.000002300262    -0.000000326546     0.000035297026
       4       -0.000119050373    -0.000088412465     0.000203568377
       5        0.000008449184     0.000003934710    -0.000003077712
       6        0.000001733570     0.000008096690    -0.000000634999
       7        0.000010597144     0.000006179675     0.000004029881
       8       -0.000066189144    -0.000102288285    -0.000229417143
       9        0.000003591574    -0.000011445634     0.000022828540
      10        0.000105587311     0.000095566651     0.000127851015
      11        0.000006847793    -0.000005844646    -0.000007398341
      12       -0.000029871079     0.000007034920    -0.000025522574
      13       -0.000010757684    -0.000006228222    -0.000006490560
      14        0.000022217345    -0.000009117269    -0.000015612401
      15        0.000006409374    -0.000011470951    -0.000005841021

  **** Optimization is complete! (in 7 steps) ****
    Final optimized geometry and variables:
    Molecular point group: c1

    Geometry (in Angstrom), charge = 0, multiplicity = 1:

    O            0.887224421202     0.656564085319     1.314089409720
    C            0.033419460243     0.537075295844     0.476888480215
    C           -1.008542213407     1.623611845411     0.289290123324
    N           -0.053919145906    -0.572793491038    -0.310930414974
    H           -2.013911820862     1.239209201612     0.420820389406
    H           -0.819005504672     2.384374048453     1.031221704111
    H           -0.944709763025     2.068564630844    -0.698045567266
    C            1.001474385969    -1.562835382223    -0.212356389280
    C           -0.872904710270    -0.650933470908    -1.501184222554
    H            1.807827287244    -1.359492440183    -0.913635678140
    H            0.592988077235    -2.542209844304    -0.432352633799
    H            1.405107477854    -1.560665278666     0.785610438689
    H           -1.188378330138    -1.676811072101    -1.647897671502
    H           -1.761445120155    -0.046596788360    -1.410093798060
    H           -0.330433746425    -0.335892702664    -2.390926497947

  Mulliken Charges: (a.u.)
   Center  Symbol    Alpha    Beta     Spin     Total
       1     O     4.30384  4.30384  0.00000 -0.60769
       2     C     2.62435  2.62435  0.00000  0.75130
       3     C     3.29851  3.29851  0.00000 -0.59702
       4     N     3.82299  3.82299  0.00000 -0.64598
       5     H     0.40656  0.40656  0.00000  0.18688
       6     H     0.39053  0.39053  0.00000  0.21894
       7     H     0.40764  0.40764  0.00000  0.18472
       8     C     3.14327  3.14327  0.00000 -0.28654
       9     C     3.14225  3.14225  0.00000 -0.28451
      10     H     0.41913  0.41913  0.00000  0.16175
      11     H     0.41903  0.41903  0.00000  0.16195
      12     H     0.38736  0.38736  0.00000  0.22528
      13     H     0.41038  0.41038  0.00000  0.17925
      14     H     0.40722  0.40722  0.00000  0.18556
      15     H     0.41695  0.41695  0.00000  0.16610

   Total alpha = 24.00000, Total beta = 24.00000, Total charge =  0.00000
