  ==> Input File <==

--------------------------------------------------------------------------
set {
	reference rhf
	basis 6-31G*
}

set_num_threads( 4 )
memory 2 gb

molecule MOL {
0 1

O	 1.214711	 1.306902	 -0.000018
C	 1.122059	 0.121804	 -0.000188
C	 -0.170150	 -0.657997	 -0.000612
O	 2.172624	 -0.688929	 0.000216
C	 -1.412532	 0.227344	 -0.000452
H	 -0.153702	 -1.313099	 -0.867402
H	 -0.153924	 -1.313811	 0.865644
C	 -2.701403	 -0.579464	 -0.165494
H	 -1.331445	 0.958816	 -0.798499
H	 -1.448843	 0.793708	 0.924976
C	 -3.951232	 0.299700	 -0.165132
H	 -2.659437	 -1.145623	 -1.093815
H	 -2.776343	 -1.312546	 0.635160
H	 -3.922380	 1.021445	 -0.976246
H	 -4.850543	 -0.296484	 -0.283799
H	 -4.040447	 0.852842	 0.765306
C	 3.452279	 -0.082609	 0.000533
H	 3.583069	 0.529321	 -0.880332
H	 4.163299	 -0.894027	 0.001117
H	 3.582335	 0.529955	 0.881077

	symmetry c1
}
set optking {
	frozen_dihedral = ("
		9 5 3 6
	")
}

ee = optimize('scf')
oeprop('DIPOLE', 'QUADRUPOLE', 'MULLIKEN_CHARGES')
f=open( 'psi4out.xyz', 'w' )
f.write( "20  " )
f.write( str(ee) + "\n" )
f.write( MOL.save_string_xyz() )
f.close()
--------------------------------------------------------------------------

    Molecular point group: c1
  Charge       = 0
  Multiplicity = 1
  Basis Set: 6-31G*
  Basis Set:
  @DF-RHF Final Energy:  -383.94144223532822
    Total Energy =                       -383.9414422353286227
    Molecular point group: c1
  Basis Set: 6-31G*
  Basis Set:
  Basis Set: 6-31G*
  Basis Set:
  @DF-RHF Final Energy:  -383.94145416042659
    Total Energy =                       -383.9414541604268152
  Basis Set: 6-31G*
  Basis Set:
  Basis Set: 6-31G*
  Basis Set:
  @DF-RHF Final Energy:  -383.94145256490623
    Total Energy =                       -383.9414525649062853
  Basis Set: 6-31G*
  Basis Set:
  Basis Set: 6-31G*
  Basis Set:
  @DF-RHF Final Energy:  -383.94145544887107
    Total Energy =                       -383.9414554488705562
  Basis Set: 6-31G*
  Basis Set:
  Basis Set: 6-31G*
  Basis Set:
  @DF-RHF Final Energy:  -383.94146360973002
    Total Energy =                       -383.9414636097299081
  Basis Set: 6-31G*
  Basis Set:
  Charge       = 0
  Multiplicity = 1
  Basis Set: 6-31G*
  Basis Set:

    Orbital Energies (a.u.)
    -----------------------

    Doubly Occupied:

       1A    -20.603826     2A    -20.545659     3A    -11.372571
       4A    -11.280982     5A    -11.235673     6A    -11.220415
       7A    -11.219283     8A    -11.210698     9A     -1.469548
      10A     -1.363006    11A     -1.088710    12A     -1.024491
      13A     -0.969179    14A     -0.885928    15A     -0.804208
      16A     -0.767721    17A     -0.697254    18A     -0.683641
      19A     -0.672106    20A     -0.645696    21A     -0.597736
      22A     -0.591936    23A     -0.578975    24A     -0.539716
      25A     -0.537089    26A     -0.522872    27A     -0.500393
      28A     -0.478336    29A     -0.473672    30A     -0.470262
      31A     -0.455865    32A     -0.437333

  @DF-RHF Final Energy:  -383.94146459500348

   => Energetics <=

    Nuclear Repulsion Energy =            381.0541448342730746
    One-Electron Energy =               -1278.1016570661092828
    Two-Electron Energy =                 513.1060476368326135
    DFT Exchange-Correlation Energy =       0.0000000000000000
    Empirical Dispersion Energy =           0.0000000000000000
    PCM Polarization Energy =               0.0000000000000000
    EFP Energy =                            0.0000000000000000
    Total Energy =                       -383.9414645950035947
    Molecular point group: c1
  Basis Set: 6-31G*
  Basis Set:

  -Total Gradient:
     Atom            X                  Y                   Z
    ------   -----------------  -----------------  -----------------
       1       -0.000012964545     0.000002673037     0.000005110672
       2        0.000002014957     0.000006661879    -0.000029819352
       3        0.000812433958     0.001145499551    -0.000587284713
       4       -0.000001384867    -0.000011933259     0.000004524339
       5       -0.000754704117    -0.001075284802    -0.000662537562
       6       -0.000545944142    -0.000787849833     0.000581573911
       7       -0.000004888159     0.000011843081     0.000006391820
       8        0.000005061201    -0.000006007947     0.000019149498
       9        0.000518685307     0.000706033039     0.000685629600
      10       -0.000019712433     0.000001391935     0.000000602833
      11        0.000005098262     0.000007395401    -0.000026630817
      12       -0.000013321639     0.000012385372     0.000003663032
      13        0.000013466550    -0.000013464567     0.000001793965
      14       -0.000008553529     0.000009267217    -0.000000388973
      15        0.000001986913    -0.000000937158    -0.000001685016
      16        0.000007761968    -0.000008740893    -0.000001234386
      17       -0.000002830443     0.000002984841     0.000001011571
      18       -0.000000527494    -0.000000323720     0.000000185338
      19       -0.000002347534    -0.000001506821     0.000000107541
      20        0.000000669784    -0.000000086353    -0.000000163300

  **** Optimization is complete! (in 6 steps) ****
    Final optimized geometry and variables:
    Molecular point group: c1

    Geometry (in Angstrom), charge = 0, multiplicity = 1:

    O            1.215614053424     1.305734446669     0.034468293474
    C            1.121785766737     0.120731158017     0.035772480040
    C           -0.170824924393    -0.657604959298     0.025746692864
    O            2.171402461271    -0.691094434064     0.047777130752
    C           -1.414670894837     0.226146959603     0.022413279147
    H           -0.152565065926    -1.317407469322    -0.837544742916
    H           -0.160089178868    -1.313974079873     0.891795315139
    C           -2.704530836644    -0.582002170070    -0.123253422830
    H           -1.336401296431     0.954296862394    -0.778455019555
    H           -1.444608830864     0.801355310628     0.943298770312
    C           -3.955232380094     0.295702790918    -0.105846356814
    H           -2.674641143567    -1.148109092110    -1.051999034915
    H           -2.767400336887    -1.315153348370     0.678449232692
    H           -3.937160585564     1.018762890052    -0.916091248618
    H           -4.855250165891    -0.301367513334    -0.214273499962
    H           -4.033537028670     0.847202382673     0.826549451504
    C            3.451636883855    -0.086114605345     0.058573277013
    H            3.591049182920     0.524145659371    -0.822136327086
    H            4.161716401571    -0.898313779481     0.066965188773
    H            3.574404857872     0.527819928156     0.939207873426

  Mulliken Charges: (a.u.)
   Center  Symbol    Alpha    Beta     Spin     Total
       1     O     4.28594  4.28594  0.00000 -0.57189
       2     C     2.60516  2.60516  0.00000  0.78969
       3     C     3.20848  3.20848  0.00000 -0.41697
       4     O     4.30715  4.30715  0.00000 -0.61430
       5     C     3.15143  3.15143  0.00000 -0.30285
       6     H     0.40073  0.40073  0.00000  0.19854
       7     H     0.40053  0.40053  0.00000  0.19893
       8     C     3.15427  3.15427  0.00000 -0.30853
       9     H     0.40994  0.40994  0.00000  0.18012
      10     H     0.41374  0.41374  0.00000  0.17253
      11     C     3.23936  3.23936  0.00000 -0.47872
      12     H     0.42273  0.42273  0.00000  0.15453
      13     H     0.42304  0.42304  0.00000  0.15393
      14     H     0.41975  0.41975  0.00000  0.16050
      15     H     0.41873  0.41873  0.00000  0.16254
      16     H     0.42010  0.42010  0.00000  0.15979
      17     C     3.09245  3.09245  0.00000 -0.18490
      18     H     0.40905  0.40905  0.00000  0.18190
      19     H     0.40840  0.40840  0.00000  0.18321
      20     H     0.40903  0.40903  0.00000  0.18194

   Total alpha = 32.00000, Total beta = 32.00000, Total charge =  0.00000
