  ==> Input File <==

--------------------------------------------------------------------------
set {
	reference rhf
	basis 6-31G*
}

set_num_threads( 4 )
memory 2 gb

molecule MOL {
0 1

H	 2.591676	 2.013956	 0.335017
O	 3.341076	 1.666752	 -0.126416
C	 3.569581	 0.339145	 0.272707
C	 2.539767	 -0.640285	 -0.279495
H	 4.553106	 0.084646	 -0.100901
H	 3.608576	 0.269204	 1.359154
C	 1.310054	 0.031258	 -0.895694
H	 3.024411	 -1.267262	 -1.023395
H	 2.225819	 -1.295256	 0.531565
C	 0.271133	 -0.978452	 -1.391626
H	 1.624580	 0.663432	 -1.721403
H	 0.847293	 0.686482	 -0.157538
C	 -1.018808	 -0.358045	 -1.940706
H	 0.721197	 -1.608782	 -2.156461
H	 0.011353	 -1.640423	 -0.568212
C	 -0.847015	 0.451527	 -3.228945
H	 -1.730896	 -1.159275	 -2.127193
H	 -1.468277	 0.272885	 -1.175367
C	 -2.174516	 0.960870	 -3.794406
H	 -0.352013	 -0.165585	 -3.977448
H	 -0.191594	 1.301006	 -3.052561
C	 -2.005275	 1.774732	 -5.076846
H	 -2.831282	 0.115479	 -3.987951
H	 -2.675111	 1.569743	 -3.044363
H	 -1.536440	 1.182757	 -5.857860
H	 -2.963252	 2.119609	 -5.453641
H	 -1.382710	 2.648889	 -4.907655

	symmetry c1
}
set optking {
	frozen_dihedral = ("
		8 4 3 2
	")
}

ee = optimize('scf')
oeprop('DIPOLE', 'QUADRUPOLE', 'MULLIKEN_CHARGES')
f=open( 'psi4out.xyz', 'w' )
f.write( "27  " )
f.write( str(ee) + "\n" )
f.write( MOL.save_string_xyz() )
f.close()
--------------------------------------------------------------------------

    Molecular point group: c1
  Charge       = 0
  Multiplicity = 1
  Basis Set: 6-31G*
  Basis Set:
  @DF-RHF Final Energy:  -388.27339188337288
    Total Energy =                       -388.2733918833735061
    Molecular point group: c1
  Basis Set: 6-31G*
  Basis Set:
  Basis Set: 6-31G*
  Basis Set:
  @DF-RHF Final Energy:  -388.27394667663970
    Total Energy =                       -388.2739466766389569
  Basis Set: 6-31G*
  Basis Set:
  Basis Set: 6-31G*
  Basis Set:
  @DF-RHF Final Energy:  -388.27456800615670
    Total Energy =                       -388.2745680061563007
  Basis Set: 6-31G*
  Basis Set:
  Basis Set: 6-31G*
  Basis Set:
  @DF-RHF Final Energy:  -388.27457467960573
    Total Energy =                       -388.2745746796053936
  Basis Set: 6-31G*
  Basis Set:
  Basis Set: 6-31G*
  Basis Set:
  @DF-RHF Final Energy:  -388.27458312389143
    Total Energy =                       -388.2745831238913752
  Basis Set: 6-31G*
  Basis Set:
  Basis Set: 6-31G*
  Basis Set:
  @DF-RHF Final Energy:  -388.27458120420181
    Total Energy =                       -388.2745812042008993
  Basis Set: 6-31G*
  Basis Set:
  Basis Set: 6-31G*
  Basis Set:
  @DF-RHF Final Energy:  -388.27458612426750
    Total Energy =                       -388.2745861242680121
  Basis Set: 6-31G*
  Basis Set:
  Charge       = 0
  Multiplicity = 1
  Basis Set: 6-31G*
  Basis Set:

    Orbital Energies (a.u.)
    -----------------------

    Doubly Occupied:

       1A    -20.552446     2A    -11.267918     3A    -11.216697
       4A    -11.216044     5A    -11.215103     6A    -11.214123
       7A    -11.213775     8A    -11.211709     9A    -11.207404
      10A     -1.359116    11A     -1.092540    12A     -1.057928
      13A     -1.007722    14A     -0.946630    15A     -0.888010
      16A     -0.819219    17A     -0.799103    18A     -0.775415
      19A     -0.691075    20A     -0.646674    21A     -0.636193
      22A     -0.614838    23A     -0.601520    24A     -0.585432
      25A     -0.573934    26A     -0.555630    27A     -0.541565
      28A     -0.525800    29A     -0.501453    30A     -0.496280
      31A     -0.480527    32A     -0.471257    33A     -0.465042
      34A     -0.458961    35A     -0.444253    36A     -0.442821
      37A     -0.422112

  @DF-RHF Final Energy:  -388.27458640978301

   => Energetics <=

    Nuclear Repulsion Energy =            460.7853485695584936
    One-Electron Energy =               -1439.6873357275599119
    Two-Electron Energy =                 590.6274007482182924
    DFT Exchange-Correlation Energy =       0.0000000000000000
    Empirical Dispersion Energy =           0.0000000000000000
    PCM Polarization Energy =               0.0000000000000000
    EFP Energy =                            0.0000000000000000
    Total Energy =                       -388.2745864097831827
    Molecular point group: c1
  Basis Set: 6-31G*
  Basis Set:

  -Total Gradient:
     Atom            X                  Y                   Z
    ------   -----------------  -----------------  -----------------
       1        0.000000550674    -0.000000908429     0.000004874022
       2       -0.001572648521     0.000522665561     0.002202832943
       3        0.002382271985    -0.001190058278    -0.002444177208
       4       -0.001528181847     0.002916799166    -0.002247178158
       5        0.000002844964    -0.000009159426     0.000013930762
       6       -0.000000273621     0.000001133503    -0.000005932034
       7       -0.000023996691     0.000025215336    -0.000025930796
       8        0.000720722891    -0.002237415100     0.002491771917
       9        0.000005770752    -0.000000332429    -0.000019264284
      10        0.000006115930    -0.000021120695     0.000014463426
      11       -0.000004129670    -0.000003442512     0.000011802328
      12        0.000011636133     0.000005615170     0.000000435087
      13        0.000010459980     0.000000348793    -0.000007715769
      14        0.000003465240    -0.000007931852     0.000000945067
      15       -0.000017210224    -0.000010380793    -0.000004021793
      16       -0.000000171700     0.000011689532     0.000007523567
      17       -0.000002668580    -0.000000221090     0.000003171176
      18        0.000007680110     0.000003110436    -0.000001857574
      19       -0.000000211519    -0.000002452342    -0.000000416739
      20        0.000005503787     0.000002754453     0.000002977587
      21       -0.000005104189     0.000000209416     0.000004866329
      22       -0.000000768787    -0.000007378984    -0.000004161140
      23       -0.000004322478    -0.000000217773     0.000003533155
      24        0.000002955126     0.000003218715    -0.000001419415
      25        0.000001441747     0.000001260074    -0.000001553467
      26       -0.000000592777    -0.000001708681    -0.000001266543
      27       -0.000001138719    -0.000001291768     0.000001767552

  **** Optimization is complete! (in 8 steps) ****
    Final optimized geometry and variables:
    Molecular point group: c1

    Geometry (in Angstrom), charge = 0, multiplicity = 1:

    H            2.080615784618     1.654946656124     2.090951834470
    O            2.848164641285     1.281018148189     1.683527674358
    C            2.991957927636    -0.056612876345     2.089376259821
    C            1.915946772571    -1.024358962304     1.538488946268
    H            3.972932801302    -0.357563201763     1.749277446111
    H            3.005843388281    -0.104495751620     3.175941582056
    C            0.685321142824    -0.354527716999     0.923307278147
    H            2.367864038659    -1.691358744034     0.808956860755
    H            1.591593955479    -1.672923519250     2.349686660016
    C           -0.330511554809    -1.377642399795     0.407688056468
    H            1.001064131407     0.302522563597     0.122022674162
    H            0.197183913149     0.275654595943     1.667324487453
    C           -1.625774336715    -0.771282722782    -0.144840349904
    H            0.136180220967    -1.989195198612    -0.362711416838
    H           -0.586802610973    -2.056648485225     1.218423400650
    C           -1.455245366828     0.055327554612    -1.422303575460
    H           -2.324352324469    -1.580939754073    -0.345878637139
    H           -2.090979656299    -0.155737583258     0.623754376357
    C           -2.785036378469     0.555234501886    -1.990789392727
    H           -0.948423422138    -0.547750419674    -2.174391771611
    H           -0.810556610556     0.909636781445    -1.231928154962
    C           -2.617260574369     1.381821430755    -3.265265963083
    H           -3.432037800324    -0.295233139451    -2.195159538044
    H           -3.296134698619     1.152598239877    -1.238509997465
    H           -2.138423392319     0.801219894211    -4.048758272469
    H           -3.576680505084     1.720357477416    -3.644281339940
    H           -2.004166276445     2.260383682900    -3.085164100404

  Mulliken Charges: (a.u.)
   Center  Symbol    Alpha    Beta     Spin     Total
       1     H     0.28059  0.28059  0.00000  0.43882
       2     O     4.36926  4.36926  0.00000 -0.73852
       3     C     2.99499  2.99499  0.00000  0.01001
       4     C     3.17741  3.17741  0.00000 -0.35481
       5     H     0.41371  0.41371  0.00000  0.17258
       6     H     0.42962  0.42962  0.00000  0.14076
       7     C     3.15727  3.15727  0.00000 -0.31453
       8     H     0.41740  0.41740  0.00000  0.16520
       9     H     0.42193  0.42193  0.00000  0.15614
      10     C     3.15359  3.15359  0.00000 -0.30717
      11     H     0.40663  0.40663  0.00000  0.18675
      12     H     0.43360  0.43360  0.00000  0.13279
      13     C     3.15321  3.15321  0.00000 -0.30643
      14     H     0.42266  0.42266  0.00000  0.15468
      15     H     0.42272  0.42272  0.00000  0.15457
      16     C     3.15290  3.15290  0.00000 -0.30580
      17     H     0.42182  0.42182  0.00000  0.15635
      18     H     0.42501  0.42501  0.00000  0.14998
      19     C     3.15115  3.15115  0.00000 -0.30229
      20     H     0.42417  0.42417  0.00000  0.15167
      21     H     0.42124  0.42124  0.00000  0.15752
      22     C     3.23916  3.23916  0.00000 -0.47832
      23     H     0.42341  0.42341  0.00000  0.15319
      24     H     0.42363  0.42363  0.00000  0.15274
      25     H     0.42170  0.42170  0.00000  0.15660
      26     H     0.41970  0.41970  0.00000  0.16061
      27     H     0.42154  0.42154  0.00000  0.15693

   Total alpha = 37.00000, Total beta = 37.00000, Total charge =  0.00000
