  ==> Input File <==

--------------------------------------------------------------------------
set {
	reference rhf
	basis cc-pvtz
}

set_num_threads( 4 )
memory 2 gb

molecule MOL {
0 1

H	 -2.492352	 -0.750592	 -0.725037
O	 -2.346257	 -0.289210	 0.080372
C	 -1.183935	 0.486039	 -0.009831
C	 0.062853	 -0.375310	 0.027457
H	 -1.178881	 1.094526	 -0.908634
H	 -1.184406	 1.155156	 0.838676
O	 1.172093	 0.457955	 -0.054438
H	 0.052476	 -1.081302	 -0.804627
H	 0.076323	 -0.955658	 0.947560
C	 2.395478	 -0.199028	 -0.000366
H	 2.505946	 -0.901710	 -0.823354
H	 3.174616	 0.545641	 -0.071768
H	 2.513730	 -0.742241	 0.934223

	symmetry c1
}
set optking {
	frozen_dihedral = ("
		1 2 3 5
	")
}

ee = optimize('scf')
oeprop('DIPOLE', 'QUADRUPOLE', 'MULLIKEN_CHARGES')
f=open( 'psi4out.xyz', 'w' )
f.write( "13  " )
f.write( str(ee) + "\n" )
f.write( MOL.save_string_xyz() )
f.close()
--------------------------------------------------------------------------

    Molecular point group: c1
  Charge       = 0
  Multiplicity = 1
  Basis Set: CC-PVTZ
  Basis Set:

    Orbital Energies (a.u.)
    -----------------------

    Doubly Occupied:

       1A    -20.556176     2A    -20.552929     3A    -11.269444
       4A    -11.267892     5A    -11.267545     6A     -1.392148
       7A     -1.369306     8A     -1.019815     9A     -0.914083
      10A     -0.843032    11A     -0.711959    12A     -0.676599
      13A     -0.663387    14A     -0.639275    15A     -0.597825
      16A     -0.571432    17A     -0.546937    18A     -0.491556
      19A     -0.483354    20A     -0.441812    21A     -0.424908

  @DF-RHF Final Energy:  -268.06231112810269

   => Energetics <=

    Nuclear Repulsion Energy =            190.5019394553355880
    One-Electron Energy =                -743.7256773310430162
    Two-Electron Energy =                 285.1614267476049349
    DFT Exchange-Correlation Energy =       0.0000000000000000
    Empirical Dispersion Energy =           0.0000000000000000
    PCM Polarization Energy =               0.0000000000000000
    EFP Energy =                            0.0000000000000000
    Total Energy =                       -268.0623111281025217
    Molecular point group: c1
  Basis Set: CC-PVTZ
  Basis Set:

  -Total Gradient:
     Atom            X                  Y                   Z
    ------   -----------------  -----------------  -----------------
       1        0.000021340278    -0.000032033500     0.000077359592
       2       -0.000039713153    -0.000035885056    -0.000116438362
       3        0.000019351323     0.000063834121     0.000046088098
       4       -0.000042222280    -0.000086822568    -0.000056870253
       5       -0.000004249551     0.000007957456     0.000026409834
       6        0.000031376041     0.000026641311     0.000001331754
       7        0.000043822425     0.000044527653     0.000003844580
       8       -0.000011403206    -0.000000387386     0.000021574190
       9       -0.000021102118     0.000005736962    -0.000006278570
      10       -0.000007742640    -0.000001687159     0.000002727426
      11       -0.000003118688     0.000004265468    -0.000001467825
      12        0.000011285710     0.000003926429    -0.000001413581
      13        0.000002375853    -0.000000073733     0.000003133117

  **** Optimization is complete! (in 1 steps) ****
    Final optimized geometry and variables:
    Molecular point group: c1

    Geometry (in Angstrom), charge = 0, multiplicity = 1:

    H           -2.492439886656    -0.750466963975    -0.725091892083
    O           -2.346344886656    -0.289084963975     0.080317107917
    C           -1.184022886656     0.486164036025    -0.009885892083
    C            0.062765113344    -0.375184963975     0.027402107917
    H           -1.178968886656     1.094651036025    -0.908688892083
    H           -1.184493886656     1.155281036025     0.838621107917
    O            1.172005113344     0.458080036025    -0.054492892083
    H            0.052388113344    -1.081176963975    -0.804681892083
    H            0.076235113344    -0.955532963975     0.947505107917
    C            2.395390113344    -0.198902963975    -0.000420892083
    H            2.505858113344    -0.901584963975    -0.823408892083
    H            3.174528113344     0.545766036025    -0.071822892083
    H            2.513642113344    -0.742115963975     0.934168107917

  Mulliken Charges: (a.u.)
   Center  Symbol    Alpha    Beta     Spin     Total
       1     H     0.39412  0.39412  0.00000  0.21176
       2     O     4.20207  4.20207  0.00000 -0.40415
       3     C     2.97316  2.97316  0.00000  0.05368
       4     C     2.96531  2.96531  0.00000  0.06938
       5     H     0.46685  0.46685  0.00000  0.06630
       6     H     0.45267  0.45267  0.00000  0.09466
       7     O     4.17539  4.17539  0.00000 -0.35078
       8     H     0.48213  0.48213  0.00000  0.03574
       9     H     0.46953  0.46953  0.00000  0.06094
      10     C     3.03179  3.03179  0.00000 -0.06358
      11     H     0.47124  0.47124  0.00000  0.05751
      12     H     0.44590  0.44590  0.00000  0.10819
      13     H     0.46982  0.46982  0.00000  0.06035

   Total alpha = 21.00000, Total beta = 21.00000, Total charge = -0.00000
