  ==> Input File <==

--------------------------------------------------------------------------
set {
	reference rhf
	basis cc-pvtz
}

set_num_threads( 4 )
memory 2 gb

molecule MOL {
0 1

O	 -2.440701	 -0.934798	 -0.415053
C	 -1.922978	 0.063265	 -0.045005
C	 -2.632749	 1.372204	 0.158357
O	 -0.637375	 0.157174	 0.243149
H	 -2.187724	 2.129143	 -0.474664
H	 -3.677681	 1.257276	 -0.079438
H	 -2.516788	 1.693160	 1.185542
C	 0.162530	 -1.009518	 0.097799
C	 1.587210	 -0.664190	 0.477086
H	 0.096803	 -1.356267	 -0.924704
H	 -0.233803	 -1.785900	 0.736810
C	 2.256770	 0.342732	 -0.454344
H	 2.154716	 -1.590834	 0.479041
H	 1.598751	 -0.289614	 1.496104
C	 2.156768	 -0.057366	 -1.922519
H	 1.797989	 1.317853	 -0.313783
H	 3.299388	 0.450009	 -0.178154
H	 2.635800	 0.675635	 -2.560973
H	 1.121947	 -0.143903	 -2.237239
H	 2.636328	 -1.014103	 -2.100544

	symmetry c1
}
set optking {
	frozen_dihedral = ("
		16 12 9 8
	")
}

ee = optimize('scf')
oeprop('DIPOLE', 'QUADRUPOLE', 'MULLIKEN_CHARGES')
f=open( 'psi4out.xyz', 'w' )
f.write( "20  " )
f.write( str(ee) + "\n" )
f.write( MOL.save_string_xyz() )
f.close()
--------------------------------------------------------------------------

    Molecular point group: c1
  Charge       = 0
  Multiplicity = 1
  Basis Set: CC-PVTZ
  Basis Set:
  @DF-RHF Final Energy:  -384.08436729171456
    Total Energy =                       -384.0843672917148979
    Molecular point group: c1
  Basis Set: CC-PVTZ
  Basis Set:
  Basis Set: CC-PVTZ
  Basis Set:
  @DF-RHF Final Energy:  -384.08532998420065
    Total Energy =                       -384.0853299842007118
  Basis Set: CC-PVTZ
  Basis Set:
  Basis Set: CC-PVTZ
  Basis Set:
  @DF-RHF Final Energy:  -384.08566816099250
    Total Energy =                       -384.0856681609928955
  Basis Set: CC-PVTZ
  Basis Set:
  Basis Set: CC-PVTZ
  Basis Set:
  @DF-RHF Final Energy:  -384.08511475975445
    Total Energy =                       -384.0851147597538784
  Basis Set: CC-PVTZ
  Basis Set:
  Basis Set: CC-PVTZ
  Basis Set:
  @DF-RHF Final Energy:  -384.08573981004423
    Total Energy =                       -384.0857398100442879
  Basis Set: CC-PVTZ
  Basis Set:
  Basis Set: CC-PVTZ
  Basis Set:
  @DF-RHF Final Energy:  -384.08575312353241
    Total Energy =                       -384.0857531235325268
  Basis Set: CC-PVTZ
  Basis Set:
  Charge       = 0
  Multiplicity = 1
  Basis Set: CC-PVTZ
  Basis Set:

    Orbital Energies (a.u.)
    -----------------------

    Doubly Occupied:

       1A    -20.594276     2A    -20.532725     3A    -11.366684
       4A    -11.279245     5A    -11.231722     6A    -11.223894
       7A    -11.219171     8A    -11.211442     9A     -1.470914
      10A     -1.365114    11A     -1.086549    12A     -1.027659
      13A     -0.979872    14A     -0.892552    15A     -0.808039
      16A     -0.769389    17A     -0.693264    18A     -0.691064
      19A     -0.667434    20A     -0.623891    21A     -0.619837
      22A     -0.578966    23A     -0.574462    24A     -0.564270
      25A     -0.537182    26A     -0.529575    27A     -0.524086
      28A     -0.478676    29A     -0.477038    30A     -0.469580
      31A     -0.452837    32A     -0.441961

  @DF-RHF Final Energy:  -384.08575385642558

   => Energetics <=

    Nuclear Repulsion Energy =            392.6774291306196005
    One-Electron Energy =               -1301.5596222940591815
    Two-Electron Energy =                 524.7964393070135429
    DFT Exchange-Correlation Energy =       0.0000000000000000
    Empirical Dispersion Energy =           0.0000000000000000
    PCM Polarization Energy =               0.0000000000000000
    EFP Energy =                            0.0000000000000000
    Total Energy =                       -384.0857538564259812
    Molecular point group: c1
  Basis Set: CC-PVTZ
  Basis Set:

  -Total Gradient:
     Atom            X                  Y                   Z
    ------   -----------------  -----------------  -----------------
       1        0.000009076093     0.000000059558     0.000000474391
       2       -0.000004867648     0.000000561216    -0.000007745151
       3       -0.000003052023     0.000002847459     0.000005107659
       4        0.000003802659    -0.000020377202    -0.000004539997
       5       -0.000000530930     0.000000153111    -0.000000534756
       6       -0.000000278922     0.000001096283     0.000000247808
       7       -0.000000050443     0.000001461678    -0.000001020450
       8        0.000441116657    -0.001048367315    -0.000821342548
       9       -0.000338747607     0.001601560250     0.001508275595
      10        0.000007473095     0.000007214902    -0.000014524624
      11        0.000003994255    -0.000006151152    -0.000003648203
      12       -0.001434324983    -0.000920787555    -0.002018915587
      13       -0.000001845209    -0.000018156006     0.000008599612
      14       -0.000001673778     0.000006161718    -0.000009439459
      15        0.000001621820     0.000004219123     0.000018116072
      16        0.001317577596     0.000379432429     0.001329632592
      17        0.000009932508     0.000006218993    -0.000016570514
      18        0.000003690104    -0.000000673188     0.000006728419
      19       -0.000005574022     0.000002699366     0.000007028315
      20       -0.000007339225     0.000000826335     0.000014070828

  **** Optimization is complete! (in 7 steps) ****
    Final optimized geometry and variables:
    Molecular point group: c1

    Geometry (in Angstrom), charge = 0, multiplicity = 1:

    O           -2.268107826319    -0.869768192315    -0.071895256689
    C           -1.730453801872     0.144086494435     0.218062665156
    C           -2.421907228076     1.470703640017     0.358396230673
    O           -0.435494680548     0.241823373097     0.459239723281
    H           -1.989558686468     2.180795991471    -0.334775405935
    H           -3.474669529207     1.352393038797     0.160007717001
    H           -2.271385121434     1.854834394497     1.359012179690
    C            0.348516247452    -0.941416469983     0.366796564278
    C            1.786718090645    -0.590419145698     0.689004630592
    H            0.243652024014    -1.356432609657    -0.624517782950
    H           -0.032691166071    -1.670107710505     1.068133300330
    C            2.445113640961     0.437966880976    -0.233916178866
    H            2.349768107282    -1.519511990512     0.652794167174
    H            1.839626667978    -0.234989266552     1.712451512506
    C            2.393804391684     0.098423104970    -1.720370134249
    H            2.002219413264     1.412287837228    -0.061163762998
    H            3.483987504627     0.528718134034     0.068273063209
    H            2.969558137468     0.815370542580    -2.293699521574
    H            1.381347921075     0.114303295016    -2.105321734047
    H            2.807692391499    -0.886150600928    -1.914320444217

  Mulliken Charges: (a.u.)
   Center  Symbol    Alpha    Beta     Spin     Total
       1     O     4.19716  4.19716  0.00000 -0.39433
       2     C     2.80965  2.80965  0.00000  0.38069
       3     C     3.13842  3.13842  0.00000 -0.27685
       4     O     4.15493  4.15493  0.00000 -0.30986
       5     H     0.44615  0.44615  0.00000  0.10769
       6     H     0.43781  0.43781  0.00000  0.12438
       7     H     0.44561  0.44561  0.00000  0.10878
       8     C     2.99755  2.99755  0.00000  0.00491
       9     C     3.09371  3.09371  0.00000 -0.18741
      10     H     0.44852  0.44852  0.00000  0.10297
      11     H     0.44020  0.44020  0.00000  0.11961
      12     C     3.08747  3.08747  0.00000 -0.17494
      13     H     0.45083  0.45083  0.00000  0.09833
      14     H     0.44712  0.44712  0.00000  0.10576
      15     C     3.15652  3.15652  0.00000 -0.31304
      16     H     0.44880  0.44880  0.00000  0.10240
      17     H     0.44866  0.44866  0.00000  0.10268
      18     H     0.44491  0.44491  0.00000  0.11019
      19     H     0.45220  0.45220  0.00000  0.09560
      20     H     0.45377  0.45377  0.00000  0.09245

   Total alpha = 32.00000, Total beta = 32.00000, Total charge =  0.00000
