                              Psi4 1.0.54 Driver

  ==> Input File <==

--------------------------------------------------------------------------
set {
	reference rhf
	basis cc-pvtz
}

set_num_threads( 4 )
memory 2 gb

molecule MOL {
0 1

H	 -2.044944	 1.589841	 1.152201
C	 -2.267262	 0.536088	 1.050221
C	 -0.995481	 -0.296683	 1.093607
H	 -2.787068	 0.402238	 0.111019
H	 -2.933244	 0.247137	 1.854508
C	 0.000000	 0.039916	 0.000014
H	 -1.224588	 -1.356080	 1.015598
H	 -0.488904	 -0.178843	 2.047748
C	 1.286532	 -0.763243	 0.000268
O	 -0.215201	 0.882539	 -0.808722
C	 2.547023	 0.087626	 -0.000114
H	 1.264245	 -1.421103	 -0.864380
H	 1.264290	 -1.420353	 0.865489
H	 2.584452	 0.725630	 -0.872909
H	 3.427035	 -0.544422	 0.000125
H	 2.584484	 0.726356	 0.872143

	symmetry c1
}
set optking {
	frozen_dihedral = ("
		3 6 9 12
	")
}

ee,wfn = optimize('scf', return_wfn=True)
oeprop( wfn, 'DIPOLE', 'QUADRUPOLE', 'MULLIKEN_CHARGES')
f=open( 'psi4out.xyz', 'w' )
f.write( "16  " )
f.write( str(ee) + "\n" )
f.write( MOL.save_string_xyz() )
f.close()
--------------------------------------------------------------------------

    Molecular point group: c1
  Charge       = 0
  Multiplicity = 1
  Basis Set: CC-PVTZ
  Basis Set:
  @DF-RHF Final Energy:  -270.12961669212177
    Total Energy =                       -270.1296166921217150
    Molecular point group: c1
  Basis Set: CC-PVTZ
  Basis Set:
  Basis Set: CC-PVTZ
  Basis Set:
  @DF-RHF Final Energy:  -270.13009332096317
    Total Energy =                       -270.1300933209632831
  Basis Set: CC-PVTZ
  Basis Set:
  Basis Set: CC-PVTZ
  Basis Set:
  @DF-RHF Final Energy:  -270.13026645870099
    Total Energy =                       -270.1302664587007030
  Basis Set: CC-PVTZ
  Basis Set:
  Basis Set: CC-PVTZ
  Basis Set:
  @DF-RHF Final Energy:  -270.13013212821988
    Total Energy =                       -270.1301321282200547
  Basis Set: CC-PVTZ
  Basis Set:
  Basis Set: CC-PVTZ
  Basis Set:
  @DF-RHF Final Energy:  -270.13027046400504
    Total Energy =                       -270.1302704640052070
  Basis Set: CC-PVTZ
  Basis Set:
  Charge       = 0
  Multiplicity = 1
  Basis Set: CC-PVTZ
  Basis Set:

    Orbital Energies (a.u.)
    -----------------------

    Doubly Occupied:

       1A    -20.537456     2A    -11.317949     3A    -11.233153
       4A    -11.230941     5A    -11.217645     6A    -11.211856
       7A     -1.398353     8A     -1.069697     9A     -1.037829
      10A     -0.915341    11A     -0.850387    12A     -0.726716
      13A     -0.668120    14A     -0.644263    15A     -0.624395
      16A     -0.604115    17A     -0.565025    18A     -0.536297
      19A     -0.528558    20A     -0.512524    21A     -0.502958
      22A     -0.497413    23A     -0.480721    24A     -0.398881

  @DF-RHF Final Energy:  -270.13027060950060

   => Energetics <=

    Nuclear Repulsion Energy =            240.4342730492023463
    One-Electron Energy =                -842.5079017108849939
    Two-Electron Energy =                 331.9433580521817362
    DFT Exchange-Correlation Energy =       0.0000000000000000
    Empirical Dispersion Energy =           0.0000000000000000
    PCM Polarization Energy =               0.0000000000000000
    EFP Energy =                            0.0000000000000000
    Total Energy =                       -270.1302706095008830
    Molecular point group: c1
  Basis Set: CC-PVTZ
  Basis Set:

  -Total Gradient:
     Atom            X                  Y                   Z
    ------   -----------------  -----------------  -----------------
       1        0.000001431308    -0.000002719567     0.000000740600
       2       -0.000006017523    -0.000003729240    -0.000014894124
       3        0.000319338639     0.000432033028     0.000459233998
       4        0.000005072912     0.000001008271     0.000006939045
       5        0.000000801721     0.000000700904     0.000001836147
       6       -0.000339050973    -0.000495930950    -0.000704778042
       7       -0.000000008394    -0.000003187017    -0.000004829495
       8       -0.000011899057    -0.000006194883    -0.000005923836
       9       -0.000388551120    -0.000556023267     0.000700612682
      10       -0.000009253352     0.000020109033    -0.000022713738
      11       -0.000012889720     0.000002890371    -0.000006218380
      12        0.000441064506     0.000627843892    -0.000413221905
      13        0.000002451505    -0.000011250191     0.000001172938
      14        0.000003633419     0.000001077659     0.000003671310
      15       -0.000004369191    -0.000003880810     0.000001111233
      16       -0.000001754680    -0.000002747236    -0.000002738438

  **** Optimization is complete! (in 6 steps) ****
    Final optimized geometry and variables:
    Molecular point group: c1

    Geometry (in Angstrom), charge = 0, multiplicity = 1:

    H           -2.091301874455     1.545065586415     0.904618293985
    C           -2.350213682593     0.506546667300     0.748142709500
    C           -1.116829651175    -0.378634055908     0.820496352565
    H           -2.824578623528     0.431809487903    -0.221410561049
    H           -3.069034279843     0.214390186057     1.504332767950
    C           -0.048724880828    -0.042329410677    -0.196922894304
    H           -1.377102310648    -1.426079285457     0.687634870533
    H           -0.651212241288    -0.321142819401     1.801846353624
    C            1.188385371501    -0.925248512166    -0.213407033979
    O           -0.159691939407     0.866192329502    -0.954248784645
    C            2.480895744527    -0.112128012375    -0.189458119510
    H            1.142097604204    -1.502342665940    -1.132084532665
    H            1.161379953510    -1.628601660039     0.609980764344
    H            2.507184058440     0.582282882353    -1.016941417760
    H            3.341130206179    -0.766454925757    -0.258805995528
    H            2.568012653329     0.456812413458     0.729507103217

  Mulliken Charges: (a.u.)
   Center  Symbol    Alpha    Beta     Spin     Total
       1     H     0.44724  0.44724  0.00000  0.10552
       2     C     3.14114  3.14114  0.00000 -0.28228
       3     C     3.10213  3.10213  0.00000 -0.20426
       4     H     0.44825  0.44825  0.00000  0.10351
       5     H     0.45080  0.45080  0.00000  0.09840
       6     C     2.86744  2.86744  0.00000  0.26512
       7     H     0.44515  0.44515  0.00000  0.10969
       8     H     0.44584  0.44584  0.00000  0.10832
       9     C     3.09503  3.09503  0.00000 -0.19006
      10     O     4.17667  4.17667  0.00000 -0.35333
      11     C     3.14429  3.14429  0.00000 -0.28858
      12     H     0.44436  0.44436  0.00000  0.11128
      13     H     0.44687  0.44687  0.00000  0.10627
      14     H     0.44010  0.44010  0.00000  0.11979
      15     H     0.44921  0.44921  0.00000  0.10158
      16     H     0.45549  0.45549  0.00000  0.08902

   Total alpha = 24.00000, Total beta = 24.00000, Total charge = -0.00000

*** Psi4 exiting successfully. Buy a developer a beer!
