  ==> Input File <==

--------------------------------------------------------------------------
set {
	reference rhf
	basis cc-pvtz
}

set_num_threads( 4 )
memory 2 gb

molecule MOL {
0 1

O	 1.942000	 1.310000	 -0.000000
C	 1.801000	 0.130000	 0.000000
C	 0.477000	 -0.596000	 0.000000
O	 2.817000	 -0.723000	 0.000000
C	 -0.728000	 0.340000	 0.001000
H	 0.466000	 -1.251000	 -0.867000
H	 0.467000	 -1.252000	 0.866000
C	 -2.054000	 -0.421000	 -0.000000
H	 -0.675000	 0.991000	 -0.867000
H	 -0.675000	 0.990000	 0.869000
C	 -3.273000	 0.503000	 -0.000000
H	 -2.099000	 -1.073000	 -0.871000
H	 -2.099000	 -1.074000	 0.871000
C	 -4.598000	 -0.258000	 -0.000000
H	 -3.231000	 1.154000	 -0.870000
H	 -3.231000	 1.154000	 0.870000
H	 -4.686000	 -0.894000	 -0.877000
H	 -5.443000	 0.423000	 -0.000000
H	 -4.686000	 -0.893000	 0.877000
C	 4.120000	 -0.170000	 -0.000000
H	 4.276000	 0.436000	 -0.881000
H	 4.798000	 -1.010000	 -0.001000
H	 4.276000	 0.436000	 0.881000

	symmetry c1
}
ee = optimize('scf')
oeprop('DIPOLE', 'QUADRUPOLE', 'MULLIKEN_CHARGES')
f=open( 'psi4out.xyz', 'w' )
f.write( "23  " )
f.write( str(ee) + "\n" )
f.write( MOL.save_string_xyz() )
f.close()
--------------------------------------------------------------------------

    Molecular point group: c1
  Charge       = 0
  Multiplicity = 1
  Basis Set: CC-PVTZ
  Basis Set:
  @DF-RHF Final Energy:  -423.13097333314346
    Total Energy =                       -423.1309733331436291
    Molecular point group: c1
  Basis Set: CC-PVTZ
  Basis Set:
  Basis Set: CC-PVTZ
  Basis Set:
  @DF-RHF Final Energy:  -423.13109730522064
    Total Energy =                       -423.1310973052203508
  Basis Set: CC-PVTZ
  Basis Set:
  Basis Set: CC-PVTZ
  Basis Set:
  @DF-RHF Final Energy:  -423.13109932587088
    Total Energy =                       -423.1310993258712188
  Basis Set: CC-PVTZ
  Basis Set:
  Basis Set: CC-PVTZ
  Basis Set:
  @DF-RHF Final Energy:  -423.13107831840097
    Total Energy =                       -423.1310783184005686
  Basis Set: CC-PVTZ
  Basis Set:
  Charge       = 0
  Multiplicity = 1
  Basis Set: CC-PVTZ
  Basis Set:

    Orbital Energies (a.u.)
    -----------------------

    Doubly Occupied:

       1A    -20.596285     2A    -20.534092     3A    -11.364532
       4A    -11.278474     5A    -11.233766     6A    -11.217166
       7A    -11.215819     8A    -11.214508     9A    -11.207760
      10A     -1.472180    11A     -1.365751    12A     -1.094510
      13A     -1.044789    14A     -0.988053    15A     -0.932718
      16A     -0.844091    17A     -0.795575    18A     -0.769279
      19A     -0.699101    20A     -0.686909    21A     -0.675348
      22A     -0.652877    23A     -0.609739    24A     -0.601002
      25A     -0.573656    26A     -0.559479    27A     -0.558165
      28A     -0.525263    29A     -0.522189    30A     -0.508286
      31A     -0.484857    32A     -0.470175    33A     -0.467235
      34A     -0.463329    35A     -0.459073    36A     -0.438392

  @DF-RHF Final Energy:  -423.13110023004714

   => Energetics <=

    Nuclear Repulsion Energy =            452.8915023974751080
    One-Electron Energy =               -1473.7963564713043070
    Two-Electron Energy =                 597.7737538437820604
    DFT Exchange-Correlation Energy =       0.0000000000000000
    Empirical Dispersion Energy =           0.0000000000000000
    PCM Polarization Energy =               0.0000000000000000
    EFP Energy =                            0.0000000000000000
    Total Energy =                       -423.1311002300471955
    Molecular point group: c1
  Basis Set: CC-PVTZ
  Basis Set:

  -Total Gradient:
     Atom            X                  Y                   Z
    ------   -----------------  -----------------  -----------------
       1       -0.000003642158    -0.000022457935    -0.000005738236
       2        0.000053084131     0.000022506435     0.000017310942
       3        0.000016351403     0.000005375176    -0.000001831639
       4       -0.000069530235     0.000001551239    -0.000003092257
       5       -0.000008203895    -0.000006327559    -0.000011259472
       6       -0.000011318481    -0.000007037981     0.000003369998
       7       -0.000008992563    -0.000007522000    -0.000004565815
       8        0.000012163225    -0.000002292481     0.000004792786
       9        0.000001037217    -0.000001266419     0.000006178408
      10       -0.000000545713     0.000000841202    -0.000003680822
      11       -0.000011315091     0.000003982370     0.000005775849
      12        0.000000052276    -0.000003883817     0.000002711608
      13        0.000001925140    -0.000002307256    -0.000005829577
      14       -0.000008591417    -0.000003353911    -0.000005121123
      15       -0.000000313495     0.000004705040     0.000004450389
      16        0.000000377212     0.000004627548    -0.000002226356
      17       -0.000002308293     0.000001392022     0.000004225108
      18        0.000004028230    -0.000005366105    -0.000001047928
      19       -0.000001374919     0.000003792089    -0.000002688403
      20        0.000069754820     0.000019491566    -0.000003957850
      21       -0.000010092726    -0.000004385364     0.000004612010
      22       -0.000011706029     0.000002582794     0.000000855922
      23       -0.000010838637    -0.000004646648    -0.000003243542

  **** Optimization is complete! (in 5 steps) ****
    Final optimized geometry and variables:
    Molecular point group: c1

    Geometry (in Angstrom), charge = 0, multiplicity = 1:

    O            1.847684944921     1.294399080867    -0.000190337366
    C            1.704209133644     0.119472427504    -0.000092600549
    C            0.380336863003    -0.600946881662    -0.000233687345
    O            2.715427153225    -0.733672325000     0.000025215147
    C           -0.824289863681     0.329213288457    -0.000115335112
    H            0.371454791009    -1.255476182061    -0.865660489894
    H            0.371409674342    -1.255787272593     0.864951991581
    C           -2.146151286596    -0.432824461657    -0.000067925260
    H           -0.773936262199     0.979158377076    -0.866319351737
    H           -0.773838048730     0.979034617206     0.866185993438
    C           -3.366283136347     0.483551725184     0.000557001807
    H           -2.189286301096    -1.084450128010    -0.869995948852
    H           -2.188867428508    -1.085082958540     0.869399479892
    C           -4.687436583485    -0.278003036098     0.000107634259
    H           -3.325149909788     1.134818694011    -0.867957114184
    H           -3.325087223628     1.133729666737     0.869885066038
    H           -4.773783353226    -0.912097391020    -0.876077835938
    H           -5.531922507247     0.401391695719     0.000362540844
    H           -4.773901060129    -0.912897373388     0.875703385873
    C            4.020998942476    -0.192555589372     0.000018916011
    H            4.182808762961     0.412890670856    -0.879448577363
    H            4.692589690982    -1.035652438399     0.000151852725
    H            4.182726059968     0.413087215290     0.879367783445

  Mulliken Charges: (a.u.)
   Center  Symbol    Alpha    Beta     Spin     Total
       1     O     4.19703  4.19703  0.00000 -0.39406
       2     C     2.80691  2.80691  0.00000  0.38617
       3     C     3.10118  3.10118  0.00000 -0.20236
       4     O     4.14647  4.14647  0.00000 -0.29293
       5     C     3.08327  3.08327  0.00000 -0.16654
       6     H     0.44014  0.44014  0.00000  0.11971
       7     H     0.44014  0.44014  0.00000  0.11971
       8     C     3.08934  3.08934  0.00000 -0.17867
       9     H     0.44638  0.44638  0.00000  0.10725
      10     H     0.44638  0.44638  0.00000  0.10723
      11     C     3.08401  3.08401  0.00000 -0.16801
      12     H     0.45580  0.45580  0.00000  0.08839
      13     H     0.45580  0.45580  0.00000  0.08839
      14     C     3.15039  3.15039  0.00000 -0.30079
      15     H     0.45327  0.45327  0.00000  0.09345
      16     H     0.45327  0.45327  0.00000  0.09345
      17     H     0.45532  0.45532  0.00000  0.08935
      18     H     0.44773  0.44773  0.00000  0.10455
      19     H     0.45532  0.45532  0.00000  0.08936
      20     C     3.03781  3.03781  0.00000 -0.07562
      21     H     0.45434  0.45434  0.00000  0.09131
      22     H     0.44533  0.44533  0.00000  0.10934
      23     H     0.45434  0.45434  0.00000  0.09131

   Total alpha = 36.00000, Total beta = 36.00000, Total charge = -0.00000
