                              Psi4 1.0.54 Driver

  ==> Input File <==

--------------------------------------------------------------------------
set {
	reference rhf
	basis cc-pvtz
}

set_num_threads( 4 )
memory 2 gb

molecule MOL {
0 1

O	 -2.071633	 -1.227563	 -0.223463
C	 -1.652164	 -0.152425	 0.058082
C	 -0.327811	 0.006324	 0.778296
C	 -2.402515	 1.108629	 -0.298924
C	 0.843231	 -0.001575	 -0.211665
H	 -0.319484	 0.928173	 1.350354
H	 -0.227804	 -0.823091	 1.466705
C	 0.418439	 0.368829	 -1.629615
H	 1.308531	 -0.983947	 -0.223253
H	 1.597761	 0.694878	 0.137623
C	 1.582009	 0.374553	 -2.615128
H	 -0.341548	 -0.328164	 -1.971879
H	 -0.049067	 1.349041	 -1.616871
H	 2.048780	 -0.602903	 -2.676273
H	 2.344095	 1.085911	 -2.315857
H	 1.249648	 0.644751	 -3.610583
H	 -3.240910	 0.874416	 -0.936711
H	 -1.747554	 1.818823	 -0.790984
H	 -2.760419	 1.579708	 0.610998

	symmetry c1
}
set optking {
	frozen_dihedral = ("
		9 5 3 2
	")
}

ee,wfn = optimize('scf', return_wfn=True)
oeprop( wfn, 'DIPOLE', 'QUADRUPOLE', 'MULLIKEN_CHARGES')
f=open( 'psi4out.xyz', 'w' )
f.write( "19  " )
f.write( str(ee) + "\n" )
f.write( MOL.save_string_xyz() )
f.close()
--------------------------------------------------------------------------

    Molecular point group: c1
  Charge       = 0
  Multiplicity = 1
  Basis Set: CC-PVTZ
  Basis Set:
  @DF-RHF Final Energy:  -309.16495752157289
    Total Energy =                       -309.1649575215728873
    Molecular point group: c1
  Basis Set: CC-PVTZ
  Basis Set:
  Basis Set: CC-PVTZ
  Basis Set:
  @DF-RHF Final Energy:  -309.16908742920492
    Total Energy =                       -309.1690874292048647
  Basis Set: CC-PVTZ
  Basis Set:
  Basis Set: CC-PVTZ
  Basis Set:
  @DF-RHF Final Energy:  -309.16863270590682
    Total Energy =                       -309.1686327059064183
  Basis Set: CC-PVTZ
  Basis Set:
  Basis Set: CC-PVTZ
  Basis Set:
  @DF-RHF Final Energy:  -309.16980173899321
    Total Energy =                       -309.1698017389929873
  Basis Set: CC-PVTZ
  Basis Set:
  @DF-RHF Final Energy:  -309.17002565893796
    Total Energy =                       -309.1700256589380160
  @DF-RHF Final Energy:  -309.17006790580803
    Total Energy =                       -309.1700679058077981
  @DF-RHF Final Energy:  -309.17011954346845
    Total Energy =                       -309.1701195434682177
  @DF-RHF Final Energy:  -309.17016398986664
    Total Energy =                       -309.1701639898662393
  Basis Set: CC-PVTZ
  Basis Set:
  @DF-RHF Final Energy:  -309.17019610449086
    Total Energy =                       -309.1701961044907421
  Basis Set: CC-PVTZ
  Basis Set:
  Basis Set: CC-PVTZ
  Basis Set:
  @DF-RHF Final Energy:  -309.17020230756310
    Total Energy =                       -309.1702023075634429
  Basis Set: CC-PVTZ
  Basis Set:
  Basis Set: CC-PVTZ
  Basis Set:
  @DF-RHF Final Energy:  -309.17020609342910
    Total Energy =                       -309.1702060934288738
  Basis Set: CC-PVTZ
  Basis Set:
  Charge       = 0
  Multiplicity = 1
  Basis Set: CC-PVTZ
  Basis Set:

    Orbital Energies (a.u.)
    -----------------------

    Doubly Occupied:

       1A    -20.536104     2A    -11.320144     3A    -11.228992
       4A    -11.226959     5A    -11.226087     6A    -11.217998
       7A    -11.210044     8A     -1.396926     9A     -1.086646
      10A     -1.028348    11A     -0.984425    12A     -0.889588
      13A     -0.811341    14A     -0.725628    15A     -0.661295
      16A     -0.639746    17A     -0.624417    18A     -0.618944
      19A     -0.577400    20A     -0.574511    21A     -0.566751
      22A     -0.535399    23A     -0.512114    24A     -0.494393
      25A     -0.483478    26A     -0.466835    27A     -0.464683
      28A     -0.399186

  @DF-RHF Final Energy:  -309.17020636839555

   => Energetics <=

    Nuclear Repulsion Energy =            309.3875575577743007
    One-Electron Energy =               -1032.0987652968799466
    Two-Electron Energy =                 413.5410013707103190
    DFT Exchange-Correlation Energy =       0.0000000000000000
    Empirical Dispersion Energy =           0.0000000000000000
    PCM Polarization Energy =               0.0000000000000000
    EFP Energy =                            0.0000000000000000
    Total Energy =                       -309.1702063683953838
    Molecular point group: c1
  Basis Set: CC-PVTZ
  Basis Set:

  -Total Gradient:
     Atom            X                  Y                   Z
    ------   -----------------  -----------------  -----------------
       1        0.000000752824     0.000019545776     0.000040234059
       2       -0.000218865892     0.004030038761    -0.000947376396
       3        0.001145932962    -0.005293334608     0.002172223633
       4       -0.000025403647    -0.000023740996     0.000022484543
       5       -0.004628307149    -0.000738796394    -0.004986791406
       6        0.000000959234    -0.000003315189     0.000006824428
       7        0.000009798148     0.000005692244    -0.000007021389
       8        0.000003103157    -0.000087804547     0.000044574118
       9        0.003653679196     0.002087833095     0.003672526784
      10        0.000045848212    -0.000054019070     0.000044718406
      11        0.000029789167    -0.000001292306    -0.000026290854
      12       -0.000007678414     0.000010704488    -0.000014621953
      13       -0.000031037010     0.000023416212     0.000012907551
      14       -0.000010151106     0.000002216311     0.000006919734
      15       -0.000012406323    -0.000001376526     0.000002780152
      16        0.000001848583    -0.000002232604     0.000000752685
      17        0.000018757058    -0.000010494990    -0.000001383942
      18        0.000019714298     0.000025571207    -0.000020566875
      19        0.000003666702     0.000011389132    -0.000022893278

  **** Optimization is complete! (in 12 steps) ****
    Final optimized geometry and variables:
    Molecular point group: c1

    Geometry (in Angstrom), charge = 0, multiplicity = 1:

    O           -1.529681029118    -1.200198822657     0.363024370818
    C           -1.179030009438    -0.132730049466     0.749632236226
    C            0.220456975261     0.082238024400     1.301996416949
    C           -2.109317416086     1.055589507276     0.733475598895
    C            1.361225179868    -0.081905500621     0.267686586699
    H            0.273896264892     1.071781243867     1.740123039659
    H            0.354143956047    -0.631144876070     2.105528559735
    C            1.008204190482     0.177429210492    -1.194509117582
    H            1.806960478863    -1.063404237190     0.378422244784
    H            2.148210948966     0.608916767255     0.555464012085
    C            2.229255835950     0.089681664623    -2.104147321648
    H            0.262577228290    -0.534241824067    -1.525272957818
    H            0.563348676030     1.165082579353    -1.292640939877
    H            2.684499034863    -0.893343125802    -2.049429828251
    H            2.982693105735     0.818936696100    -1.825568264881
    H            1.958791687130     0.270955935870    -3.137717989581
    H           -3.054370248056     0.780880574917     0.290846897321
    H           -1.662817151081     1.873406993799     0.178482514991
    H           -2.267696897424     1.407467353884     1.747782090575

  Mulliken Charges: (a.u.)
   Center  Symbol    Alpha    Beta     Spin     Total
       1     O     4.18197  4.18197  0.00000 -0.36393
       2     C     2.84767  2.84767  0.00000  0.30466
       3     C     3.11368  3.11368  0.00000 -0.22735
       4     C     3.15494  3.15494  0.00000 -0.30988
       5     C     3.08195  3.08195  0.00000 -0.16390
       6     H     0.44769  0.44769  0.00000  0.10462
       7     H     0.43755  0.43755  0.00000  0.12491
       8     C     3.09986  3.09986  0.00000 -0.19972
       9     H     0.44680  0.44680  0.00000  0.10640
      10     H     0.45183  0.45183  0.00000  0.09633
      11     C     3.15101  3.15101  0.00000 -0.30203
      12     H     0.43831  0.43831  0.00000  0.12337
      13     H     0.45504  0.45504  0.00000  0.08991
      14     H     0.45293  0.45293  0.00000  0.09414
      15     H     0.45614  0.45614  0.00000  0.08771
      16     H     0.44706  0.44706  0.00000  0.10588
      17     H     0.43670  0.43670  0.00000  0.12660
      18     H     0.45049  0.45049  0.00000  0.09901
      19     H     0.44837  0.44837  0.00000  0.10327

   Total alpha = 28.00000, Total beta = 28.00000, Total charge =  0.00000

*** Psi4 exiting successfully. Buy a developer a beer!
