  ==> Input File <==

--------------------------------------------------------------------------
set {
	reference rhf
	basis 6-31G*
}

set_num_threads( 4 )
memory 2 gb

molecule MOL {
0 1

O	 1.559986	 -0.272925	 0.530578
C	 0.576249	 0.131685	 -0.000108
C	 -0.766779	 -0.556801	 -0.000461
O	 0.532693	 1.271439	 -0.678140
C	 -1.945214	 0.412366	 0.000161
H	 -0.796911	 -1.211249	 -0.867467
H	 -0.796854	 -1.212390	 0.865687
C	 -3.287791	 -0.317055	 0.000105
H	 -1.876087	 1.060580	 -0.866812
H	 -1.875822	 1.059691	 0.867761
H	 -3.394745	 -0.949193	 -0.877058
H	 -4.111778	 0.388953	 0.000015
H	 -3.394954	 -0.949187	 0.877259
C	 1.732532	 2.019518	 -0.755420
H	 2.067117	 2.304071	 0.231810
H	 1.496342	 2.896599	 -1.337494
H	 2.507937	 1.445040	 -1.241457

	symmetry c1
}
set optking {
	frozen_dihedral = ("
		1 2 3 6
	")
}

ee = optimize('scf')
oeprop('DIPOLE', 'QUADRUPOLE', 'MULLIKEN_CHARGES')
f=open( 'psi4out.xyz', 'w' )
f.write( "17  " )
f.write( str(ee) + "\n" )
f.write( MOL.save_string_xyz() )
f.close()
--------------------------------------------------------------------------

    Molecular point group: c1
  Charge       = 0
  Multiplicity = 1
  Basis Set: 6-31G*
  Basis Set:
  @DF-RHF Final Energy:  -344.90411598815490
    Total Energy =                       -344.9041159881547856
    Molecular point group: c1
  Basis Set: 6-31G*
  Basis Set:
  Basis Set: 6-31G*
  Basis Set:
  @DF-RHF Final Energy:  -344.90320366093636
    Total Energy =                       -344.9032036609365832
  Basis Set: 6-31G*
  Basis Set:
  Basis Set: 6-31G*
  Basis Set:
  @DF-RHF Final Energy:  -344.90431919334156
    Total Energy =                       -344.9043191933416210
  Basis Set: 6-31G*
  Basis Set:
  Basis Set: 6-31G*
  Basis Set:
  @DF-RHF Final Energy:  -344.90487558245849
    Total Energy =                       -344.9048755824583168
  Basis Set: 6-31G*
  Basis Set:
  Basis Set: 6-31G*
  Basis Set:
  @DF-RHF Final Energy:  -344.90488434415556
    Total Energy =                       -344.9048843441554482
  Basis Set: 6-31G*
  Basis Set:
  Basis Set: 6-31G*
  Basis Set:
  @DF-RHF Final Energy:  -344.90488783571129
    Total Energy =                       -344.9048878357116337
  Basis Set: 6-31G*
  Basis Set:
  Charge       = 0
  Multiplicity = 1
  Basis Set: 6-31G*
  Basis Set:

    Orbital Energies (a.u.)
    -----------------------

    Doubly Occupied:

       1A    -20.605851     2A    -20.542642     3A    -11.372271
       4A    -11.281677     5A    -11.235846     6A    -11.227792
       7A    -11.217381     8A     -1.470087     9A     -1.361616
      10A     -1.083468    11A     -0.997891    12A     -0.942773
      13A     -0.831556    14A     -0.774895    15A     -0.696791
      16A     -0.682242    17A     -0.671475    18A     -0.637770
      19A     -0.596038    20A     -0.574198    21A     -0.555559
      22A     -0.536623    23A     -0.524208    24A     -0.513169
      25A     -0.490108    26A     -0.481604    27A     -0.454674
      28A     -0.431056

  @DF-RHF Final Energy:  -344.90488808527499

   => Energetics <=

    Nuclear Repulsion Energy =            314.2471469676999618
    One-Electron Energy =               -1092.7215509064271828
    Two-Electron Energy =                 433.5695158534521738
    DFT Exchange-Correlation Energy =       0.0000000000000000
    Empirical Dispersion Energy =           0.0000000000000000
    PCM Polarization Energy =               0.0000000000000000
    EFP Energy =                            0.0000000000000000
    Total Energy =                       -344.9048880852749903
    Molecular point group: c1
  Basis Set: 6-31G*
  Basis Set:

  -Total Gradient:
     Atom            X                  Y                   Z
    ------   -----------------  -----------------  -----------------
       1        0.000219951353    -0.000455248765    -0.000755328940
       2       -0.000254013312     0.000484555901     0.001201213247
       3       -0.000284010052     0.000601658722    -0.000888224122
       4       -0.000018198152     0.000020620212    -0.000017418766
       5        0.000006397839     0.000007544405     0.000024684667
       6        0.000329778186    -0.000658032767     0.000444627118
       7       -0.000003389443     0.000010476468    -0.000009969719
       8       -0.000002025899    -0.000006255405    -0.000018424741
       9        0.000003430432    -0.000003316626     0.000004730140
      10        0.000007406683     0.000001496934     0.000009786145
      11        0.000004461649    -0.000010628845     0.000003647592
      12        0.000005773126    -0.000000806777    -0.000009139941
      13       -0.000005777777     0.000011677491     0.000009184918
      14       -0.000004673216    -0.000005090601     0.000004819085
      15        0.000001024371     0.000001356888    -0.000002386285
      16       -0.000006436209    -0.000001593620    -0.000001581828
      17        0.000000300415     0.000001586385    -0.000000218569

  **** Optimization is complete! (in 7 steps) ****
    Final optimized geometry and variables:
    Molecular point group: c1

    Geometry (in Angstrom), charge = 0, multiplicity = 1:

    O            1.739291177109    -0.683543668655     0.663377680054
    C            0.772330983655    -0.236706447030     0.134440155742
    C           -0.574595722282    -0.921254425423     0.116611985590
    O            0.781185732843     0.902106714614    -0.544023627965
    C           -1.792219686141     0.005403725137     0.128356277607
    H           -0.589619523884    -1.548043914632    -0.772908621779
    H           -0.586739552129    -1.593980404194     0.965581997786
    C           -3.102173486073    -0.780596850986     0.162016515993
    H           -1.769187938548     0.646268455341    -0.744887522252
    H           -1.739672069102     0.660172893365     0.994027039986
    H           -3.194910301899    -1.427366061342    -0.705935118757
    H           -3.955803374655    -0.110714180514     0.167311216367
    H           -3.165930651503    -1.405280834113     1.048192353693
    C            2.014127020331     1.595413244553    -0.618115617572
    H            2.360731750280     1.859406863034     0.370435506619
    H            1.817837888026     2.484722494301    -1.196477651828
    H            2.761931899491     0.987481836471    -1.106431799765

  Mulliken Charges: (a.u.)
   Center  Symbol    Alpha    Beta     Spin     Total
       1     O     4.28796  4.28796  0.00000 -0.57592
       2     C     2.60812  2.60812  0.00000  0.78376
       3     C     3.20489  3.20489  0.00000 -0.40979
       4     O     4.30298  4.30298  0.00000 -0.60597
       5     C     3.15614  3.15614  0.00000 -0.31229
       6     H     0.40158  0.40158  0.00000  0.19685
       7     H     0.39812  0.39812  0.00000  0.20377
       8     C     3.24254  3.24254  0.00000 -0.48508
       9     H     0.40786  0.40786  0.00000  0.18428
      10     H     0.41685  0.41685  0.00000  0.16631
      11     H     0.42023  0.42023  0.00000  0.15954
      12     H     0.41544  0.41544  0.00000  0.16911
      13     H     0.41928  0.41928  0.00000  0.16144
      14     C     3.09249  3.09249  0.00000 -0.18499
      15     H     0.40826  0.40826  0.00000  0.18348
      16     H     0.40868  0.40868  0.00000  0.18263
      17     H     0.40856  0.40856  0.00000  0.18287

   Total alpha = 28.00000, Total beta = 28.00000, Total charge =  0.00000
