  ==> Input File <==

--------------------------------------------------------------------------
set {
	reference rhf
	basis cc-pvtz
}

set_num_threads( 4 )
memory 2 gb

molecule MOL {
0 1

H	 0.149983	 4.242375	 -0.111172
O	 -0.156931	 3.713131	 -0.824338
C	 -0.156887	 2.361553	 -0.459126
C	 1.249897	 1.799066	 -0.410555
H	 -0.643670	 2.206979	 0.498620
H	 -0.730145	 1.832680	 -1.207024
O	 1.172093	 0.457955	 -0.054438
H	 1.847533	 2.353467	 0.314956
H	 1.723113	 1.919076	 -1.382789
C	 2.395478	 -0.199028	 -0.000366
H	 2.505946	 -0.901710	 -0.823354
H	 3.174616	 0.545641	 -0.071768
H	 2.513730	 -0.742241	 0.934223

	symmetry c1
}
set optking {
	frozen_dihedral = ("
		4 7 10 13
	")
}

ee = optimize('scf')
oeprop('DIPOLE', 'QUADRUPOLE', 'MULLIKEN_CHARGES')
f=open( 'psi4out.xyz', 'w' )
f.write( "13  " )
f.write( str(ee) + "\n" )
f.write( MOL.save_string_xyz() )
f.close()
--------------------------------------------------------------------------

    Molecular point group: c1
  Charge       = 0
  Multiplicity = 1
  Basis Set: CC-PVTZ
  Basis Set:
  @DF-RHF Final Energy:  -268.05792613421636
    Total Energy =                       -268.0579261342162454
    Molecular point group: c1
  Basis Set: CC-PVTZ
  Basis Set:
  Basis Set: CC-PVTZ
  Basis Set:
  @DF-RHF Final Energy:  -268.05870779486929
    Total Energy =                       -268.0587077948692354
  Basis Set: CC-PVTZ
  Basis Set:
  Basis Set: CC-PVTZ
  Basis Set:
  @DF-RHF Final Energy:  -268.05893113880603
    Total Energy =                       -268.0589311388060310
  Basis Set: CC-PVTZ
  Basis Set:
  Charge       = 0
  Multiplicity = 1
  Basis Set: CC-PVTZ
  Basis Set:

    Orbital Energies (a.u.)
    -----------------------

    Doubly Occupied:

       1A    -20.552642     2A    -20.552508     3A    -11.269681
       4A    -11.267363     5A    -11.266909     6A     -1.387878
       7A     -1.368395     8A     -1.019382     9A     -0.914214
      10A     -0.842502    11A     -0.711058    12A     -0.673777
      13A     -0.661093    14A     -0.637817    15A     -0.598630
      16A     -0.569322    17A     -0.550963    18A     -0.490692
      19A     -0.483262    20A     -0.441125    21A     -0.419562

  @DF-RHF Final Energy:  -268.05893274477376

   => Energetics <=

    Nuclear Repulsion Energy =            190.1982470352544965
    One-Electron Energy =                -743.1568172698666785
    Two-Electron Energy =                 284.8996374898384829
    DFT Exchange-Correlation Energy =       0.0000000000000000
    Empirical Dispersion Energy =           0.0000000000000000
    PCM Polarization Energy =               0.0000000000000000
    EFP Energy =                            0.0000000000000000
    Total Energy =                       -268.0589327447736423
    Molecular point group: c1
  Basis Set: CC-PVTZ
  Basis Set:

  -Total Gradient:
     Atom            X                  Y                   Z
    ------   -----------------  -----------------  -----------------
       1       -0.000001071242     0.000007177811    -0.000002099957
       2        0.000012265570     0.000011576292     0.000001382443
       3       -0.000019658066    -0.000029939349     0.000007086489
       4        0.000155478716     0.000306162087     0.001108667420
       5       -0.000005328290    -0.000004730378    -0.000004281789
       6       -0.000003670388    -0.000002511895     0.000005314723
       7        0.000089704054    -0.000238426742    -0.001412485122
       8       -0.000000698728    -0.000024880004     0.000002930617
       9       -0.000001711733    -0.000022274344     0.000016611173
      10       -0.000755613615    -0.001145293365    -0.000319411997
      11       -0.000023273648    -0.000022924407     0.000002177350
      12        0.000026416333     0.000005095592     0.000001980479
      13        0.000527161036     0.001160968702     0.000592128174

  **** Optimization is complete! (in 4 steps) ****
    Final optimized geometry and variables:
    Molecular point group: c1

    Geometry (in Angstrom), charge = 0, multiplicity = 1:

    H           -0.783097394273     2.585092013433     0.244183471791
    O           -1.084579251176     2.054729855739    -0.470461355162
    C           -1.064929582114     0.701636085773    -0.110695049808
    C            0.349579162884     0.158657637333    -0.069371815628
    H           -1.545878847947     0.536439783964     0.848234118609
    H           -1.633745122839     0.167809103697    -0.858453629052
    O            0.286378341124    -1.184343315159     0.286071478467
    H            0.940734701732     0.719935883059     0.655166724245
    H            0.814764304152     0.289140002794    -1.043711342970
    C            1.503212319274    -1.864386559376     0.346004619691
    H            1.576831800081    -2.579877804862    -0.465496803001
    H            2.347320417928    -1.185423136986     0.281042323579
    H            1.570161153580    -2.391220484071     1.289643876311

  Mulliken Charges: (a.u.)
   Center  Symbol    Alpha    Beta     Spin     Total
       1     H     0.39417  0.39417  0.00000  0.21167
       2     O     4.20213  4.20213  0.00000 -0.40427
       3     C     2.97527  2.97527  0.00000  0.04946
       4     C     2.96481  2.96481  0.00000  0.07039
       5     H     0.46715  0.46715  0.00000  0.06570
       6     H     0.45278  0.45278  0.00000  0.09444
       7     O     4.18021  4.18021  0.00000 -0.36042
       8     H     0.48141  0.48141  0.00000  0.03719
       9     H     0.46976  0.46976  0.00000  0.06048
      10     C     3.02717  3.02717  0.00000 -0.05435
      11     H     0.45841  0.45841  0.00000  0.08318
      12     H     0.47192  0.47192  0.00000  0.05616
      13     H     0.45481  0.45481  0.00000  0.09038

   Total alpha = 21.00000, Total beta = 21.00000, Total charge = -0.00000
