  ==> Input File <==

--------------------------------------------------------------------------
set {
	reference rhf
	basis cc-pvtz
}

set_num_threads( 4 )
memory 2 gb

molecule MOL {
0 1

H	 2.646708	 0.758099	 0.000000
O	 2.258158	 -0.097743	 0.000000
C	 0.911162	 -0.015915	 0.000000
C	 0.328927	 0.962085	 0.789506
C	 0.117952	 -0.863484	 -0.750244
H	 0.959796	 1.610601	 1.364772
C	 -1.043459	 1.083072	 0.821011
H	 0.569662	 -1.622523	 -1.362999
C	 -1.258656	 -0.730446	 -0.708860
H	 -1.489147	 1.842810	 1.434657
C	 -1.848854	 0.239722	 0.073680
H	 -1.867295	 -1.392842	 -1.294621
H	 -2.916078	 0.339961	 0.103335

	symmetry c1
}
set optking {
	frozen_dihedral = ("
		4 3 2 1
	")
}

ee = optimize('scf')
oeprop('DIPOLE', 'QUADRUPOLE', 'MULLIKEN_CHARGES')
f=open( 'psi4out.xyz', 'w' )
f.write( "13  " )
f.write( str(ee) + "\n" )
f.write( MOL.save_string_xyz() )
f.close()
--------------------------------------------------------------------------

    Molecular point group: c1
  Charge       = 0
  Multiplicity = 1
  Basis Set: CC-PVTZ
  Basis Set:
  @DF-RHF Final Energy:  -305.66705154133768
    Total Energy =                       -305.6670515413375711
    Molecular point group: c1
  Basis Set: CC-PVTZ
  Basis Set:
  Basis Set: CC-PVTZ
  Basis Set:
  @DF-RHF Final Energy:  -305.66861817217767
    Total Energy =                       -305.6686181721777302
  Basis Set: CC-PVTZ
  Basis Set:
  Basis Set: CC-PVTZ
  Basis Set:
  @DF-RHF Final Energy:  -305.66873048200961
    Total Energy =                       -305.6687304820098916
  Basis Set: CC-PVTZ
  Basis Set:
  Basis Set: CC-PVTZ
  Basis Set:
  @DF-RHF Final Energy:  -305.66874403339659
    Total Energy =                       -305.6687440333967061
  Basis Set: CC-PVTZ
  Basis Set:
  Charge       = 0
  Multiplicity = 1
  Basis Set: CC-PVTZ
  Basis Set:

    Orbital Energies (a.u.)
    -----------------------

    Doubly Occupied:

       1A    -20.579373     2A    -11.294059     3A    -11.234662
       4A    -11.233211     5A    -11.226240     6A    -11.221914
       7A    -11.221827     8A     -1.408482     9A     -1.152909
      10A     -1.022546    11A     -1.008402    12A     -0.846773
      13A     -0.827168    14A     -0.740345    15A     -0.686829
      16A     -0.653298    17A     -0.622046    18A     -0.598911
      19A     -0.591778    20A     -0.547037    21A     -0.517324
      22A     -0.495761    23A     -0.480468    24A     -0.342598
      25A     -0.320023

  @DF-RHF Final Energy:  -305.66874742615204

   => Energetics <=

    Nuclear Repulsion Energy =            273.6333849132336695
    One-Electron Energy =                -956.8562892112566942
    Two-Electron Energy =                 377.5541568718709868
    DFT Exchange-Correlation Energy =       0.0000000000000000
    Empirical Dispersion Energy =           0.0000000000000000
    PCM Polarization Energy =               0.0000000000000000
    EFP Energy =                            0.0000000000000000
    Total Energy =                       -305.6687474261519810
    Molecular point group: c1
  Basis Set: CC-PVTZ
  Basis Set:

  -Total Gradient:
     Atom            X                  Y                   Z
    ------   -----------------  -----------------  -----------------
       1       -0.000095975505     0.000073021545    -0.002546896314
       2        0.000026598447    -0.000780491266     0.003913204754
       3       -0.000017156236     0.001820524684    -0.002815466970
       4       -0.000029149676    -0.001238031971     0.001441679228
       5        0.000175857502     0.000015735759    -0.000030059643
       6       -0.000066012271    -0.000004900857    -0.000025189876
       7        0.000069900307     0.000049847979    -0.000029803983
       8        0.000083808727     0.000018210217     0.000015677537
       9       -0.000151434104     0.000100606123     0.000045548848
      10       -0.000051478031    -0.000007563580     0.000013835690
      11        0.000020758587    -0.000112837514    -0.000060665611
      12        0.000032297645     0.000006757021     0.000016664124
      13        0.000001984609     0.000059121859     0.000061472219

  **** Optimization is complete! (in 5 steps) ****
    Final optimized geometry and variables:
    Molecular point group: c1

    Geometry (in Angstrom), charge = 0, multiplicity = 1:

    H            2.693335302774     0.592835513563    -0.049353810173
    O            2.251693284768    -0.237085967448    -0.064615814283
    C            0.905800333509    -0.067942388752    -0.031528260068
    C            0.313319298784     0.894120628869     0.765867200857
    C            0.123696660200    -0.930045489229    -0.777013943016
    H            0.925492328507     1.545563857584     1.361494300699
    C           -1.064010065782     1.005611455668     0.795740075383
    H            0.602025217137    -1.675056302183    -1.381828365432
    C           -1.251598272402    -0.818192507612    -0.728819281861
    H           -1.518596541174     1.757799275679     1.412115943343
    C           -1.854209553441     0.151160174585     0.052134083477
    H           -1.854758863515    -1.489942187330    -1.309476403108
    H           -2.922880157157     0.236852126984     0.083106114103

  Mulliken Charges: (a.u.)
   Center  Symbol    Alpha    Beta     Spin     Total
       1     H     0.38588  0.38588  0.00000  0.22823
       2     O     4.18285  4.18285  0.00000 -0.36569
       3     C     2.86229  2.86229  0.00000  0.27542
       4     C     3.12570  3.12570  0.00000 -0.25139
       5     C     3.10923  3.10923  0.00000 -0.21846
       6     H     0.42757  0.42757  0.00000  0.14487
       7     C     3.06645  3.06645  0.00000 -0.13289
       8     H     0.41766  0.41766  0.00000  0.16467
       9     C     3.06051  3.06051  0.00000 -0.12101
      10     H     0.42227  0.42227  0.00000  0.15546
      11     C     3.09381  3.09381  0.00000 -0.18762
      12     H     0.42217  0.42217  0.00000  0.15566
      13     H     0.42362  0.42362  0.00000  0.15276

   Total alpha = 25.00000, Total beta = 25.00000, Total charge = -0.00000
