                              Psi4 1.0.54 Driver

  ==> Input File <==

--------------------------------------------------------------------------
set {
	reference rhf
	basis cc-pvtz
}

set_num_threads( 4 )
memory 2 gb

molecule MOL {
0 1

O	 -2.081319	 -0.951530	 -0.502732
N	 -1.613558	 0.006676	 0.014756
C	 -0.329345	 -0.171618	 0.743966
O	 -2.068523	 1.100482	 -0.024385
C	 0.835904	 0.041968	 -0.213982
H	 -0.346048	 -1.174374	 1.137184
H	 -0.333613	 0.555559	 1.538590
C	 1.706893	 1.216977	 0.222937
H	 1.428961	 -0.864240	 -0.254317
H	 0.445123	 0.220244	 -1.209093
C	 2.877580	 1.457153	 -0.723788
H	 2.083866	 1.033941	 1.224849
H	 1.098915	 2.114974	 0.280995
H	 3.522415	 0.587029	 -0.776415
H	 2.530117	 1.673853	 -1.727793
H	 3.477873	 2.295516	 -0.392190

	symmetry c1
}
set optking {
	frozen_dihedral = ("
		9 5 3 2
	")
}

ee,wfn = optimize('scf', return_wfn=True)
oeprop( wfn, 'DIPOLE', 'QUADRUPOLE', 'MULLIKEN_CHARGES')
f=open( 'psi4out.xyz', 'w' )
f.write( "16  " )
f.write( str(ee) + "\n" )
f.write( MOL.save_string_xyz() )
f.close()
--------------------------------------------------------------------------

    Molecular point group: c1
  Charge       = 0
  Multiplicity = 1
  Basis Set: CC-PVTZ
  Basis Set:
  @DF-RHF Final Energy:  -360.90386884753570
    Total Energy =                       -360.9038688475355912
    Molecular point group: c1
  Basis Set: CC-PVTZ
  Basis Set:
  Basis Set: CC-PVTZ
  Basis Set:
  @DF-RHF Final Energy:  -360.90114825996869
    Total Energy =                       -360.9011482599685223
  Basis Set: CC-PVTZ
  Basis Set:
  Basis Set: CC-PVTZ
  Basis Set:
  @DF-RHF Final Energy:  -360.89621612879461
    Total Energy =                       -360.8962161287944923
  Basis Set: CC-PVTZ
  Basis Set:
  Basis Set: CC-PVTZ
  Basis Set:
  @DF-RHF Final Energy:  -360.90414021647507
    Total Energy =                       -360.9041402164749570
  Basis Set: CC-PVTZ
  Basis Set:
  @DF-RHF Final Energy:  -360.90424957714538
    Total Energy =                       -360.9042495771452081
  @DF-RHF Final Energy:  -360.90433626061548
    Total Energy =                       -360.9043362606152527
  @DF-RHF Final Energy:  -360.90434587396936
    Total Energy =                       -360.9043458739690777
  @DF-RHF Final Energy:  -360.90435030348294
    Total Energy =                       -360.9043503034832838
  Basis Set: CC-PVTZ
  Basis Set:
  @DF-RHF Final Energy:  -360.90435338507586
    Total Energy =                       -360.9043533850761492
  Basis Set: CC-PVTZ
  Basis Set:
  Basis Set: CC-PVTZ
  Basis Set:
  @DF-RHF Final Energy:  -360.90435933460651
    Total Energy =                       -360.9043593346069656
  Basis Set: CC-PVTZ
  Basis Set:
  Basis Set: CC-PVTZ
  Basis Set:
  @DF-RHF Final Energy:  -360.90436253483745
    Total Energy =                       -360.9043625348373325
  Basis Set: CC-PVTZ
  Basis Set:
  Charge       = 0
  Multiplicity = 1
  Basis Set: CC-PVTZ
  Basis Set:

    Orbital Energies (a.u.)
    -----------------------

    Doubly Occupied:

       1A    -20.591745     2A    -20.588226     3A    -15.836447
       4A    -11.296618     5A    -11.251548     6A    -11.237022
       7A    -11.223051     8A     -1.635598     9A     -1.419785
      10A     -1.133458    11A     -1.058182    12A     -0.947669
      13A     -0.845755    14A     -0.826995    15A     -0.761880
      16A     -0.736552    17A     -0.727678    18A     -0.660432
      19A     -0.628828    20A     -0.604692    21A     -0.560111
      22A     -0.551675    23A     -0.510850    24A     -0.500488
      25A     -0.496442    26A     -0.480167    27A     -0.470795
      28A     -0.453615

  @DF-RHF Final Energy:  -360.90436313990153

   => Energetics <=

    Nuclear Repulsion Energy =            315.0944359242043902
    One-Electron Energy =               -1115.9249940663548841
    Two-Electron Energy =                 439.9261950022491874
    DFT Exchange-Correlation Energy =       0.0000000000000000
    Empirical Dispersion Energy =           0.0000000000000000
    PCM Polarization Energy =               0.0000000000000000
    EFP Energy =                            0.0000000000000000
    Total Energy =                       -360.9043631399013066
    Molecular point group: c1
  Basis Set: CC-PVTZ
  Basis Set:

  -Total Gradient:
     Atom            X                  Y                   Z
    ------   -----------------  -----------------  -----------------
       1        0.000046947214     0.000042951074     0.000021068013
       2       -0.000032191226    -0.000513617841    -0.000135396999
       3       -0.000145357290     0.000585321982     0.000078391205
       4        0.000012780386     0.000003619208     0.000005753546
       5        0.000477092308     0.000100765282     0.000556820865
       6        0.000010482797    -0.000001045973    -0.000012155387
       7       -0.000001937025     0.000001827501    -0.000008708577
       8        0.000011669708    -0.000000663217     0.000010287753
       9       -0.000355886865    -0.000210656725    -0.000511289032
      10       -0.000012780384    -0.000001064865     0.000001127825
      11       -0.000011253315    -0.000006024213     0.000002118830
      12       -0.000003928984     0.000000958218     0.000004689752
      13       -0.000001120539    -0.000008984530    -0.000008801950
      14       -0.000001847030     0.000001815106     0.000000028140
      15        0.000003614679     0.000002053295    -0.000002907406
      16        0.000003715565     0.000002745701    -0.000001026577

  **** Optimization is complete! (in 12 steps) ****
    Final optimized geometry and variables:
    Molecular point group: c1

    Geometry (in Angstrom), charge = 0, multiplicity = 1:

    O           -2.076910963131    -1.352728625614    -0.235631050148
    N           -1.489391723908    -0.382786932432     0.105921170427
    C           -0.197994311321    -0.573277865831     0.818206090522
    O           -1.832119247398     0.735123437376    -0.095426839178
    C            0.980050943711    -0.326775652851    -0.141882702769
    H           -0.219767610690    -1.578717843621     1.198405754141
    H           -0.210395785194     0.136725882346     1.628639817045
    C            1.859401547494     0.847047095555     0.280403997913
    H            1.571322147987    -1.232095297748    -0.201724952313
    H            0.597095484942    -0.148516728637    -1.139136983731
    C            3.029404922174     1.072347976901    -0.669512566175
    H            2.236220132736     0.670347467896     1.284128576838
    H            1.249851917641     1.743095745421     0.330568032309
    H            3.669673792939     0.198072121317    -0.718885788466
    H            2.681166098356     1.285415941270    -1.674170998775
    H            3.636114829564     1.908965700521    -0.345218004501

  Mulliken Charges: (a.u.)
   Center  Symbol    Alpha    Beta     Spin     Total
       1     O     4.16970  4.16970  0.00000 -0.33941
       2     N     3.27785  3.27785  0.00000  0.44429
       3     C     3.04659  3.04659  0.00000 -0.09318
       4     O     4.17608  4.17608  0.00000 -0.35217
       5     C     3.09550  3.09550  0.00000 -0.19100
       6     H     0.42836  0.42836  0.00000  0.14329
       7     H     0.43577  0.43577  0.00000  0.12846
       8     C     3.09022  3.09022  0.00000 -0.18044
       9     H     0.44247  0.44247  0.00000  0.11506
      10     H     0.44063  0.44063  0.00000  0.11875
      11     C     3.15042  3.15042  0.00000 -0.30085
      12     H     0.45258  0.45258  0.00000  0.09484
      13     H     0.44314  0.44314  0.00000  0.11371
      14     H     0.45440  0.45440  0.00000  0.09119
      15     H     0.45117  0.45117  0.00000  0.09766
      16     H     0.44511  0.44511  0.00000  0.10978

   Total alpha = 28.00000, Total beta = 28.00000, Total charge = -0.00000

*** Psi4 exiting successfully. Buy a developer a beer!
