  ==> Input File <==

--------------------------------------------------------------------------
set {
	reference rhf
	basis cc-pvtz
}

set_num_threads( 4 )
memory 2 gb

molecule MOL {
0 1

H	 -0.000342	 -0.223902	 -3.352295
C	 -0.027146	 0.371068	 -2.446756
C	 0.024493	 -0.518541	 -1.216015
H	 -0.932586	 0.964979	 -2.449855
H	 0.819708	 1.049865	 -2.473332
N	 -0.042516	 0.263377	 -0.000000
H	 -0.822211	 -1.197105	 -1.225584
H	 0.921114	 -1.142847	 -1.255206
C	 0.024493	 -0.518541	 1.216015
H	 0.682568	 0.950412	 -0.000000
C	 -0.339626	 -1.970998	 0.957987
H	 1.039730	 -0.462985	 1.595032
H	 -0.620765	 -0.115181	 2.000978
H	 0.319487	 -2.402869	 0.215276
H	 -0.263890	 -2.553719	 1.868706
H	 -1.358741	 -2.059067	 0.594281

	symmetry c1
}
set optking {
	frozen_dihedral = ("
		12 9 6 3
	")
}

ee = optimize('scf')
oeprop('DIPOLE', 'QUADRUPOLE', 'MULLIKEN_CHARGES')
f=open( 'psi4out.xyz', 'w' )
f.write( "16  " )
f.write( str(ee) + "\n" )
f.write( MOL.save_string_xyz() )
f.close()
--------------------------------------------------------------------------

    Molecular point group: c1
  Charge       = 0
  Multiplicity = 1
  Basis Set: CC-PVTZ
  Basis Set:
  @DF-RHF Final Energy:  -212.37785742959761
    Total Energy =                       -212.3778574295974977
    Molecular point group: c1
  Basis Set: CC-PVTZ
  Basis Set:
  Basis Set: CC-PVTZ
  Basis Set:
  @DF-RHF Final Energy:  -212.37852982992572
    Total Energy =                       -212.3785298299256965
  Basis Set: CC-PVTZ
  Basis Set:
  Basis Set: CC-PVTZ
  Basis Set:
  @DF-RHF Final Energy:  -212.38389122374440
    Total Energy =                       -212.3838912237441718
  Basis Set: CC-PVTZ
  Basis Set:
  Basis Set: CC-PVTZ
  Basis Set:
  @DF-RHF Final Energy:  -212.38532484670858
    Total Energy =                       -212.3853248467086132
  Basis Set: CC-PVTZ
  Basis Set:
  Basis Set: CC-PVTZ
  Basis Set:
  @DF-RHF Final Energy:  -212.38551214321856
    Total Energy =                       -212.3855121432184205
  Basis Set: CC-PVTZ
  Basis Set:
  Basis Set: CC-PVTZ
  Basis Set:
  @DF-RHF Final Energy:  -212.38555140316782
    Total Energy =                       -212.3855514031678808
  Basis Set: CC-PVTZ
  Basis Set:
  Basis Set: CC-PVTZ
  Basis Set:
  @DF-RHF Final Energy:  -212.38555358546481
    Total Energy =                       -212.3855535854651180
  Basis Set: CC-PVTZ
  Basis Set:
  Charge       = 0
  Multiplicity = 1
  Basis Set: CC-PVTZ
  Basis Set:

    Orbital Energies (a.u.)
    -----------------------

    Doubly Occupied:

       1A    -15.523509     2A    -11.239618     3A    -11.237784
       4A    -11.208728     5A    -11.205315     6A     -1.198721
       7A     -1.025244     8A     -0.970020     9A     -0.854050
      10A     -0.792371    11A     -0.662417    12A     -0.627421
      13A     -0.609978    14A     -0.593728    15A     -0.538481
      16A     -0.516513    17A     -0.512612    18A     -0.494392
      19A     -0.483849    20A     -0.478312    21A     -0.347906

  @DF-RHF Final Energy:  -212.38555392971659

   => Energetics <=

    Nuclear Repulsion Energy =            191.8946487594506607
    One-Electron Energy =                -666.3184734240862781
    Two-Electron Energy =                 262.0382707349190810
    DFT Exchange-Correlation Energy =       0.0000000000000000
    Empirical Dispersion Energy =           0.0000000000000000
    PCM Polarization Energy =               0.0000000000000000
    EFP Energy =                            0.0000000000000000
    Total Energy =                       -212.3855539297165365
    Molecular point group: c1
  Basis Set: CC-PVTZ
  Basis Set:

  -Total Gradient:
     Atom            X                  Y                   Z
    ------   -----------------  -----------------  -----------------
       1       -0.000003657740     0.000002990248     0.000002435713
       2        0.000011920978    -0.000006939387     0.000002906543
       3       -0.004389692544    -0.000514248560    -0.000035644527
       4       -0.000002312706    -0.000001439632    -0.000000775930
       5        0.000001507596     0.000001990804    -0.000002361908
       6        0.006155046551     0.002015305755     0.000783981015
       7       -0.000017373303    -0.000013218041     0.000002084611
       8       -0.000004183675     0.000006940995     0.000000382670
       9       -0.000290079081    -0.005947852296    -0.003501402391
      10        0.000018826647    -0.000007048523    -0.000013061552
      11        0.000021274634    -0.000009448344     0.000004201616
      12       -0.001489000624     0.004474662357     0.002767069702
      13       -0.000001292062    -0.000002311526    -0.000000205142
      14       -0.000005870796    -0.000000753701     0.000009943053
      15       -0.000003731826    -0.000000966659    -0.000005150259
      16       -0.000001382050     0.000002336508    -0.000014403212

  **** Optimization is complete! (in 8 steps) ****
    Final optimized geometry and variables:
    Molecular point group: c1

    Geometry (in Angstrom), charge = 0, multiplicity = 1:

    H            0.057869007979     0.453301160595    -3.110349625951
    C            0.018477037588     0.967697603443    -2.157100833509
    C            0.121335415836    -0.022054013910    -1.007566991941
    H           -0.910186561080     1.521919459710    -2.100265028532
    H            0.837067076611     1.680578280718    -2.133705186921
    N            0.034453362814     0.673735207049     0.258074711773
    H           -0.695180294130    -0.728106231497    -1.079212805516
    H            1.043614182139    -0.598213744367    -1.119787048280
    C            0.114953018638    -0.074644008859     1.507478028467
    H            0.665226471617     1.443306479236     0.277037835270
    C           -0.318855286330    -1.529721006390     1.426222528562
    H            1.113555661017    -0.010932742313     1.940300678460
    H           -0.531507079829     0.421373682800     2.225976667469
    H            0.322001799863    -2.118030712096     0.781902961342
    H           -0.281379495847    -1.966244263441     2.417212731636
    H           -1.336681420343    -1.616781157901     1.065196076874

  Mulliken Charges: (a.u.)
   Center  Symbol    Alpha    Beta     Spin     Total
       1     H     0.45400  0.45400  0.00000  0.09200
       2     C     3.14474  3.14474  0.00000 -0.28948
       3     C     3.02076  3.02076  0.00000 -0.04152
       4     H     0.45001  0.45001  0.00000  0.09998
       5     H     0.45967  0.45967  0.00000  0.08067
       6     N     3.64475  3.64475  0.00000 -0.28951
       7     H     0.45648  0.45648  0.00000  0.08703
       8     H     0.47350  0.47350  0.00000  0.05299
       9     C     3.01919  3.01919  0.00000 -0.03838
      10     H     0.44096  0.44096  0.00000  0.11809
      11     C     3.16090  3.16090  0.00000 -0.32181
      12     H     0.46848  0.46848  0.00000  0.06304
      13     H     0.46005  0.46005  0.00000  0.07989
      14     H     0.45111  0.45111  0.00000  0.09779
      15     H     0.44550  0.44550  0.00000  0.10901
      16     H     0.44990  0.44990  0.00000  0.10020

   Total alpha = 21.00000, Total beta = 21.00000, Total charge =  0.00000
