  ==> Input File <==

--------------------------------------------------------------------------
set {
	reference rhf
	basis 6-31G*
}

set_num_threads( 4 )
memory 2 gb

molecule MOL {
0 1

H	 -4.058955	 1.011149	 -0.973379
O	 -3.452007	 0.283848	 -0.965577
C	 -3.181085	 -0.079926	 0.364119
C	 -1.765924	 0.277073	 0.805136
H	 -3.327791	 -1.152017	 0.410903
H	 -3.905698	 0.375695	 1.036898
C	 -0.677594	 -0.417312	 -0.014550
H	 -1.637766	 1.358238	 0.744969
H	 -1.659588	 0.017670	 1.857098
C	 0.738335	 -0.034840	 0.421385
H	 -0.814977	 -0.178223	 -1.064632
H	 -0.802730	 -1.495410	 0.071702
C	 1.822265	 -0.738362	 -0.399735
H	 0.853533	 1.043532	 0.342250
H	 0.871597	 -0.279636	 1.474438
C	 3.258060	 -0.455774	 0.057203
H	 1.718003	 -0.459167	 -1.447053
H	 1.651028	 -1.811884	 -0.354513
C	 3.709143	 0.994797	 -0.123830
H	 3.930637	 -1.101717	 -0.501982
H	 3.365259	 -0.739518	 1.102287
H	 3.601178	 1.310569	 -1.158127
H	 4.753787	 1.110486	 0.148516
H	 3.135362	 1.678896	 0.492569

	symmetry c1
}
set optking {
	frozen_dihedral = ("
		1 2 3 5
	")
}

ee = optimize('scf')
oeprop('DIPOLE', 'QUADRUPOLE', 'MULLIKEN_CHARGES')
f=open( 'psi4out.xyz', 'w' )
f.write( "24  " )
f.write( str(ee) + "\n" )
f.write( MOL.save_string_xyz() )
f.close()
--------------------------------------------------------------------------

    Molecular point group: c1
  Charge       = 0
  Multiplicity = 1
  Basis Set: 6-31G*
  Basis Set:
  @DF-RHF Final Energy:  -349.24551899939451
    Total Energy =                       -349.2455189993942213
    Molecular point group: c1
  Basis Set: 6-31G*
  Basis Set:
  Basis Set: 6-31G*
  Basis Set:
  @DF-RHF Final Energy:  -349.24576608087801
    Total Energy =                       -349.2457660808778428
  Basis Set: 6-31G*
  Basis Set:
  Basis Set: 6-31G*
  Basis Set:
  @DF-RHF Final Energy:  -349.24585386679740
    Total Energy =                       -349.2458538667979155
  Basis Set: 6-31G*
  Basis Set:
  Charge       = 0
  Multiplicity = 1
  Basis Set: 6-31G*
  Basis Set:

    Orbital Energies (a.u.)
    -----------------------

    Doubly Occupied:

       1A    -20.551698     2A    -11.268210     3A    -11.212111
       4A    -11.211809     5A    -11.209086     6A    -11.208487
       7A    -11.206520     8A    -11.205199     9A     -1.358055
      10A     -1.085325    11A     -1.045875    12A     -0.983753
      13A     -0.912467    14A     -0.845694    15A     -0.793705
      16A     -0.773339    17A     -0.694957    18A     -0.650160
      19A     -0.624394    20A     -0.612459    21A     -0.584519
      22A     -0.579877    23A     -0.556942    24A     -0.536439
      25A     -0.519068    26A     -0.503783    27A     -0.493921
      28A     -0.477958    29A     -0.466960    30A     -0.453897
      31A     -0.451390    32A     -0.440428    33A     -0.420229

  @DF-RHF Final Energy:  -349.24585435822456

   => Energetics <=

    Nuclear Repulsion Energy =            384.3388055769627840
    One-Electron Energy =               -1235.2918853413975739
    Two-Electron Energy =                 501.7072254062103411
    DFT Exchange-Correlation Energy =       0.0000000000000000
    Empirical Dispersion Energy =           0.0000000000000000
    PCM Polarization Energy =               0.0000000000000000
    EFP Energy =                            0.0000000000000000
    Total Energy =                       -349.2458543582243919
    Molecular point group: c1
  Basis Set: 6-31G*
  Basis Set:

  -Total Gradient:
     Atom            X                  Y                   Z
    ------   -----------------  -----------------  -----------------
       1       -0.000927727489    -0.000779408312    -0.000100341181
       2        0.000791761879     0.001166492914     0.000288665405
       3        0.001089614443    -0.000641879038    -0.000417390232
       4        0.000051456157     0.000163943909    -0.000070286998
       5       -0.001026480118     0.000089171082     0.000277358741
       6        0.000012269160     0.000032635310    -0.000077478348
       7       -0.000015850552    -0.000009364885    -0.000022720280
       8        0.000078665966     0.000004600905    -0.000004991714
       9       -0.000021182727     0.000007013242     0.000032659017
      10       -0.000024014801     0.000009095523     0.000039710099
      11        0.000001583964    -0.000027867172     0.000055609316
      12        0.000005238088    -0.000017187812    -0.000007033414
      13       -0.000020055906    -0.000013069780    -0.000003832758
      14        0.000015504770     0.000022910908     0.000011819350
      15        0.000014309504    -0.000004187917    -0.000003178185
      16       -0.000001073489     0.000003343614    -0.000007379639
      17        0.000000611181    -0.000013506771    -0.000003705390
      18       -0.000006715905     0.000002914346     0.000008647080
      19       -0.000008507645     0.000000372050     0.000006959210
      20       -0.000002157898     0.000007513376    -0.000007205100
      21        0.000005508730    -0.000008944347    -0.000003040968
      22        0.000002988590    -0.000003489326     0.000002076577
      23        0.000000737898     0.000003648399     0.000004370134
      24       -0.000016483795     0.000005249780     0.000000709282

  **** Optimization is complete! (in 4 steps) ****
    Final optimized geometry and variables:
    Molecular point group: c1

    Geometry (in Angstrom), charge = 0, multiplicity = 1:

    H           -4.005930637347     1.036594065124    -0.994612917743
    O           -3.413457648158     0.301322042932    -0.969943671173
    C           -3.176053482164    -0.084348686959     0.364571535666
    C           -1.764451515214     0.273787864857     0.808957353428
    H           -3.333340080910    -1.156278776906     0.430491774649
    H           -3.900041808215     0.381881870862     1.028406367895
    C           -0.677845295393    -0.423156185830    -0.010400727865
    H           -1.640370994091     1.352723769241     0.740636433383
    H           -1.658408369305     0.011447083199     1.860817384284
    C            0.738058873250    -0.038615228442     0.423679661660
    H           -0.817525427945    -0.182317772967    -1.059460901466
    H           -0.801374607024    -1.501627874713     0.077872761574
    C            1.822008574008    -0.738972254657    -0.400062038741
    H            0.850398060737     1.039918795998     0.344895625494
    H            0.873987072427    -0.284134972275     1.476378846805
    C            3.258204755612    -0.451479666687     0.052539830628
    H            1.713748436896    -0.460578983011    -1.447114909510
    H            1.654576576776    -1.813161777218    -0.353987333138
    C            3.702919294028     1.001110584381    -0.128034564378
    H            3.931653551316    -1.094029796462    -0.509556306509
    H            3.369856902078    -0.736032675358     1.096993858358
    H            3.590932084311     1.317517951578    -1.161678460794
    H            4.747823579739     1.120887039308     0.141816499805
    H            3.127604024803     1.682060713768     0.490335327557

  Mulliken Charges: (a.u.)
   Center  Symbol    Alpha    Beta     Spin     Total
       1     H     0.27967  0.27967  0.00000  0.44065
       2     O     4.37179  4.37179  0.00000 -0.74358
       3     C     3.00126  3.00126  0.00000 -0.00253
       4     C     3.15698  3.15698  0.00000 -0.31395
       5     H     0.42102  0.42102  0.00000  0.15796
       6     H     0.42913  0.42913  0.00000  0.14174
       7     C     3.15442  3.15442  0.00000 -0.30884
       8     H     0.42401  0.42401  0.00000  0.15197
       9     H     0.42603  0.42603  0.00000  0.14793
      10     C     3.15363  3.15363  0.00000 -0.30726
      11     H     0.40822  0.40822  0.00000  0.18355
      12     H     0.42553  0.42553  0.00000  0.14894
      13     C     3.15215  3.15215  0.00000 -0.30429
      14     H     0.42226  0.42226  0.00000  0.15547
      15     H     0.42636  0.42636  0.00000  0.14728
      16     C     3.15214  3.15214  0.00000 -0.30428
      17     H     0.42343  0.42343  0.00000  0.15313
      18     H     0.42267  0.42267  0.00000  0.15465
      19     C     3.24092  3.24092  0.00000 -0.48184
      20     H     0.42154  0.42154  0.00000  0.15691
      21     H     0.42415  0.42415  0.00000  0.15171
      22     H     0.42221  0.42221  0.00000  0.15558
      23     H     0.42006  0.42006  0.00000  0.15988
      24     H     0.42040  0.42040  0.00000  0.15921

   Total alpha = 33.00000, Total beta = 33.00000, Total charge =  0.00000
