  ==> Input File <==

--------------------------------------------------------------------------
set {
	reference rhf
	basis 6-31G*
}

set_num_threads( 1 )
memory 2 gb

molecule MOL {
0 1

H	 -2.798360	 -0.862255	 -0.071053
N	 -1.863561	 -0.715187	 0.256814
C	 -1.344686	 0.554728	 -0.219830
H	 -1.300452	 -1.461917	 -0.101532
C	 0.081427	 0.741154	 0.254071
H	 -1.362155	 0.656231	 -1.305829
H	 -1.952773	 1.354456	 0.191809
O	 0.874168	 -0.245412	 -0.342030
H	 0.444037	 1.730782	 -0.023037
H	 0.121165	 0.653424	 1.337565
C	 0.163956	 -1.346523	 -0.811842
H	 0.875935	 -2.035222	 -1.245982
H	 -0.366587	 -1.851146	 -0.006322
H	 -0.557941	 -1.058607	 -1.573274

	symmetry c1
}
set optking {
	frozen_dihedral = ("
		8 5 3 6,
		6 3 2 4,
		5 8 11 13
	")
}

ee = energy('scf')
oeprop('DIPOLE', 'QUADRUPOLE', 'MULLIKEN_CHARGES')
f=open( 'psi4out.xyz', 'w' )
f.write( "14  " )
f.write( str(ee) + "\n" )
f.write( MOL.save_string_xyz() )
f.close()
--------------------------------------------------------------------------

    Molecular point group: c1

    Geometry (in Angstrom), charge = 0, multiplicity = 1:

       Center              X                  Y                   Z               Mass
    ------------   -----------------  -----------------  -----------------  -----------------
           H         -2.368670924899    -0.629872341365     0.115780758819     1.007825032070
           N         -1.433871924899    -0.482804341365     0.443647758819    14.003074004780
           C         -0.914996924899     0.787110658635    -0.032996241181    12.000000000000
           H         -0.870762924899    -1.229534341365     0.085301758819     1.007825032070
           C          0.511116075101     0.973536658635     0.440904758819    12.000000000000
           H         -0.932465924899     0.888613658635    -1.118995241181     1.007825032070
           H         -1.523083924899     1.586838658635     0.378642758819     1.007825032070
           O          1.303857075101    -0.013029341365    -0.155196241181    15.994914619560
           H          0.873726075101     1.963164658635     0.163796758819     1.007825032070
           H          0.550854075101     0.885806658635     1.524398758819     1.007825032070
           C          0.593645075101    -1.114140341365    -0.625008241181    12.000000000000
           H          1.305624075101    -1.802839341365    -1.059148241181     1.007825032070
           H          0.063102075101    -1.618763341365     0.180511758819     1.007825032070
           H         -0.128251924899    -0.826224341365    -1.386440241181     1.007825032070

  Charge       = 0
  Multiplicity = 1
  Basis Set: 6-31G*
  Basis Set:

    Orbital Energies (a.u.)
    -----------------------

    Doubly Occupied:

       1A    -20.559691     2A    -15.518883     3A    -11.270401
       4A    -11.267706     5A    -11.246106     6A     -1.389723
       7A     -1.194081     8A     -1.020901     9A     -0.921129
      10A     -0.841750    11A     -0.718309    12A     -0.691839
      13A     -0.642574    14A     -0.616691    15A     -0.592720
      16A     -0.556396    17A     -0.548101    18A     -0.511340
      19A     -0.435848    20A     -0.414000    21A     -0.384479

  @DF-RHF Final Energy:  -248.02132908752930

   => Energetics <=

    Nuclear Repulsion Energy =            207.2661884577502747
    One-Electron Energy =                -747.8896824996895702
    Two-Electron Energy =                 292.6021649544103411
    DFT Exchange-Correlation Energy =       0.0000000000000000
    Empirical Dispersion Energy =           0.0000000000000000
    PCM Polarization Energy =               0.0000000000000000
    EFP Energy =                            0.0000000000000000
    Total Energy =                       -248.0213290875288976

  Mulliken Charges: (a.u.)
   Center  Symbol    Alpha    Beta     Spin     Total
       1     H     0.33658  0.33658  0.00000  0.32684
       2     N     3.93002  3.93002  0.00000 -0.86003
       3     C     3.10888  3.10888  0.00000 -0.21775
       4     H     0.32115  0.32115  0.00000  0.35770
       5     C     2.97944  2.97944  0.00000  0.04113
       6     H     0.42447  0.42447  0.00000  0.15106
       7     H     0.41090  0.41090  0.00000  0.17819
       8     O     4.30638  4.30638  0.00000 -0.61276
       9     H     0.41933  0.41933  0.00000  0.16135
      10     H     0.41760  0.41760  0.00000  0.16479
      11     C     3.10673  3.10673  0.00000 -0.21347
      12     H     0.40862  0.40862  0.00000  0.18276
      13     H     0.41217  0.41217  0.00000  0.17567
      14     H     0.41773  0.41773  0.00000  0.16453

   Total alpha = 21.00000, Total beta = 21.00000, Total charge = -0.00000
