  ==> Input File <==

--------------------------------------------------------------------------
set {
	reference rhf
	basis 6-31G*
}

set_num_threads( 4 )
memory 2 gb

molecule MOL {
0 1

H	 -2.132985	 0.811997	 -2.413163
C	 -2.846019	 1.281517	 -1.724138
C	 -2.660244	 0.921717	 -0.272021
O	 -3.685732	 2.012058	 -2.140001
C	 -1.220012	 1.144545	 0.209990
H	 -3.369977	 1.492633	 0.315383
H	 -2.913267	 -0.132797	 -0.168896
C	 -0.252658	 0.041456	 -0.226725
H	 -0.873521	 2.100229	 -0.171974
H	 -1.211708	 1.231594	 1.295398
C	 1.180775	 0.282413	 0.250794
H	 -0.266029	 -0.034465	 -1.312038
H	 -0.597733	 -0.921000	 0.146291
C	 2.148627	 -0.814315	 -0.201312
H	 1.516199	 1.249228	 -0.115937
H	 1.192670	 0.346017	 1.338083
C	 3.580890	 -0.659131	 0.322722
H	 2.166869	 -0.852443	 -1.289387
H	 1.762857	 -1.776509	 0.128956
C	 4.324889	 0.564933	 -0.213704
H	 4.142010	 -1.551473	 0.056605
H	 3.564836	 -0.624694	 1.410140
H	 4.342616	 0.565491	 -1.300421
H	 3.866655	 1.493402	 0.110242
H	 5.353900	 0.572371	 0.132816

	symmetry c1
}
set optking {
	frozen_dihedral = ("
		6 3 5 8
	")
}

ee = optimize('scf')
oeprop('DIPOLE', 'QUADRUPOLE', 'MULLIKEN_CHARGES')
f=open( 'psi4out.xyz', 'w' )
f.write( "25  " )
f.write( str(ee) + "\n" )
f.write( MOL.save_string_xyz() )
f.close()
--------------------------------------------------------------------------

    Molecular point group: c1
  Charge       = 0
  Multiplicity = 1
  Basis Set: 6-31G*
  Basis Set:
  @DF-RHF Final Energy:  -387.11972948207995
    Total Energy =                       -387.1197294820793786
    Molecular point group: c1
  Basis Set: 6-31G*
  Basis Set:
  Basis Set: 6-31G*
  Basis Set:
  @DF-RHF Final Energy:  -387.12006583601806
    Total Energy =                       -387.1200658360181706
  Basis Set: 6-31G*
  Basis Set:
  Basis Set: 6-31G*
  Basis Set:
  @DF-RHF Final Energy:  -387.11980301572305
    Total Energy =                       -387.1198030157229368
  Basis Set: 6-31G*
  Basis Set:
  Basis Set: 6-31G*
  Basis Set:
  @DF-RHF Final Energy:  -387.12010863043821
    Total Energy =                       -387.1201086304382670
  Basis Set: 6-31G*
  Basis Set:
  @DF-RHF Final Energy:  -387.12010179852388
    Total Energy =                       -387.1201017985239332
  @DF-RHF Final Energy:  -387.12011694255028
    Total Energy =                       -387.1201169425499984
  @DF-RHF Final Energy:  -387.12011248851985
    Total Energy =                       -387.1201124885199079
  Basis Set: 6-31G*
  Basis Set:
  @DF-RHF Final Energy:  -387.12012121292395
    Total Energy =                       -387.1201212129244595
  Basis Set: 6-31G*
  Basis Set:
  Basis Set: 6-31G*
  Basis Set:
  @DF-RHF Final Energy:  -387.12012411860252
    Total Energy =                       -387.1201241186026891
  Basis Set: 6-31G*
  Basis Set:
  Basis Set: 6-31G*
  Basis Set:
  @DF-RHF Final Energy:  -387.12012514010820
    Total Energy =                       -387.1201251401081436
  Basis Set: 6-31G*
  Basis Set:
  Charge       = 0
  Multiplicity = 1
  Basis Set: 6-31G*
  Basis Set:

    Orbital Energies (a.u.)
    -----------------------

    Doubly Occupied:

       1A    -20.561111     2A    -11.325528     3A    -11.235458
       4A    -11.234461     5A    -11.228317     6A    -11.222406
       7A    -11.220438     8A    -11.219854     9A    -11.212290
      10A     -1.400977    11A     -1.105426    12A     -1.070539
      13A     -1.014575    14A     -0.943888    15A     -0.876896
      16A     -0.825181    17A     -0.785961    18A     -0.784010
      19A     -0.672177    20A     -0.661128    21A     -0.633221
      22A     -0.619292    23A     -0.610597    24A     -0.587738
      25A     -0.571458    26A     -0.561686    27A     -0.539979
      28A     -0.520510    29A     -0.509910    30A     -0.504486
      31A     -0.484717    32A     -0.481662    33A     -0.467330
      34A     -0.461507    35A     -0.445585    36A     -0.407638

  @DF-RHF Final Energy:  -387.12012524117762

   => Energetics <=

    Nuclear Repulsion Energy =            435.6945497834522598
    One-Electron Energy =               -1387.6134807880271183
    Two-Electron Energy =                 564.7988057633979224
    DFT Exchange-Correlation Energy =       0.0000000000000000
    Empirical Dispersion Energy =           0.0000000000000000
    PCM Polarization Energy =               0.0000000000000000
    EFP Energy =                            0.0000000000000000
    Total Energy =                       -387.1201252411769929
    Molecular point group: c1
  Basis Set: 6-31G*
  Basis Set:

  -Total Gradient:
     Atom            X                  Y                   Z
    ------   -----------------  -----------------  -----------------
       1       -0.000000877463    -0.000003907728     0.000000957315
       2       -0.000007261231     0.000000680454     0.000000381069
       3        0.000059466522     0.000776340368    -0.000527372191
       4        0.000001466058     0.000002313106     0.000001060724
       5        0.000157378697     0.000303983865    -0.000658235611
       6       -0.000083534778    -0.000730188515     0.000603291483
       7       -0.000002961427    -0.000003854166    -0.000000407403
       8       -0.000126255267    -0.000342364847     0.000573407909
       9        0.000005423860    -0.000000093208     0.000001598730
      10       -0.000000886174    -0.000000697409    -0.000000630258
      11       -0.000004294937    -0.000001742482     0.000004885371
      12       -0.000005469503     0.000002691953    -0.000000135998
      13        0.000007429331     0.000001200481     0.000002635400
      14       -0.000001068378    -0.000001493221    -0.000005044222
      15       -0.000002450015    -0.000002409639    -0.000000371216
      16       -0.000001415090     0.000003610887     0.000001651750
      17        0.000001082499     0.000000434808     0.000003504638
      18        0.000000399307    -0.000003640197    -0.000000152828
      19       -0.000001179281     0.000000670697    -0.000001032212
      20        0.000000000877    -0.000002701966    -0.000001239633
      21        0.000004454216     0.000003796970    -0.000000475437
      22        0.000000688249    -0.000001948113     0.000000452199
      23       -0.000001377490    -0.000000337845     0.000001096079
      24        0.000000565841    -0.000000734990     0.000000682299
      25        0.000000675588     0.000000390732    -0.000000507955

  **** Optimization is complete! (in 11 steps) ****
    Final optimized geometry and variables:
    Molecular point group: c1

    Geometry (in Angstrom), charge = 0, multiplicity = 1:

    H           -2.216992778826     0.379114298534    -1.981915165578
    C           -2.952772817853     0.757173777925    -1.264183835346
    C           -2.718031791349     0.392193937460     0.180120053679
    O           -3.869935224721     1.410564856643    -1.645413100655
    C           -1.265801995856     0.609267632708     0.639288205899
    H           -3.411859172727     0.969012405108     0.779888543623
    H           -2.983697772045    -0.657395126202     0.302690450221
    C           -0.293803260381    -0.489512958271     0.198942173390
    H           -0.913639343876     1.577618585821     0.289300762168
    H           -1.260331937218     0.663925858989     1.724028588191
    C            1.137333973106    -0.245370550815     0.682233430101
    H           -0.290841817055    -0.578295526942    -0.885675832173
    H           -0.645982931285    -1.446000078350     0.580599331571
    C            2.105778154956    -1.351461535159     0.254729225709
    H            1.478272574435     0.715036166371     0.304571230153
    H            1.139742413142    -0.166076031248     1.768275639766
    C            3.532509514030    -1.195704784460     0.793493782659
    H            2.137481999854    -1.402192648520    -0.832563918347
    H            1.712329033469    -2.308397328738     0.591511727782
    C            4.286330440420     0.021350950206     0.254310775307
    H            4.093734621839    -2.092393076003     0.542850512268
    H            3.503260122593    -1.150780340589     1.880273735788
    H            4.320190994732     0.009726523722    -0.831839522114
    H            3.825482554670     0.954368127722     0.561231443747
    H            5.310015024370     0.030853422279     0.615485442609

  Mulliken Charges: (a.u.)
   Center  Symbol    Alpha    Beta     Spin     Total
       1     H     0.43059  0.43059  0.00000  0.13882
       2     C     2.82998  2.82998  0.00000  0.34003
       3     C     3.21107  3.21107  0.00000 -0.42214
       4     O     4.23908  4.23908  0.00000 -0.47816
       5     C     3.16707  3.16707  0.00000 -0.33413
       6     H     0.39708  0.39708  0.00000  0.20585
       7     H     0.40703  0.40703  0.00000  0.18593
       8     C     3.15593  3.15593  0.00000 -0.31186
       9     H     0.41505  0.41505  0.00000  0.16989
      10     H     0.41191  0.41191  0.00000  0.17619
      11     C     3.15417  3.15417  0.00000 -0.30834
      12     H     0.42220  0.42220  0.00000  0.15560
      13     H     0.42082  0.42082  0.00000  0.15837
      14     C     3.15305  3.15305  0.00000 -0.30610
      15     H     0.41971  0.41971  0.00000  0.16059
      16     H     0.42253  0.42253  0.00000  0.15494
      17     C     3.15275  3.15275  0.00000 -0.30550
      18     H     0.42362  0.42362  0.00000  0.15275
      19     H     0.42180  0.42180  0.00000  0.15640
      20     C     3.24158  3.24158  0.00000 -0.48315
      21     H     0.42000  0.42000  0.00000  0.16000
      22     H     0.42284  0.42284  0.00000  0.15432
      23     H     0.42185  0.42185  0.00000  0.15631
      24     H     0.42008  0.42008  0.00000  0.15984
      25     H     0.41823  0.41823  0.00000  0.16354

   Total alpha = 36.00000, Total beta = 36.00000, Total charge = -0.00000
