  ==> Input File <==

--------------------------------------------------------------------------
set {
	reference rhf
	basis cc-pvtz
}

set_num_threads( 4 )
memory 2 gb

molecule MOL {
0 1

H	 2.118140	 -3.379204	 1.545493
C	 2.290065	 -2.484968	 0.958219
C	 1.019487	 -1.649691	 0.845997
H	 3.086112	 -1.924430	 1.436909
H	 2.646452	 -2.795272	 -0.018365
C	 1.215950	 -0.382441	 0.027187
H	 0.666306	 -1.373616	 1.833322
H	 0.233492	 -2.249380	 0.393048
N	 0.000002	 0.398953	 -0.040851
H	 1.983328	 0.229206	 0.492147
H	 1.592479	 -0.647179	 -0.965397
C	 -1.215959	 -0.382435	 0.027143
H	 -0.000012	 1.086078	 0.683841
C	 -2.451944	 0.502410	 -0.038737
H	 -1.221867	 -1.069392	 -0.813828
H	 -1.259993	 -0.999709	 0.929424
C	 -3.752217	 -0.292550	 0.005776
H	 -2.407325	 1.093801	 -0.946480
H	 -2.431979	 1.206234	 0.790023
H	 -3.817783	 -0.982946	 -0.828547
H	 -4.612613	 0.364348	 -0.042306
H	 -3.830160	 -0.871666	 0.919868

	symmetry c1
}
set optking {
	frozen_dihedral = ("
		10 6 9 12
	")
}

ee = optimize('scf')
oeprop('DIPOLE', 'QUADRUPOLE', 'MULLIKEN_CHARGES')
f=open( 'psi4out.xyz', 'w' )
f.write( "22  " )
f.write( str(ee) + "\n" )
f.write( MOL.save_string_xyz() )
f.close()
--------------------------------------------------------------------------

    Molecular point group: c1
  Charge       = 0
  Multiplicity = 1
  Basis Set: CC-PVTZ
  Basis Set:
  @DF-RHF Final Energy:  -290.47674653105577
    Total Energy =                       -290.4767465310559373
    Molecular point group: c1
  Basis Set: CC-PVTZ
  Basis Set:
  Basis Set: CC-PVTZ
  Basis Set:
  @DF-RHF Final Energy:  -290.47730999345583
    Total Energy =                       -290.4773099934557195
  Basis Set: CC-PVTZ
  Basis Set:
  Basis Set: CC-PVTZ
  Basis Set:
  @DF-RHF Final Energy:  -290.48192732107776
    Total Energy =                       -290.4819273210774782
  Basis Set: CC-PVTZ
  Basis Set:
  Basis Set: CC-PVTZ
  Basis Set:
  @DF-RHF Final Energy:  -290.48283336997741
    Total Energy =                       -290.4828333699778113
  Basis Set: CC-PVTZ
  Basis Set:
  Basis Set: CC-PVTZ
  Basis Set:
  @DF-RHF Final Energy:  -290.48296010290113
    Total Energy =                       -290.4829601029008472
  Basis Set: CC-PVTZ
  Basis Set:
  Basis Set: CC-PVTZ
  Basis Set:
  @DF-RHF Final Energy:  -290.48299512996266
    Total Energy =                       -290.4829951299627737
  Basis Set: CC-PVTZ
  Basis Set:
  Basis Set: CC-PVTZ
  Basis Set:
  @DF-RHF Final Energy:  -290.48299938233191
    Total Energy =                       -290.4829993823317977
  Basis Set: CC-PVTZ
  Basis Set:
  Charge       = 0
  Multiplicity = 1
  Basis Set: CC-PVTZ
  Basis Set:

    Orbital Energies (a.u.)
    -----------------------

    Doubly Occupied:

       1A    -15.526221     2A    -11.237248     3A    -11.235253
       4A    -11.211828     5A    -11.210341     6A    -11.208494
       7A    -11.206731     8A     -1.201561     9A     -1.057685
      10A     -1.028317    11A     -0.930081    12A     -0.874151
      13A     -0.813127    14A     -0.785318    15A     -0.670475
      16A     -0.628982    17A     -0.618804    18A     -0.606861
      19A     -0.576204    20A     -0.557444    21A     -0.540227
      22A     -0.528329    23A     -0.502218    24A     -0.493674
      25A     -0.483388    26A     -0.471732    27A     -0.463064
      28A     -0.461315    29A     -0.354079

  @DF-RHF Final Energy:  -290.48300054810204

   => Energetics <=

    Nuclear Repulsion Energy =            318.2825150023944616
    One-Electron Energy =               -1022.5647192280478066
    Two-Electron Energy =                 413.7992036775510769
    DFT Exchange-Correlation Energy =       0.0000000000000000
    Empirical Dispersion Energy =           0.0000000000000000
    PCM Polarization Energy =               0.0000000000000000
    EFP Energy =                            0.0000000000000000
    Total Energy =                       -290.4830005481022681
    Molecular point group: c1
  Basis Set: CC-PVTZ
  Basis Set:

  -Total Gradient:
     Atom            X                  Y                   Z
    ------   -----------------  -----------------  -----------------
       1        0.000003900788    -0.000002125491     0.000003125446
       2       -0.000006224761    -0.000000223690     0.000002968930
       3        0.000014059257    -0.000014514445    -0.000000622581
       4       -0.000000814144     0.000000432543    -0.000003617292
       5       -0.000001572051    -0.000000546255     0.000002162071
       6        0.001947794395     0.002787033382    -0.004252801497
       7       -0.000004682205     0.000001477347     0.000002977260
       8       -0.000001304240     0.000004780324    -0.000006407558
       9       -0.000331548355    -0.001037432918    -0.006030017313
      10       -0.001613568206    -0.002133189109     0.005380792040
      11        0.000000532876    -0.000001848945     0.000002024034
      12        0.000008313179     0.000403977324     0.004914938370
      13       -0.000017241185     0.000005383419     0.000000913027
      14        0.000009179885    -0.000004241094     0.000002552557
      15        0.000001201552    -0.000002728339    -0.000009748399
      16       -0.000008576789    -0.000006785896    -0.000003661756
      17        0.000001945416    -0.000003409594    -0.000001700906
      18       -0.000001465374     0.000003858710    -0.000003698230
      19        0.000001014537    -0.000000172931     0.000001243345
      20       -0.000001728994     0.000000208186     0.000000316410
      21        0.000000389050    -0.000000207266    -0.000000398993
      22        0.000000395364     0.000000274740    -0.000001338965

  **** Optimization is complete! (in 8 steps) ****
    Final optimized geometry and variables:
    Molecular point group: c1

    Geometry (in Angstrom), charge = 0, multiplicity = 1:

    H            2.901657119077    -2.735161598861     1.211335488483
    C            2.930354760232    -1.807298145924     0.652316479365
    C            1.557027214055    -1.144153662434     0.613663978661
    H            3.666589903498    -1.162389393494     1.120728463791
    H            3.282858733363    -2.036003392940    -0.347990073331
    C            1.585185618931     0.162168795814    -0.184669301834
    H            1.223252860831    -0.943087066531     1.628000030992
    H            0.841650987381    -1.835919518304     0.183266054693
    N            0.351412964453     0.936272732310    -0.248476814094
    H            2.330599932204     0.792302247644     0.287999337100
    H            1.926937298006    -0.052571452897    -1.193212073267
    C           -0.910495756624     0.226576318028    -0.196049726441
    H            0.359796951938     1.630066745267     0.466897733136
    C           -2.075604363628     1.191204859441    -0.366999452698
    H           -0.932089868009    -0.498658102536    -1.004540022557
    H           -1.047750649213    -0.335447269921     0.727943932312
    C           -3.431362148462     0.494531584506    -0.331373698581
    H           -1.952604054596     1.722548303280    -1.303908877197
    H           -2.035528825945     1.940743205599     0.420108477471
    H           -3.515475393123    -0.239773136942    -1.125677824765
    H           -4.238946535176     1.206435057727    -0.454828768142
    H           -3.587001462126    -0.020051382283     0.611055295121

  Mulliken Charges: (a.u.)
   Center  Symbol    Alpha    Beta     Spin     Total
       1     H     0.44722  0.44722  0.00000  0.10556
       2     C     3.15263  3.15263  0.00000 -0.30526
       3     C     3.09276  3.09276  0.00000 -0.18551
       4     H     0.45519  0.45519  0.00000  0.08963
       5     H     0.45480  0.45480  0.00000  0.09040
       6     C     3.03602  3.03602  0.00000 -0.07204
       7     H     0.45552  0.45552  0.00000  0.08896
       8     H     0.45078  0.45078  0.00000  0.09844
       9     N     3.64191  3.64191  0.00000 -0.28383
      10     H     0.45784  0.45784  0.00000  0.08432
      11     H     0.45389  0.45389  0.00000  0.09221
      12     C     3.02622  3.02622  0.00000 -0.05244
      13     H     0.44482  0.44482  0.00000  0.11037
      14     C     3.08116  3.08116  0.00000 -0.16231
      15     H     0.45922  0.45922  0.00000  0.08157
      16     H     0.46854  0.46854  0.00000  0.06291
      17     C     3.15372  3.15372  0.00000 -0.30743
      18     H     0.44865  0.44865  0.00000  0.10269
      19     H     0.45991  0.45991  0.00000  0.08019
      20     H     0.45494  0.45494  0.00000  0.09011
      21     H     0.44766  0.44766  0.00000  0.10468
      22     H     0.45660  0.45660  0.00000  0.08680

   Total alpha = 29.00000, Total beta = 29.00000, Total charge = -0.00000
