                              Psi4 1.0.54 Driver

  ==> Input File <==

--------------------------------------------------------------------------
set {
	reference rhf
	basis cc-pvtz
}

set_num_threads( 4 )
memory 2 gb

molecule MOL {
0 1

O	 2.307617	 2.229281	 1.666027
C	 1.979813	 1.511622	 2.553506
C	 0.693670	 0.711466	 2.515804
C	 2.833290	 1.348186	 3.790878
C	 -0.134535	 0.907983	 1.253946
H	 0.955988	 -0.336128	 2.645435
H	 0.117749	 0.975582	 3.399865
C	 -1.418789	 0.083509	 1.260814
H	 0.466247	 0.647014	 0.390193
H	 -0.372610	 1.959953	 1.145250
C	 -2.258482	 0.271340	 0.000669
H	 -1.172443	 -0.970104	 1.372564
H	 -2.015300	 0.349106	 2.130810
C	 -3.544441	 -0.550271	 -0.000253
H	 -1.663142	 0.005866	 -0.869507
H	 -2.505899	 1.324114	 -0.111487
C	 -4.804551	 0.308747	 0.000556
H	 -3.553737	 -1.201524	 -0.870151
H	 -3.553831	 -1.203282	 0.868313
H	 -4.842050	 0.949078	 -0.874436
H	 -5.698404	 -0.304480	 -0.000254
H	 -4.842277	 0.947103	 0.876982
H	 3.117361	 0.308958	 3.914798
H	 3.718618	 1.959563	 3.708395
H	 2.271832	 1.635929	 4.672927

	symmetry c1
}
set optking {
	frozen_dihedral = ("
		15 11 14 18
	")
}

ee,wfn = optimize('scf', return_wfn=True)
oeprop( wfn, 'DIPOLE', 'QUADRUPOLE', 'MULLIKEN_CHARGES')
f=open( 'psi4out.xyz', 'w' )
f.write( "25  " )
f.write( str(ee) + "\n" )
f.write( MOL.save_string_xyz() )
f.close()
--------------------------------------------------------------------------

    Molecular point group: c1
  Charge       = 0
  Multiplicity = 1
  Basis Set: CC-PVTZ
  Basis Set:
  @DF-RHF Final Energy:  -387.26882306444890
    Total Energy =                       -387.2688230644486111
    Molecular point group: c1
  Basis Set: CC-PVTZ
  Basis Set:
  Basis Set: CC-PVTZ
  Basis Set:
  @DF-RHF Final Energy:  -387.26906896928796
    Total Energy =                       -387.2690689692879005
  Basis Set: CC-PVTZ
  Basis Set:
  Basis Set: CC-PVTZ
  Basis Set:
  @DF-RHF Final Energy:  -387.26913791522554
    Total Energy =                       -387.2691379152252011
  Basis Set: CC-PVTZ
  Basis Set:
  Basis Set: CC-PVTZ
  Basis Set:
  @DF-RHF Final Energy:  -387.26903491279381
    Total Energy =                       -387.2690349127939271
  Basis Set: CC-PVTZ
  Basis Set:
  Basis Set: CC-PVTZ
  Basis Set:
  @DF-RHF Final Energy:  -387.26913940067215
    Total Energy =                       -387.2691394006719747
  Basis Set: CC-PVTZ
  Basis Set:
  Charge       = 0
  Multiplicity = 1
  Basis Set: CC-PVTZ
  Basis Set:

    Orbital Energies (a.u.)
    -----------------------

    Doubly Occupied:

       1A    -20.538927     2A    -11.320562     3A    -11.230271
       4A    -11.226635     5A    -11.215689     6A    -11.214639
       7A    -11.213274     8A    -11.211260     9A    -11.207300
      10A     -1.398962    11A     -1.094305    12A     -1.056067
      13A     -1.015214    14A     -0.969860    15A     -0.891888
      16A     -0.817897    17A     -0.790004    18A     -0.730969
      19A     -0.659665    20A     -0.655136    21A     -0.627551
      22A     -0.624099    23A     -0.604609    24A     -0.588275
      25A     -0.570150    26A     -0.558609    27A     -0.532713
      28A     -0.531166    29A     -0.516553    30A     -0.494491
      31A     -0.485379    32A     -0.479123    33A     -0.464091
      34A     -0.455114    35A     -0.451218    36A     -0.401383

  @DF-RHF Final Energy:  -387.26913953210243

   => Energetics <=

    Nuclear Repulsion Energy =            440.3737872841158492
    One-Electron Energy =               -1397.5997647299459459
    Two-Electron Energy =                 569.9568379137276679
    DFT Exchange-Correlation Energy =       0.0000000000000000
    Empirical Dispersion Energy =           0.0000000000000000
    PCM Polarization Energy =               0.0000000000000000
    EFP Energy =                            0.0000000000000000
    Total Energy =                       -387.2691395321023720
    Molecular point group: c1
  Basis Set: CC-PVTZ
  Basis Set:

  -Total Gradient:
     Atom            X                  Y                   Z
    ------   -----------------  -----------------  -----------------
       1       -0.000003922848     0.000006524577    -0.000044208897
       2       -0.000019746473     0.000011116166     0.000042433922
       3        0.000017572610     0.000011392239    -0.000003207674
       4        0.000004943990    -0.000015752050     0.000007256091
       5        0.000001790493     0.000013107327    -0.000005554406
       6        0.000000439190     0.000003233669    -0.000002897203
       7        0.000005450286     0.000001643654     0.000000314096
       8        0.000003411102    -0.000024880262    -0.000004677333
       9       -0.000001672045    -0.000001037005     0.000004888955
      10        0.000006454802     0.000002088658    -0.000002573828
      11        0.000548720544    -0.000953888328     0.000695956092
      12       -0.000002346258    -0.000002496572    -0.000006509250
      13       -0.000000629270    -0.000005892855    -0.000005766468
      14       -0.000557995716     0.000961348163    -0.000694224491
      15       -0.000390000800     0.000630659318    -0.000461158588
      16       -0.000001819376    -0.000002372163    -0.000000531083
      17       -0.000008850849     0.000006915378     0.000001311990
      18        0.000390121583    -0.000629881518     0.000469908839
      19       -0.000000594750     0.000008436356     0.000000473499
      20        0.000005174289    -0.000003804862     0.000002089274
      21        0.000001391790    -0.000004992361     0.000001126746
      22        0.000003771529    -0.000003325312    -0.000004858583
      23        0.000005690599    -0.000006834667     0.000009124809
      24       -0.000007032243    -0.000001046585    -0.000007603139
      25       -0.000000322173    -0.000000260961     0.000008886632

  **** Optimization is complete! (in 6 steps) ****
    Final optimized geometry and variables:
    Molecular point group: c1

    Geometry (in Angstrom), charge = 0, multiplicity = 1:

    O            2.802387758551     1.458237370869     0.220657313383
    C            2.473094009937     0.738746124301     1.106031937058
    C            1.186576812433    -0.060759760228     1.064836384709
    C            3.324798930482     0.571804831278     2.344268524885
    C            0.360604921372     0.138277018093    -0.198148402381
    H            1.448370378267    -1.108623558828     1.193116928793
    H            0.609415066567     0.202201942377     1.948449461174
    C           -0.923817604657    -0.685026892064    -0.195197360617
    H            0.962621885267    -0.121860485969    -1.061410865715
    H            0.123592814959     1.190626740793    -0.305919070194
    C           -1.760965824758    -0.497080903073    -1.458182154561
    H           -0.679980894071    -1.739129853539    -0.083247144604
    H           -1.524173267398    -0.419600912615     0.672677325209
    C           -3.079004825001    -1.298338909440    -1.453406523130
    H           -1.163999385645    -0.768928014289    -2.322668994140
    H           -1.980997481496     0.559971014533    -1.576263795065
    C           -4.327353264054    -0.421082576402    -1.438467211916
    H           -3.115315518131    -1.955190171779    -2.315607990735
    H           -3.100435399239    -1.952385845218    -0.587013905315
    H           -4.371846408640     0.209195754011    -2.320214991804
    H           -5.230311987457    -1.020756906442    -1.413298443934
    H           -4.336899463625     0.228993633112    -0.569428065937
    H            3.607828509279    -0.467945156319     2.466146822909
    H            4.210809293834     1.182595844355     2.264425876720
    H            2.762341955056     0.858072333932     3.226175101182

  Mulliken Charges: (a.u.)
   Center  Symbol    Alpha    Beta     Spin     Total
       1     O     4.17075  4.17075  0.00000 -0.34150
       2     C     2.86216  2.86216  0.00000  0.27567
       3     C     3.11356  3.11356  0.00000 -0.22712
       4     C     3.15125  3.15125  0.00000 -0.30250
       5     C     3.08398  3.08398  0.00000 -0.16797
       6     H     0.44558  0.44558  0.00000  0.10884
       7     H     0.44561  0.44561  0.00000  0.10877
       8     C     3.09113  3.09113  0.00000 -0.18226
       9     H     0.44603  0.44603  0.00000  0.10794
      10     H     0.44571  0.44571  0.00000  0.10858
      11     C     3.09521  3.09521  0.00000 -0.19041
      12     H     0.45477  0.45477  0.00000  0.09047
      13     H     0.45537  0.45537  0.00000  0.08927
      14     C     3.09032  3.09032  0.00000 -0.18064
      15     H     0.44784  0.44784  0.00000  0.10433
      16     H     0.45354  0.45354  0.00000  0.09291
      17     C     3.14689  3.14689  0.00000 -0.29378
      18     H     0.44903  0.44903  0.00000  0.10193
      19     H     0.45557  0.45557  0.00000  0.08886
      20     H     0.45402  0.45402  0.00000  0.09197
      21     H     0.44977  0.44977  0.00000  0.10046
      22     H     0.45579  0.45579  0.00000  0.08842
      23     H     0.45039  0.45039  0.00000  0.09922
      24     H     0.43536  0.43536  0.00000  0.12927
      25     H     0.45037  0.45037  0.00000  0.09926

   Total alpha = 36.00000, Total beta = 36.00000, Total charge = -0.00000

*** Psi4 exiting successfully. Buy a developer a beer!
