                              Psi4 1.0.54 Driver

  ==> Input File <==

--------------------------------------------------------------------------
set {
	reference rhf
	basis cc-pvtz
}

set_num_threads( 4 )
memory 2 gb

molecule MOL {
0 1

H	 2.403746	 -3.209894	 -1.614286
C	 2.450327	 -2.397294	 -0.899011
C	 1.192367	 -1.538109	 -0.962178
H	 2.577986	 -2.832727	 0.086453
H	 3.338388	 -1.814411	 -1.119497
C	 1.215950	 -0.382441	 0.027187
H	 0.315794	 -2.145352	 -0.765607
H	 1.075966	 -1.144057	 -1.969030
N	 0.000002	 0.398953	 -0.040851
H	 1.307222	 -0.775608	 1.035284
H	 2.108051	 0.226290	 -0.147983
C	 -1.215959	 -0.382435	 0.027143
H	 -0.000012	 1.086078	 0.683841
C	 -2.451944	 0.502410	 -0.038737
H	 -1.221867	 -1.069392	 -0.813828
H	 -1.259993	 -0.999709	 0.929424
C	 -3.752217	 -0.292550	 0.005776
H	 -2.407325	 1.093801	 -0.946480
H	 -2.431979	 1.206234	 0.790023
H	 -3.817783	 -0.982946	 -0.828547
H	 -4.612613	 0.364348	 -0.042306
H	 -3.830160	 -0.871666	 0.919868

	symmetry c1
}
set optking {
	frozen_dihedral = ("
		10 6 9 12
	")
}

ee,wfn = optimize('scf', return_wfn=True)
oeprop( wfn, 'DIPOLE', 'QUADRUPOLE', 'MULLIKEN_CHARGES')
f=open( 'psi4out.xyz', 'w' )
f.write( "22  " )
f.write( str(ee) + "\n" )
f.write( MOL.save_string_xyz() )
f.close()
--------------------------------------------------------------------------

    Molecular point group: c1
  Charge       = 0
  Multiplicity = 1
  Basis Set: CC-PVTZ
  Basis Set:
  @DF-RHF Final Energy:  -290.48136619890511
    Total Energy =                       -290.4813661989047660
    Molecular point group: c1
  Basis Set: CC-PVTZ
  Basis Set:
  Basis Set: CC-PVTZ
  Basis Set:
  @DF-RHF Final Energy:  -290.35548481937042
    Total Energy =                       -290.3554848193703037
  Basis Set: CC-PVTZ
  Basis Set:
  Basis Set: CC-PVTZ
  Basis Set:
  @DF-RHF Final Energy:  -290.45435619778777
    Total Energy =                       -290.4543561977879449
  Basis Set: CC-PVTZ
  Basis Set:
  Basis Set: CC-PVTZ
  Basis Set:
  @DF-RHF Final Energy:  -290.48478027824245
    Total Energy =                       -290.4847802782426811
  Basis Set: CC-PVTZ
  Basis Set:
  Basis Set: CC-PVTZ
  Basis Set:
  @DF-RHF Final Energy:  -290.48629898456306
    Total Energy =                       -290.4862989845631205
  Basis Set: CC-PVTZ
  Basis Set:
  Basis Set: CC-PVTZ
  Basis Set:
  @DF-RHF Final Energy:  -290.48635610097881
    Total Energy =                       -290.4863561009790374
  Basis Set: CC-PVTZ
  Basis Set:
  Basis Set: CC-PVTZ
  Basis Set:
  @DF-RHF Final Energy:  -290.48636565496145
    Total Energy =                       -290.4863656549615598
  Basis Set: CC-PVTZ
  Basis Set:
  Charge       = 0
  Multiplicity = 1
  Basis Set: CC-PVTZ
  Basis Set:

    Orbital Energies (a.u.)
    -----------------------

    Doubly Occupied:

       1A    -15.526588     2A    -11.236648     3A    -11.235181
       4A    -11.212401     5A    -11.210977     6A    -11.207756
       7A    -11.207111     8A     -1.204048     9A     -1.058369
      10A     -1.028575    11A     -0.929697    12A     -0.874916
      13A     -0.812946    14A     -0.782730    15A     -0.659762
      16A     -0.640251    17A     -0.622631    18A     -0.610609
      19A     -0.572523    20A     -0.553570    21A     -0.552210
      22A     -0.526465    23A     -0.504185    24A     -0.487594
      25A     -0.479400    26A     -0.472172    27A     -0.461379
      28A     -0.460342    29A     -0.356608

  @DF-RHF Final Energy:  -290.48636652496981

   => Energetics <=

    Nuclear Repulsion Energy =            318.2847037734017590
    One-Electron Energy =               -1022.5668465420119446
    Two-Electron Energy =                 413.7957762436404892
    DFT Exchange-Correlation Energy =       0.0000000000000000
    Empirical Dispersion Energy =           0.0000000000000000
    PCM Polarization Energy =               0.0000000000000000
    EFP Energy =                            0.0000000000000000
    Total Energy =                       -290.4863665249696396
    Molecular point group: c1
  Basis Set: CC-PVTZ
  Basis Set:

  -Total Gradient:
     Atom            X                  Y                   Z
    ------   -----------------  -----------------  -----------------
       1        0.000012433270     0.000045527059     0.000010066271
       2        0.000006349401    -0.000002768041    -0.000058312518
       3       -0.000014977370    -0.000021025657     0.000083848451
       4       -0.000009165096     0.000008340675    -0.000019712924
       5       -0.000022855740    -0.000009886292     0.000025242740
       6       -0.004005070863    -0.004223702956    -0.001493961576
       7        0.000003066538     0.000005861558    -0.000009126653
       8        0.000000567669    -0.000007338684     0.000000401635
       9        0.001107741831     0.002827317916     0.004278430052
      10        0.003046242217     0.002788081625     0.000110891049
      11        0.000016435164     0.000024608524     0.000002802112
      12       -0.000128549811    -0.001447952190    -0.002994688005
      13        0.000018846037    -0.000011940727     0.000005660379
      14       -0.000005857019     0.000020871941     0.000035556967
      15       -0.000006329650     0.000007183859     0.000017491502
      16       -0.000014534075     0.000002345330     0.000024938846
      17        0.000014979347    -0.000024651121    -0.000002435424
      18       -0.000000754005    -0.000003363661    -0.000003689305
      19        0.000001925547     0.000002085603    -0.000006525462
      20       -0.000005011089     0.000002825824     0.000003000857
      21       -0.000014168765     0.000013773919    -0.000003968951
      22       -0.000001313537     0.000003805495    -0.000005910043

  **** Optimization is complete! (in 8 steps) ****
    Final optimized geometry and variables:
    Molecular point group: c1

    Geometry (in Angstrom), charge = 0, multiplicity = 1:

    H            2.153383465990    -3.588455196755    -0.323661264247
    C            2.357715397355    -2.613385036624     0.102358364711
    C            1.244959676810    -1.625461670255    -0.232432738522
    H            2.463088551290    -2.738479551942     1.174981593645
    H            3.312729508413    -2.276409406253    -0.286104416781
    C            1.502054428022    -0.251510163410     0.370556901129
    H            0.301466202425    -2.022984599878     0.124330088197
    H            1.155071520352    -1.521026011609    -1.308984282941
    N            0.577708303499     0.773851696360    -0.076594706246
    H            1.538969779424    -0.326481002917     1.461751788326
    H            2.494545687685     0.068709046769     0.068053242929
    C           -0.833417894668     0.513628268298     0.115176808812
    H            0.823073632786     1.645495591194     0.340152241613
    C           -1.664529021441     1.738362190849    -0.239552685156
    H           -1.130090998029    -0.307361417842    -0.525982400190
    H           -1.064950328779     0.208259100165     1.140898734969
    C           -3.163299071061     1.498736779022    -0.096160127860
    H           -1.430933800692     2.032816748578    -1.256943278736
    H           -1.370463785758     2.568271192351     0.398812907895
    H           -3.495718628852     0.697237945447    -0.747291727519
    H           -3.726555089789     2.387686562217    -0.354541508799
    H           -3.424150791882     1.227197794531     0.921262125390

  Mulliken Charges: (a.u.)
   Center  Symbol    Alpha    Beta     Spin     Total
       1     H     0.44779  0.44779  0.00000  0.10442
       2     C     3.15221  3.15221  0.00000 -0.30442
       3     C     3.08774  3.08774  0.00000 -0.17549
       4     H     0.45584  0.45584  0.00000  0.08832
       5     H     0.45401  0.45401  0.00000  0.09198
       6     C     3.03181  3.03181  0.00000 -0.06362
       7     H     0.45325  0.45325  0.00000  0.09349
       8     H     0.44901  0.44901  0.00000  0.10197
       9     N     3.64129  3.64129  0.00000 -0.28258
      10     H     0.46966  0.46966  0.00000  0.06067
      11     H     0.45628  0.45628  0.00000  0.08745
      12     C     3.02205  3.02205  0.00000 -0.04411
      13     H     0.44314  0.44314  0.00000  0.11371
      14     C     3.08411  3.08411  0.00000 -0.16821
      15     H     0.45728  0.45728  0.00000  0.08545
      16     H     0.47539  0.47539  0.00000  0.04921
      17     C     3.15311  3.15311  0.00000 -0.30621
      18     H     0.44878  0.44878  0.00000  0.10244
      19     H     0.45897  0.45897  0.00000  0.08206
      20     H     0.45476  0.45476  0.00000  0.09048
      21     H     0.44767  0.44767  0.00000  0.10467
      22     H     0.45585  0.45585  0.00000  0.08830

   Total alpha = 29.00000, Total beta = 29.00000, Total charge =  0.00000

*** Psi4 exiting successfully. Buy a developer a beer!
