  ==> Input File <==

--------------------------------------------------------------------------
set {
	reference rhf
	basis 6-31G*
}

set_num_threads( 1 )
memory 2 gb

molecule MOL {
0 1

O	 0.625848	 1.349995	 -0.000749
C	 0.486307	 0.169203	 0.000779
C	 1.608116	 -0.841643	 0.000302
O	 -0.698257	 -0.426125	 0.001050
C	 2.990107	 -0.200498	 -0.000684
H	 1.468623	 -1.481519	 -0.865924
H	 1.469683	 -1.481289	 0.866878
H	 3.129736	 0.423364	 -0.875135
H	 3.757882	 -0.966877	 -0.001197
H	 3.130964	 0.423383	 0.873533
C	 -1.091747	 -1.107602	 1.187707
C	 -2.465249	 -1.694410	 0.939798
H	 -1.099344	 -0.406282	 2.010918
H	 -0.363471	 -1.875138	 1.411521
H	 -3.181786	 -0.913574	 0.711700
H	 -2.805176	 -2.225140	 1.823214
H	 -2.441984	 -2.390542	 0.109066

	symmetry c1
}
set optking {
	frozen_dihedral = ("
		2 4 11 13,
		4 2 3 6
	")
}

ee = energy('scf')
oeprop('DIPOLE', 'QUADRUPOLE', 'MULLIKEN_CHARGES')
f=open( 'psi4out.xyz', 'w' )
f.write( "17  " )
f.write( str(ee) + "\n" )
f.write( MOL.save_string_xyz() )
f.close()
--------------------------------------------------------------------------

    Molecular point group: c1

    Geometry (in Angstrom), charge = 0, multiplicity = 1:

       Center              X                  Y                   Z               Mass
    ------------   -----------------  -----------------  -----------------  -----------------
           O          0.427339866686     1.744839649602    -0.310852492608    15.994914619560
           C          0.287798866686     0.564047649602    -0.309324492608    12.000000000000
           C          1.409607866686    -0.446798350398    -0.309801492608    12.000000000000
           O         -0.896765133314    -0.031280350398    -0.309053492608    15.994914619560
           C          2.791598866686     0.194346649602    -0.310787492608    12.000000000000
           H          1.270114866686    -1.086674350398    -1.176027492608     1.007825032070
           H          1.271174866686    -1.086444350398     0.556774507392     1.007825032070
           H          2.931227866686     0.818208649602    -1.185238492608     1.007825032070
           H          3.559373866686    -0.572032350398    -0.311300492608     1.007825032070
           H          2.932455866686     0.818227649602     0.563429507392     1.007825032070
           C         -1.290255133314    -0.712757350398     0.877603507392    12.000000000000
           C         -2.663757133314    -1.299565350398     0.629694507392    12.000000000000
           H         -1.297852133314    -0.011437350398     1.700814507392     1.007825032070
           H         -0.561979133314    -1.480293350398     1.101417507392     1.007825032070
           H         -3.380294133314    -0.518729350398     0.401596507392     1.007825032070
           H         -3.003684133314    -1.830295350398     1.513110507392     1.007825032070
           H         -2.640492133314    -1.995697350398    -0.201037492608     1.007825032070

  Charge       = 0
  Multiplicity = 1
  Basis Set: 6-31G*
  Basis Set:

    Orbital Energies (a.u.)
    -----------------------

    Doubly Occupied:

       1A    -20.587120     2A    -20.552969     3A    -11.372624
       4A    -11.300706     5A    -11.239391     6A    -11.228632
       7A    -11.217173     8A     -1.462477     9A     -1.367584
      10A     -1.064688    11A     -1.043031    12A     -0.902950
      13A     -0.876274    14A     -0.773029    15A     -0.700517
      16A     -0.688368    17A     -0.658822    18A     -0.639523
      19A     -0.603181    20A     -0.566239    21A     -0.557189
      22A     -0.536306    23A     -0.528957    24A     -0.518863
      25A     -0.508779    26A     -0.482482    27A     -0.453971
      28A     -0.432665

  @DF-RHF Final Energy:  -344.88826878781339

   => Energetics <=

    Nuclear Repulsion Energy =            316.4385700474795726
    One-Electron Energy =               -1096.9245239503895846
    Two-Electron Energy =                 435.5976851150963398
    DFT Exchange-Correlation Energy =       0.0000000000000000
    Empirical Dispersion Energy =           0.0000000000000000
    PCM Polarization Energy =               0.0000000000000000
    EFP Energy =                            0.0000000000000000
    Total Energy =                       -344.8882687878137290

  Mulliken Charges: (a.u.)
   Center  Symbol    Alpha    Beta     Spin     Total
       1     O     4.25875  4.25875  0.00000 -0.51750
       2     C     2.61167  2.61167  0.00000  0.77666
       3     C     3.21676  3.21676  0.00000 -0.43353
       4     O     4.31305  4.31305  0.00000 -0.62609
       5     C     3.23809  3.23809  0.00000 -0.47617
       6     H     0.39903  0.39903  0.00000  0.20194
       7     H     0.40728  0.40728  0.00000  0.18543
       8     H     0.40833  0.40833  0.00000  0.18334
       9     H     0.41930  0.41930  0.00000  0.16140
      10     H     0.41092  0.41092  0.00000  0.17816
      11     C     3.00655  3.00655  0.00000 -0.01311
      12     C     3.24611  3.24611  0.00000 -0.49221
      13     H     0.41153  0.41153  0.00000  0.17695
      14     H     0.42093  0.42093  0.00000  0.15813
      15     H     0.40490  0.40490  0.00000  0.19019
      16     H     0.41714  0.41714  0.00000  0.16572
      17     H     0.40965  0.40965  0.00000  0.18070

   Total alpha = 28.00000, Total beta = 28.00000, Total charge = -0.00000
