  ==> Input File <==

--------------------------------------------------------------------------
set {
	reference rhf
	basis 6-31G*
}

set_num_threads( 1 )
memory 2 gb

molecule MOL {
0 1

O	 2.277506	 2.276513	 -1.675799
C	 1.942731	 1.580404	 -2.584708
C	 0.656051	 0.775050	 -2.556446
C	 2.788166	 1.455099	 -3.835585
C	 -0.152375	 0.939550	 -1.272849
H	 0.063716	 1.062883	 -3.424017
H	 0.913933	 -0.270853	 -2.717649
C	 -1.440286	 0.114338	 -1.281295
H	 -0.387723	 1.989850	 -1.132810
H	 0.463313	 0.654410	 -0.425635
C	 -2.259874	 0.272531	 0.000494
H	 -2.051336	 0.402934	 -2.135330
H	 -1.197107	 -0.937635	 -1.423721
C	 -3.549786	 -0.549746	 -0.000374
H	 -2.504141	 1.323673	 0.143508
H	 -1.650316	 -0.016514	 0.854829
C	 -4.809590	 0.315458	 -0.000369
H	 -3.560515	 -1.202009	 -0.871156
H	 -3.561123	 -1.202955	 0.869711
H	 -4.844746	 0.956611	 -0.876632
H	 -5.706986	 -0.295590	 -0.001609
H	 -4.845960	 0.954827	 0.877144
H	 2.221388	 1.764967	 -4.708720
H	 3.671930	 2.070726	 -3.741780
H	 3.081626	 0.421193	 -3.992280

	symmetry c1
}
set optking {
	frozen_dihedral = ("
		9 5 8 12,
		15 11 8 12,
		1 2 3 6,
		9 5 3 6
	")
}

ee = energy('scf')
oeprop('DIPOLE', 'QUADRUPOLE', 'MULLIKEN_CHARGES')
f=open( 'psi4out.xyz', 'w' )
f.write( "25  " )
f.write( str(ee) + "\n" )
f.write( MOL.save_string_xyz() )
f.close()
--------------------------------------------------------------------------

    Molecular point group: c1

    Geometry (in Angstrom), charge = 0, multiplicity = 1:

       Center              X                  Y                   Z               Mass
    ------------   -----------------  -----------------  -----------------  -----------------
           O          2.788907043251     1.472724883214    -0.207944642718    15.994914619560
           C          2.454132043251     0.776615883214    -1.116853642718    12.000000000000
           C          1.167452043251    -0.028738116786    -1.088591642718    12.000000000000
           C          3.299567043251     0.651310883214    -2.367730642718    12.000000000000
           C          0.359026043251     0.135761883214     0.195005357282    12.000000000000
           H          0.575117043251     0.259094883214    -1.956162642718     1.007825032070
           H          1.425334043251    -1.074641116786    -1.249794642718     1.007825032070
           C         -0.928884956749    -0.689450116786     0.186559357282    12.000000000000
           H          0.123678043251     1.186061883214     0.335044357282     1.007825032070
           H          0.974714043251    -0.149378116786     1.042219357282     1.007825032070
           C         -1.748472956749    -0.531257116786     1.468348357282    12.000000000000
           H         -1.539934956749    -0.400854116786    -0.667475642718     1.007825032070
           H         -0.685705956749    -1.741423116786     0.044133357282     1.007825032070
           C         -3.038384956749    -1.353534116786     1.467480357282    12.000000000000
           H         -1.992739956749     0.519884883214     1.611362357282     1.007825032070
           H         -1.138914956749    -0.820302116786     2.322683357282     1.007825032070
           C         -4.298188956749    -0.488330116786     1.467485357282    12.000000000000
           H         -3.049113956749    -2.005797116786     0.596698357282     1.007825032070
           H         -3.049721956749    -2.006743116786     2.337565357282     1.007825032070
           H         -4.333344956749     0.152822883214     0.591222357282     1.007825032070
           H         -5.195584956749    -1.099378116786     1.466245357282     1.007825032070
           H         -4.334558956749     0.151038883214     2.344998357282     1.007825032070
           H          2.732789043251     0.961178883214    -3.240865642718     1.007825032070
           H          4.183331043251     1.266937883214    -2.273925642718     1.007825032070
           H          3.593027043251    -0.382595116786    -2.524425642718     1.007825032070

  Charge       = 0
  Multiplicity = 1
  Basis Set: 6-31G*
  Basis Set:

    Orbital Energies (a.u.)
    -----------------------

    Doubly Occupied:

       1A    -20.550412     2A    -11.326242     3A    -11.231822
       4A    -11.228319     5A    -11.217341     6A    -11.216246
       7A    -11.213707     8A    -11.211872     9A    -11.208771
      10A     -1.395709    11A     -1.093789    12A     -1.056295
      13A     -1.014097    14A     -0.968353    15A     -0.891811
      16A     -0.816984    17A     -0.788446    18A     -0.729772
      19A     -0.658341    20A     -0.652910    21A     -0.625720
      22A     -0.622333    23A     -0.604575    24A     -0.587903
      25A     -0.569364    26A     -0.557649    27A     -0.531815
      28A     -0.530282    29A     -0.516082    30A     -0.490586
      31A     -0.485064    32A     -0.477896    33A     -0.464804
      34A     -0.453624    35A     -0.449174    36A     -0.399263

  @DF-RHF Final Energy:  -387.13074544104200

   => Energetics <=

    Nuclear Repulsion Energy =            440.2043151010864221
    One-Electron Energy =               -1396.9949757936547030
    Two-Electron Energy =                 569.6599152515250353
    DFT Exchange-Correlation Energy =       0.0000000000000000
    Empirical Dispersion Energy =           0.0000000000000000
    PCM Polarization Energy =               0.0000000000000000
    EFP Energy =                            0.0000000000000000
    Total Energy =                       -387.1307454410432456

  Mulliken Charges: (a.u.)
   Center  Symbol    Alpha    Beta     Spin     Total
       1     O     4.26114  4.26114  0.00000 -0.52228
       2     C     2.73569  2.73569  0.00000  0.52862
       3     C     3.21084  3.21084  0.00000 -0.42169
       4     C     3.28664  3.28664  0.00000 -0.57329
       5     C     3.14855  3.14855  0.00000 -0.29710
       6     H     0.41009  0.41009  0.00000  0.17983
       7     H     0.41008  0.41008  0.00000  0.17984
       8     C     3.15621  3.15621  0.00000 -0.31243
       9     H     0.41209  0.41209  0.00000  0.17582
      10     H     0.41213  0.41213  0.00000  0.17574
      11     C     3.15452  3.15452  0.00000 -0.30904
      12     H     0.42476  0.42476  0.00000  0.15048
      13     H     0.42417  0.42417  0.00000  0.15166
      14     C     3.15467  3.15467  0.00000 -0.30935
      15     H     0.41945  0.41945  0.00000  0.16111
      16     H     0.41983  0.41983  0.00000  0.16035
      17     C     3.24028  3.24028  0.00000 -0.48056
      18     H     0.42104  0.42104  0.00000  0.15793
      19     H     0.42015  0.42015  0.00000  0.15969
      20     H     0.42243  0.42243  0.00000  0.15513
      21     H     0.42063  0.42063  0.00000  0.15873
      22     H     0.42067  0.42067  0.00000  0.15866
      23     H     0.40875  0.40875  0.00000  0.18250
      24     H     0.39647  0.39647  0.00000  0.20707
      25     H     0.40871  0.40871  0.00000  0.18259

   Total alpha = 36.00000, Total beta = 36.00000, Total charge = -0.00000
