  ==> Input File <==

--------------------------------------------------------------------------
set {
	reference rhf
	basis 6-31G*
}

set_num_threads( 1 )
memory 2 gb

molecule MOL {
0 1

H	 1.396590	 -1.006091	 2.171986
O	 0.713728	 -0.449292	 1.826495
C	 1.135793	 0.118896	 0.612333
C	 0.031547	 1.023609	 0.088541
H	 1.340072	 -0.658870	 -0.121316
H	 2.056827	 0.680046	 0.753433
C	 -1.134819	 0.293262	 -0.585751
H	 0.474374	 1.714721	 -0.623187
H	 -0.338529	 1.620940	 0.920081
C	 -1.917817	 -0.639439	 0.339494
H	 -0.758119	 -0.268455	 -1.433105
H	 -1.813832	 1.041889	 -0.986690
H	 -2.777680	 -1.057197	 -0.174994
H	 -1.310268	 -1.471279	 0.680599
H	 -2.283753	 -0.111424	 1.216626

	symmetry c1
}
set optking {
	frozen_dihedral = ("
		8 4 7 11,
		1 2 3 4
	")
}

ee = energy('scf')
oeprop('DIPOLE', 'QUADRUPOLE', 'MULLIKEN_CHARGES')
f=open( 'psi4out.xyz', 'w' )
f.write( "15  " )
f.write( str(ee) + "\n" )
f.write( MOL.save_string_xyz() )
f.close()
--------------------------------------------------------------------------

    Molecular point group: c1

    Geometry (in Angstrom), charge = 0, multiplicity = 1:

       Center              X                  Y                   Z               Mass
    ------------   -----------------  -----------------  -----------------  -----------------
           H          1.602511587903    -1.044669320902     1.671234134621     1.007825032070
           O          0.919649587903    -0.487870320902     1.325743134621    15.994914619560
           C          1.341714587903     0.080317679098     0.111581134621    12.000000000000
           C          0.237468587903     0.985030679098    -0.412210865379    12.000000000000
           H          1.545993587903    -0.697448320902    -0.622067865379     1.007825032070
           H          2.262748587903     0.641467679098     0.252681134621     1.007825032070
           C         -0.928897412097     0.254683679098    -1.086502865379    12.000000000000
           H          0.680295587903     1.676142679098    -1.123938865379     1.007825032070
           H         -0.132607412097     1.582361679098     0.419329134621     1.007825032070
           C         -1.711895412097    -0.678017320902    -0.161257865379    12.000000000000
           H         -0.552197412097    -0.307033320902    -1.933856865379     1.007825032070
           H         -1.607910412097     1.003310679098    -1.487441865379     1.007825032070
           H         -2.571758412097    -1.095775320902    -0.675745865379     1.007825032070
           H         -1.104346412097    -1.509857320902     0.179847134621     1.007825032070
           H         -2.077831412097    -0.150002320902     0.715874134621     1.007825032070

  Charge       = 0
  Multiplicity = 1
  Basis Set: 6-31G*
  Basis Set:

    Orbital Energies (a.u.)
    -----------------------

    Doubly Occupied:

       1A    -20.553482     2A    -11.268251     3A    -11.212107
       4A    -11.211089     5A    -11.195227     6A     -1.360692
       7A     -1.063172     8A     -0.968186     9A     -0.862536
      10A     -0.778672    11A     -0.703809    12A     -0.648055
      13A     -0.604634    14A     -0.573618    15A     -0.551372
      16A     -0.535786    17A     -0.506852    18A     -0.471861
      19A     -0.466582    20A     -0.452526    21A     -0.426826

  @DF-RHF Final Energy:  -232.14183498657559

   => Energetics <=

    Nuclear Repulsion Energy =            193.2873053150944429
    One-Electron Energy =                -698.0275458559840445
    Two-Electron Energy =                 272.5984055543138993
    DFT Exchange-Correlation Energy =       0.0000000000000000
    Empirical Dispersion Energy =           0.0000000000000000
    PCM Polarization Energy =               0.0000000000000000
    EFP Energy =                            0.0000000000000000
    Total Energy =                       -232.1418349865757023

  Mulliken Charges: (a.u.)
   Center  Symbol    Alpha    Beta     Spin     Total
       1     H     0.28126  0.28126  0.00000  0.43748
       2     O     4.36810  4.36810  0.00000 -0.73620
       3     C     2.99870  2.99870  0.00000  0.00260
       4     C     3.16070  3.16070  0.00000 -0.32140
       5     H     0.43251  0.43251  0.00000  0.13497
       6     H     0.42855  0.42855  0.00000  0.14291
       7     C     3.15459  3.15459  0.00000 -0.30918
       8     H     0.42220  0.42220  0.00000  0.15560
       9     H     0.41268  0.41268  0.00000  0.17463
      10     C     3.23427  3.23427  0.00000 -0.46854
      11     H     0.42536  0.42536  0.00000  0.14929
      12     H     0.42166  0.42166  0.00000  0.15669
      13     H     0.42668  0.42668  0.00000  0.14664
      14     H     0.41247  0.41247  0.00000  0.17506
      15     H     0.42027  0.42027  0.00000  0.15945

   Total alpha = 21.00000, Total beta = 21.00000, Total charge =  0.00000
