  ==> Input File <==

--------------------------------------------------------------------------
set {
	reference rhf
	basis 6-31G*
}

set_num_threads( 4 )
memory 2 gb

molecule MOL {
0 1

O	 1.567082	 -0.001076	 -0.937755
C	 0.861134	 0.272526	 -0.014869
C	 -0.623889	 -0.118271	 -0.003699
C	 1.433706	 1.026324	 1.172546
C	 -0.895332	 -1.256461	 -1.002431
C	 -1.473649	 1.103340	 -0.370799
C	 -0.983900	 -0.581483	 1.422328
H	 -0.615301	 -0.972064	 -2.012700
H	 -1.954261	 -1.493213	 -1.010207
H	 -0.360539	 -2.164946	 -0.747760
H	 -1.227476	 1.468527	 -1.361691
H	 -2.526716	 0.838935	 -0.358521
H	 -1.314819	 1.915855	 0.325860
H	 -2.039679	 -0.828001	 1.472951
H	 -0.427637	 -1.464071	 1.720694
H	 -0.789023	 0.202493	 2.147048
H	 1.630905	 0.329744	 1.982083
H	 2.368271	 1.482030	 0.875834
H	 0.759932	 1.784692	 1.552190

	symmetry c1
}
set optking {
	frozen_dihedral = ("
		1 2 3 5
	")
}

ee = optimize('scf')
oeprop('DIPOLE', 'QUADRUPOLE', 'MULLIKEN_CHARGES')
f=open( 'psi4out.xyz', 'w' )
f.write( "19  " )
f.write( str(ee) + "\n" )
f.write( MOL.save_string_xyz() )
f.close()
--------------------------------------------------------------------------

    Molecular point group: c1
  Charge       = 0
  Multiplicity = 1
  Basis Set: 6-31G*
  Basis Set:
  @DF-RHF Final Energy:  -309.06175551317449
    Total Energy =                       -309.0617555131742620
    Molecular point group: c1
  Basis Set: 6-31G*
  Basis Set:
  Basis Set: 6-31G*
  Basis Set:
  @DF-RHF Final Energy:  -309.06120589377298
    Total Energy =                       -309.0612058937729216
  Basis Set: 6-31G*
  Basis Set:
  Basis Set: 6-31G*
  Basis Set:
  @DF-RHF Final Energy:  -309.06157473302625
    Total Energy =                       -309.0615747330263048
  Basis Set: 6-31G*
  Basis Set:
  Basis Set: 6-31G*
  Basis Set:
  @DF-RHF Final Energy:  -309.06290798084308
    Total Energy =                       -309.0629079808433630
  Basis Set: 6-31G*
  Basis Set:
  @DF-RHF Final Energy:  -309.06305276144798
    Total Energy =                       -309.0630527614482617
  Basis Set: 6-31G*
  Basis Set:
  @DF-RHF Final Energy:  -309.06305281241657
    Total Energy =                       -309.0630528124167427
  Basis Set: 6-31G*
  Basis Set:
  Basis Set: 6-31G*
  Basis Set:
  @DF-RHF Final Energy:  -309.06306583378705
    Total Energy =                       -309.0630658337874479
  Basis Set: 6-31G*
  Basis Set:
  Basis Set: 6-31G*
  Basis Set:
  @DF-RHF Final Energy:  -309.06307820841772
    Total Energy =                       -309.0630782084178918
  Basis Set: 6-31G*
  Basis Set:
  Charge       = 0
  Multiplicity = 1
  Basis Set: 6-31G*
  Basis Set:

    Orbital Energies (a.u.)
    -----------------------

    Doubly Occupied:

       1A    -20.548231     2A    -11.322851     3A    -11.246436
       4A    -11.226912     5A    -11.224408     6A    -11.223791
       7A    -11.208746     8A     -1.394591     9A     -1.109588
      10A     -1.002197    11A     -0.946529    12A     -0.935092
      13A     -0.834938    14A     -0.703650    15A     -0.664498
      16A     -0.631680    17A     -0.620334    18A     -0.596085
      19A     -0.591147    20A     -0.565863    21A     -0.546213
      22A     -0.545170    23A     -0.524533    24A     -0.512687
      25A     -0.499196    26A     -0.471575    27A     -0.465352
      28A     -0.392418

  @DF-RHF Final Energy:  -309.06307832337143

   => Energetics <=

    Nuclear Repulsion Energy =            326.3037262881498464
    One-Electron Energy =               -1065.6241821579033058
    Two-Electron Energy =                 430.2573775463821448
    DFT Exchange-Correlation Energy =       0.0000000000000000
    Empirical Dispersion Energy =           0.0000000000000000
    PCM Polarization Energy =               0.0000000000000000
    EFP Energy =                            0.0000000000000000
    Total Energy =                       -309.0630783233713146
    Molecular point group: c1
  Basis Set: 6-31G*
  Basis Set:

  -Total Gradient:
     Atom            X                  Y                   Z
    ------   -----------------  -----------------  -----------------
       1       -0.000117414205     0.000465988334    -0.000216088806
       2        0.000200742825    -0.000750373552     0.000401737248
       3       -0.000156004631     0.000531323953    -0.000449905879
       4       -0.000027390050     0.000046193273    -0.000013449931
       5        0.000073177639    -0.000255608307     0.000265360260
       6        0.000004048751    -0.000004912696     0.000002570311
       7       -0.000000435820    -0.000001744566    -0.000003108253
       8       -0.000002137319     0.000001541531     0.000004399277
       9       -0.000002654449    -0.000002292560     0.000001228123
      10        0.000001724226     0.000002361794     0.000002526346
      11        0.000000761957    -0.000000504823    -0.000001735667
      12        0.000000464300     0.000000221140     0.000000494304
      13        0.000002030766     0.000000439398     0.000001672472
      14       -0.000001564968    -0.000000593208    -0.000000042579
      15        0.000001433904     0.000000302867    -0.000001926284
      16        0.000000168781    -0.000000310066     0.000000509431
      17        0.000006550763    -0.000017203827    -0.000001375739
      18        0.000005318827    -0.000005712646     0.000001957945
      19        0.000011178703    -0.000009116038     0.000005177425

  **** Optimization is complete! (in 9 steps) ****
    Final optimized geometry and variables:
    Molecular point group: c1

    Geometry (in Angstrom), charge = 0, multiplicity = 1:

    O            1.553061909752    -0.050342421948    -1.013730872596
    C            0.877812920977     0.206150753527    -0.063236324673
    C           -0.604345177944    -0.194200454077    -0.011593815062
    C            1.478069196827     0.966178155342     1.105612976463
    C           -0.863038056132    -1.314195309815    -1.026056502074
    C           -1.432864963292     1.048616200998    -0.394406564576
    C           -1.005687165887    -0.671254650559     1.394299991857
    H           -0.597217975688    -1.005391393838    -2.027987762375
    H           -1.913766678521    -1.588099718388    -1.015790929269
    H           -0.281222469726    -2.198508001804    -0.789202270926
    H           -1.166261546850     1.402569900646    -1.384694720280
    H           -2.489398499683     0.800001376288    -0.399744038430
    H           -1.292297565820     1.865530087756     0.306415763729
    H           -2.045128024991    -0.982553046187     1.392601927059
    H           -0.409550084820    -1.522777386789     1.709863580773
    H           -0.901060397220     0.108101368132     2.141049941267
    H            1.655964802530     0.286253911681     1.933406957540
    H            2.422997841250     1.389687110153     0.795095771702
    H            0.824939506698     1.752467697394     1.465794976072

  Mulliken Charges: (a.u.)
   Center  Symbol    Alpha    Beta     Spin     Total
       1     O     4.26456  4.26456  0.00000 -0.52912
       2     C     2.72513  2.72513  0.00000  0.54974
       3     C     3.06839  3.06839  0.00000 -0.13677
       4     C     3.28961  3.28961  0.00000 -0.57923
       5     C     3.22760  3.22760  0.00000 -0.45520
       6     C     3.24098  3.24098  0.00000 -0.48196
       7     C     3.24153  3.24153  0.00000 -0.48306
       8     H     0.40516  0.40516  0.00000  0.18969
       9     H     0.42328  0.42328  0.00000  0.15344
      10     H     0.41634  0.41634  0.00000  0.16732
      11     H     0.40864  0.40864  0.00000  0.18271
      12     H     0.41312  0.41312  0.00000  0.17377
      13     H     0.41874  0.41874  0.00000  0.16253
      14     H     0.41360  0.41360  0.00000  0.17279
      15     H     0.41579  0.41579  0.00000  0.16842
      16     H     0.41728  0.41728  0.00000  0.16545
      17     H     0.40434  0.40434  0.00000  0.19132
      18     H     0.39585  0.39585  0.00000  0.20829
      19     H     0.41006  0.41006  0.00000  0.17988

   Total alpha = 28.00000, Total beta = 28.00000, Total charge =  0.00000
