  ==> Input File <==

--------------------------------------------------------------------------
set {
	reference rhf
	basis cc-pvtz
}

set_num_threads( 4 )
memory 2 gb

molecule MOL {
0 1

H	 1.264729	 0.034781	 2.212818
C	 1.667195	 0.109222	 1.193930
C	 0.692262	 0.592428	 0.156232
O	 2.791915	 -0.185133	 0.979469
C	 -0.554654	 -0.292621	 0.086567
H	 1.199992	 0.633989	 -0.798399
H	 0.401485	 1.604752	 0.429229
C	 -1.846385	 0.513195	 -0.016346
H	 -0.473986	 -0.956115	 -0.769708
H	 -0.597929	 -0.929215	 0.966651
C	 -3.089953	 -0.365049	 -0.098564
H	 -1.798267	 1.154820	 -0.891143
H	 -1.925398	 1.173265	 0.842889
H	 -3.055079	 -1.012299	 -0.968245
H	 -3.988403	 0.236438	 -0.170014
H	 -3.183055	 -0.995885	 0.779079

	symmetry c1
}
set optking {
	frozen_dihedral = ("
		6 3 5 9
	")
}

ee = optimize('scf')
oeprop('DIPOLE', 'QUADRUPOLE', 'MULLIKEN_CHARGES')
f=open( 'psi4out.xyz', 'w' )
f.write( "16  " )
f.write( str(ee) + "\n" )
f.write( MOL.save_string_xyz() )
f.close()
--------------------------------------------------------------------------

    Molecular point group: c1
  Charge       = 0
  Multiplicity = 1
  Basis Set: CC-PVTZ
  Basis Set:
  @DF-RHF Final Energy:  -270.11528473392912
    Total Energy =                       -270.1152847339291156
    Molecular point group: c1
  Basis Set: CC-PVTZ
  Basis Set:
  Basis Set: CC-PVTZ
  Basis Set:
  @DF-RHF Final Energy:  -270.11546761745092
    Total Energy =                       -270.1154676174509177
  Basis Set: CC-PVTZ
  Basis Set:
  Basis Set: CC-PVTZ
  Basis Set:
  @DF-RHF Final Energy:  -270.11381374252073
    Total Energy =                       -270.1138137425207333
  Basis Set: CC-PVTZ
  Basis Set:
  Basis Set: CC-PVTZ
  Basis Set:
  @DF-RHF Final Energy:  -270.11555701594335
    Total Energy =                       -270.1155570159435229
  Basis Set: CC-PVTZ
  Basis Set:
  Basis Set: CC-PVTZ
  Basis Set:
  @DF-RHF Final Energy:  -270.11556937895193
    Total Energy =                       -270.1155693789519887
  Basis Set: CC-PVTZ
  Basis Set:
  Basis Set: CC-PVTZ
  Basis Set:
  @DF-RHF Final Energy:  -270.11557056693636
    Total Energy =                       -270.1155705669366398
  Basis Set: CC-PVTZ
  Basis Set:
  Basis Set: CC-PVTZ
  Basis Set:
  @DF-RHF Final Energy:  -270.11557163375267
    Total Energy =                       -270.1155716337526655
  Basis Set: CC-PVTZ
  Basis Set:
  Charge       = 0
  Multiplicity = 1
  Basis Set: CC-PVTZ
  Basis Set:

    Orbital Energies (a.u.)
    -----------------------

    Doubly Occupied:

       1A    -20.551861     2A    -11.321409     3A    -11.234744
       4A    -11.234051     5A    -11.228034     6A    -11.216972
       7A     -1.407037     8A     -1.096634     9A     -1.019666
      10A     -0.907372    11A     -0.814761    12A     -0.794219
      13A     -0.676056    14A     -0.655179    15A     -0.625845
      16A     -0.606349    17A     -0.582705    18A     -0.556007
      19A     -0.534563    20A     -0.508941    21A     -0.485644
      22A     -0.483278    23A     -0.478521    24A     -0.411688

  @DF-RHF Final Energy:  -270.11557176600212

   => Energetics <=

    Nuclear Repulsion Energy =            229.2914729127515443
    One-Electron Energy =                -819.9510192525872299
    Two-Electron Energy =                 320.5439745738335660
    DFT Exchange-Correlation Energy =       0.0000000000000000
    Empirical Dispersion Energy =           0.0000000000000000
    PCM Polarization Energy =               0.0000000000000000
    EFP Energy =                            0.0000000000000000
    Total Energy =                       -270.1155717660021764
    Molecular point group: c1
  Basis Set: CC-PVTZ
  Basis Set:

  -Total Gradient:
     Atom            X                  Y                   Z
    ------   -----------------  -----------------  -----------------
       1        0.000004610853     0.000008184131     0.000002246642
       2       -0.000006520330    -0.000022103193    -0.000007818175
       3       -0.002643320502     0.003931307865    -0.001567561102
       4       -0.000003712023    -0.000004908766     0.000004234629
       5        0.002315189651    -0.003459565241     0.002578001662
       6        0.001847056368    -0.002675703779     0.000894500421
       7       -0.000010541540    -0.000011278150    -0.000001216486
       8        0.000001770697     0.000002328020     0.000007467131
       9       -0.001501887032     0.002231078180    -0.001905745973
      10       -0.000003977507     0.000003757270    -0.000000028016
      11        0.000001138600    -0.000000125111    -0.000005731752
      12        0.000000361468    -0.000001506729     0.000001761196
      13        0.000000700931    -0.000001316249     0.000000781865
      14       -0.000000859798    -0.000001412162     0.000000150917
      15       -0.000001447020    -0.000000750829    -0.000001406892
      16        0.000001437177     0.000002014743     0.000000363934

  **** Optimization is complete! (in 8 steps) ****
    Final optimized geometry and variables:
    Molecular point group: c1

    Geometry (in Angstrom), charge = 0, multiplicity = 1:

    H            1.360985099335    -0.056495854372     1.818328003016
    C            1.749754704792     0.047245229726     0.796323317934
    C            0.750749818471     0.539547157671    -0.216738165439
    O            2.876154397610    -0.222397332626     0.561269511626
    C           -0.510095146340    -0.345552983836    -0.259476319479
    H            1.253763972239     0.567770271848    -1.173078646004
    H            0.486306541742     1.554505504021     0.067530914358
    C           -1.804688940323     0.455081040532    -0.391896659821
    H           -0.436104274578    -1.019119194223    -1.105569777944
    H           -0.567869165345    -0.964428355408     0.631542324436
    C           -3.042820056201    -0.427645676073    -0.496821823041
    H           -1.739821959756     1.094247545271    -1.268051276526
    H           -1.903756558334     1.118489214700     0.462822037311
    H           -2.989359999318    -1.075512628866    -1.365167349868
    H           -3.942511126460     0.169793143514    -0.585015839487
    H           -3.149294290580    -1.058707022388     0.379242846550

  Mulliken Charges: (a.u.)
   Center  Symbol    Alpha    Beta     Spin     Total
       1     H     0.46733  0.46733  0.00000  0.06533
       2     C     2.90330  2.90330  0.00000  0.19339
       3     C     3.08279  3.08279  0.00000 -0.16557
       4     O     4.16424  4.16424  0.00000 -0.32847
       5     C     3.10195  3.10195  0.00000 -0.20390
       6     H     0.44058  0.44058  0.00000  0.11883
       7     H     0.44891  0.44891  0.00000  0.10217
       8     C     3.08607  3.08607  0.00000 -0.17213
       9     H     0.44442  0.44442  0.00000  0.11117
      10     H     0.45189  0.45189  0.00000  0.09623
      11     C     3.14945  3.14945  0.00000 -0.29891
      12     H     0.45063  0.45063  0.00000  0.09874
      13     H     0.45411  0.45411  0.00000  0.09178
      14     H     0.45343  0.45343  0.00000  0.09314
      15     H     0.44671  0.44671  0.00000  0.10657
      16     H     0.45418  0.45418  0.00000  0.09165

   Total alpha = 24.00000, Total beta = 24.00000, Total charge = -0.00000
