  ==> Input File <==

--------------------------------------------------------------------------
set {
	reference rhf
	basis 6-31G*
}

set_num_threads( 4 )
memory 2 gb

molecule MOL {
0 1

H	 -2.698709	 -0.000305	 0.034435
C	 -1.693833	 0.000034	 0.434417
O	 -0.828952	 -0.000968	 -0.659236
H	 -1.574200	 0.882896	 1.055746
H	 -1.574147	 -0.881698	 1.057355
C	 0.332483	 0.794132	 -0.601031
C	 0.016701	 2.286163	 -0.517105
C	 1.296992	 0.342394	 0.493782
H	 0.806161	 0.608589	 -1.557709
H	 -0.708028	 2.560557	 -1.276068
H	 0.919118	 2.866304	 -0.682381
H	 -0.379207	 2.568526	 0.453303
H	 1.457841	 -0.728646	 0.434978
H	 2.255193	 0.837791	 0.371729
H	 0.931312	 0.580323	 1.487517

	symmetry c1
}
set optking {
	frozen_dihedral = ("
		6 3 2 1
	")
}

ee = optimize('scf')
oeprop('DIPOLE', 'QUADRUPOLE', 'MULLIKEN_CHARGES')
f=open( 'psi4out.xyz', 'w' )
f.write( "15  " )
f.write( str(ee) + "\n" )
f.write( MOL.save_string_xyz() )
f.close()
--------------------------------------------------------------------------

    Molecular point group: c1
  Charge       = 0
  Multiplicity = 1
  Basis Set: 6-31G*
  Basis Set:
  @DF-RHF Final Energy:  -232.13558351085376
    Total Energy =                       -232.1355835108535075
    Molecular point group: c1
  Basis Set: 6-31G*
  Basis Set:
  Basis Set: 6-31G*
  Basis Set:
  @DF-RHF Final Energy:  -232.13519690623934
    Total Energy =                       -232.1351969062393437
  Basis Set: 6-31G*
  Basis Set:
  Basis Set: 6-31G*
  Basis Set:
  @DF-RHF Final Energy:  -232.13599340361984
    Total Energy =                       -232.1359934036198069
  Basis Set: 6-31G*
  Basis Set:
  Basis Set: 6-31G*
  Basis Set:
  @DF-RHF Final Energy:  -232.13605250429617
    Total Energy =                       -232.1360525042959466
  Basis Set: 6-31G*
  Basis Set:
  Basis Set: 6-31G*
  Basis Set:
  @DF-RHF Final Energy:  -232.13605175334911
    Total Energy =                       -232.1360517533489656
  Basis Set: 6-31G*
  Basis Set:
  Basis Set: 6-31G*
  Basis Set:
  @DF-RHF Final Energy:  -232.13605613210234
    Total Energy =                       -232.1360561321022260
  Basis Set: 6-31G*
  Basis Set:
  Charge       = 0
  Multiplicity = 1
  Basis Set: 6-31G*
  Basis Set:

    Orbital Energies (a.u.)
    -----------------------

    Doubly Occupied:

       1A    -20.546392     2A    -11.274810     3A    -11.261464
       4A    -11.211011     5A    -11.209969     6A     -1.368577
       7A     -1.049978     8A     -0.939960     9A     -0.931248
      10A     -0.781546    11A     -0.675376    12A     -0.639285
      13A     -0.632114    14A     -0.569458    15A     -0.563942
      16A     -0.552288    17A     -0.537700    18A     -0.500275
      19A     -0.497752    20A     -0.441961    21A     -0.403833

  @DF-RHF Final Energy:  -232.13605618398810

   => Energetics <=

    Nuclear Repulsion Energy =            198.7035525022581055
    One-Electron Energy =                -708.5013350920767152
    Two-Electron Energy =                 277.6617264058304499
    DFT Exchange-Correlation Energy =       0.0000000000000000
    Empirical Dispersion Energy =           0.0000000000000000
    PCM Polarization Energy =               0.0000000000000000
    EFP Energy =                            0.0000000000000000
    Total Energy =                       -232.1360561839881598
    Molecular point group: c1
  Basis Set: 6-31G*
  Basis Set:

  -Total Gradient:
     Atom            X                  Y                   Z
    ------   -----------------  -----------------  -----------------
       1        0.000032498658     0.001883770489     0.000126460170
       2       -0.000428753779    -0.001707680815    -0.000409208871
       3        0.001215946394    -0.001416810271     0.000808734448
       4       -0.000012277364    -0.000008416073     0.000004714343
       5        0.000002759064    -0.000000837708    -0.000002361168
       6       -0.000797104336     0.001247739186    -0.000538675592
       7       -0.000007363609     0.000008946791     0.000012892738
       8        0.000002261797    -0.000000771852    -0.000001059424
       9        0.000000945692    -0.000006356517    -0.000002788912
      10        0.000000189542     0.000001692343    -0.000001654942
      11       -0.000004168130    -0.000008788157     0.000000603448
      12       -0.000001156634     0.000010920176     0.000001081077
      13       -0.000001110897    -0.000002783696     0.000005027590
      14       -0.000003872519    -0.000002471178    -0.000002845143
      15        0.000001206123     0.000001847282    -0.000000919759

  **** Optimization is complete! (in 7 steps) ****
    Final optimized geometry and variables:
    Molecular point group: c1

    Geometry (in Angstrom), charge = 0, multiplicity = 1:

    H           -2.508793148610    -0.669869762248     0.275130825868
    C           -1.480555409124    -0.710485551096     0.613129501036
    O           -0.652468841784    -0.652098706935    -0.511114459498
    H           -1.326556851968     0.119087817128     1.294005746378
    H           -1.324111475618    -1.634615758917     1.161441534023
    C            0.525990632232     0.116502391196    -0.450836588745
    C            0.234128610957     1.614551356790    -0.391847355175
    C            1.466381708565    -0.346319044362     0.659759943568
    H            1.005965830681    -0.088608270739    -1.400290286784
    H           -0.452281695017     1.891062652695    -1.184454635610
    H            1.151950795974     2.179844159616    -0.521777128335
    H           -0.201330852978     1.913465509400     0.556246504216
    H            1.638479190007    -1.414609457917     0.584567959075
    H            2.423483602380     0.159348144284     0.577958802427
    H            1.066502825773    -0.133994487147     1.646544862176

  Mulliken Charges: (a.u.)
   Center  Symbol    Alpha    Beta     Spin     Total
       1     H     0.41629  0.41629  0.00000  0.16741
       2     C     3.07945  3.07945  0.00000 -0.15890
       3     O     4.31449  4.31449  0.00000 -0.62897
       4     H     0.43032  0.43032  0.00000  0.13936
       5     H     0.42428  0.42428  0.00000  0.15144
       6     C     2.91012  2.91012  0.00000  0.17976
       7     C     3.25005  3.25005  0.00000 -0.50010
       8     C     3.25269  3.25269  0.00000 -0.50537
       9     H     0.41550  0.41550  0.00000  0.16899
      10     H     0.41145  0.41145  0.00000  0.17710
      11     H     0.42055  0.42055  0.00000  0.15891
      12     H     0.42205  0.42205  0.00000  0.15589
      13     H     0.41177  0.41177  0.00000  0.17647
      14     H     0.41924  0.41924  0.00000  0.16152
      15     H     0.42175  0.42175  0.00000  0.15649

   Total alpha = 21.00000, Total beta = 21.00000, Total charge =  0.00000
