                              Psi4 1.0.54 Driver

  ==> Input File <==

--------------------------------------------------------------------------
set {
	reference rhf
	basis cc-pvtz
}

set_num_threads( 4 )
memory 2 gb

molecule MOL {
0 1

H	 2.869278	 0.368361	 0.436643
C	 1.948180	 -0.217873	 0.320185
C	 0.692262	 0.592428	 0.156232
O	 1.993421	 -1.399146	 0.333663
C	 -0.554654	 -0.292621	 0.086567
H	 0.791858	 1.203694	 -0.731051
H	 0.617379	 1.254358	 1.016534
C	 -1.846385	 0.513195	 -0.016346
H	 -0.473986	 -0.956115	 -0.769708
H	 -0.597929	 -0.929215	 0.966651
C	 -3.089953	 -0.365049	 -0.098564
H	 -1.798267	 1.154820	 -0.891143
H	 -1.925398	 1.173265	 0.842889
H	 -3.055079	 -1.012299	 -0.968245
H	 -3.988403	 0.236438	 -0.170014
H	 -3.183055	 -0.995885	 0.779079

	symmetry c1
}
set optking {
	frozen_dihedral = ("
		4 2 3 6
	")
}

ee,wfn = optimize('scf', return_wfn=True)
oeprop( wfn, 'DIPOLE', 'QUADRUPOLE', 'MULLIKEN_CHARGES')
f=open( 'psi4out.xyz', 'w' )
f.write( "16  " )
f.write( str(ee) + "\n" )
f.write( MOL.save_string_xyz() )
f.close()
--------------------------------------------------------------------------

    Molecular point group: c1
  Charge       = 0
  Multiplicity = 1
  Basis Set: CC-PVTZ
  Basis Set:
  @DF-RHF Final Energy:  -270.11964677250177
    Total Energy =                       -270.1196467725017101
    Molecular point group: c1
  Basis Set: CC-PVTZ
  Basis Set:
  Basis Set: CC-PVTZ
  Basis Set:
  @DF-RHF Final Energy:  -270.12022017356662
    Total Energy =                       -270.1202201735667359
  Basis Set: CC-PVTZ
  Basis Set:
  Basis Set: CC-PVTZ
  Basis Set:
  @DF-RHF Final Energy:  -270.11889372087649
    Total Energy =                       -270.1188937208762582
  Basis Set: CC-PVTZ
  Basis Set:
  Basis Set: CC-PVTZ
  Basis Set:
  @DF-RHF Final Energy:  -270.12032621097819
    Total Energy =                       -270.1203262109781917
  Basis Set: CC-PVTZ
  Basis Set:
  Basis Set: CC-PVTZ
  Basis Set:
  @DF-RHF Final Energy:  -270.12037452840792
    Total Energy =                       -270.1203745284079218
  Basis Set: CC-PVTZ
  Basis Set:
  Basis Set: CC-PVTZ
  Basis Set:
  @DF-RHF Final Energy:  -270.12037328851386
    Total Energy =                       -270.1203732885140880
  Basis Set: CC-PVTZ
  Basis Set:
  Charge       = 0
  Multiplicity = 1
  Basis Set: CC-PVTZ
  Basis Set:

    Orbital Energies (a.u.)
    -----------------------

    Doubly Occupied:

       1A    -20.552678     2A    -11.322660     3A    -11.236388
       4A    -11.221202     5A    -11.220370     6A    -11.210758
       7A     -1.408132     8A     -1.090620     9A     -1.016873
      10A     -0.909908    11A     -0.814918    12A     -0.771325
      13A     -0.677748    14A     -0.658335    15A     -0.632835
      16A     -0.599635    17A     -0.586849    18A     -0.535250
      19A     -0.531331    20A     -0.498290    21A     -0.487029
      22A     -0.478577    23A     -0.473020    24A     -0.413400

  @DF-RHF Final Energy:  -270.12037594601151

   => Energetics <=

    Nuclear Repulsion Energy =            232.1489047003690871
    One-Electron Energy =                -825.8422935273986241
    Two-Electron Energy =                 323.5730128810179735
    DFT Exchange-Correlation Energy =       0.0000000000000000
    Empirical Dispersion Energy =           0.0000000000000000
    PCM Polarization Energy =               0.0000000000000000
    EFP Energy =                            0.0000000000000000
    Total Energy =                       -270.1203759460116203
    Molecular point group: c1
  Basis Set: CC-PVTZ
  Basis Set:

  -Total Gradient:
     Atom            X                  Y                   Z
    ------   -----------------  -----------------  -----------------
       1        0.000014973206     0.000002165936     0.000003540186
       2       -0.000060300995    -0.000084366621     0.000560833112
       3        0.000197019904     0.000360852111     0.000070582015
       4        0.000045329485     0.000015050651    -0.000413771102
       5       -0.000010421082     0.000014723415     0.000000642554
       6       -0.000146968885    -0.000291543368    -0.000226035711
       7       -0.000000403350    -0.000000341180     0.000016093878
       8       -0.000022881916    -0.000014444649    -0.000010526936
       9       -0.000000488537    -0.000009737530    -0.000013208296
      10        0.000001787149    -0.000004410203     0.000009597786
      11       -0.000008286405     0.000014344334     0.000003506221
      12       -0.000002102834     0.000000310621    -0.000005296536
      13       -0.000000360386    -0.000001344541     0.000003135182
      14        0.000003672799    -0.000000201845    -0.000006713722
      15       -0.000012175242     0.000001878200     0.000000783824
      16        0.000001607094    -0.000002935331     0.000006837545

  **** Optimization is complete! (in 7 steps) ****
    Final optimized geometry and variables:
    Molecular point group: c1

    Geometry (in Angstrom), charge = 0, multiplicity = 1:

    H            3.001264701720     0.657210544334     0.287845293818
    C            2.111306407041     0.023134789456     0.189606679263
    C            0.816218495303     0.775260341113     0.047827678468
    O            2.219451233713    -1.154106233368     0.192446977285
    C           -0.426115385018    -0.101510645120    -0.019085419216
    H            0.909592480789     1.389975370182    -0.846204648445
    H            0.760954201658     1.477900969440     0.877023329360
    C           -1.710673152002     0.708350809352    -0.170187533029
    H           -0.328258531798    -0.794163479679    -0.847470541649
    H           -0.479696951378    -0.711395129600     0.876275385107
    C           -2.957965817584    -0.166234870702    -0.236011540814
    H           -1.650716884253     1.317270113007    -1.068475469995
    H           -1.801408820712     1.401888710235     0.661720000522
    H           -2.913188021279    -0.847449158326    -1.078895175885
    H           -3.853197718421     0.435188398635    -0.343170057984
    H           -3.064816345098    -0.762488689186     0.663778079864

  Mulliken Charges: (a.u.)
   Center  Symbol    Alpha    Beta     Spin     Total
       1     H     0.45242  0.45242  0.00000  0.09515
       2     C     2.92138  2.92138  0.00000  0.15725
       3     C     3.09330  3.09330  0.00000 -0.18660
       4     O     4.16503  4.16503  0.00000 -0.33005
       5     C     3.08221  3.08221  0.00000 -0.16441
       6     H     0.44675  0.44675  0.00000  0.10650
       7     H     0.44692  0.44692  0.00000  0.10616
       8     C     3.08414  3.08414  0.00000 -0.16828
       9     H     0.44565  0.44565  0.00000  0.10869
      10     H     0.44696  0.44696  0.00000  0.10608
      11     C     3.14909  3.14909  0.00000 -0.29817
      12     H     0.45521  0.45521  0.00000  0.08957
      13     H     0.45537  0.45537  0.00000  0.08927
      14     H     0.45359  0.45359  0.00000  0.09282
      15     H     0.44827  0.44827  0.00000  0.10347
      16     H     0.45372  0.45372  0.00000  0.09256

   Total alpha = 24.00000, Total beta = 24.00000, Total charge =  0.00000

*** Psi4 exiting successfully. Buy a developer a beer!
