  ==> Input File <==

--------------------------------------------------------------------------
set {
	reference rhf
	basis 6-31G*
}

set_num_threads( 4 )
memory 2 gb

molecule MOL {
0 1

H	 0.212838	 -1.144187	 -1.330382
C	 -0.588313	 -1.397324	 -0.638847
O	 -1.392607	 -0.295399	 -0.366433
H	 -1.214429	 -2.154360	 -1.090530
H	 -0.144726	 -1.803914	 0.269086
C	 -0.719715	 0.768384	 0.229244
C	 0.719720	 0.768376	 -0.229267
H	 -1.185038	 1.714362	 -0.050570
H	 -0.750528	 0.687237	 1.313896
O	 1.392611	 -0.295398	 0.366430
H	 0.750534	 0.687200	 -1.313918
H	 1.185043	 1.714359	 0.050526
C	 2.706965	 -0.449871	 -0.062409
H	 2.756559	 -0.644779	 -1.131878
H	 3.305899	 0.433456	 0.155466
H	 3.125548	 -1.294566	 0.467107

	symmetry c1
}
set optking {
	frozen_dihedral = ("
		2 3 6 7
	")
}

ee = optimize('scf')
oeprop('DIPOLE', 'QUADRUPOLE', 'MULLIKEN_CHARGES')
f=open( 'psi4out.xyz', 'w' )
f.write( "16  " )
f.write( str(ee) + "\n" )
f.write( MOL.save_string_xyz() )
f.close()
--------------------------------------------------------------------------

    Molecular point group: c1
  Charge       = 0
  Multiplicity = 1
  Basis Set: 6-31G*
  Basis Set:
  @DF-RHF Final Energy:  -306.95479981165118
    Total Energy =                       -306.9547998116509575
    Molecular point group: c1
  Basis Set: 6-31G*
  Basis Set:
  Basis Set: 6-31G*
  Basis Set:
  @DF-RHF Final Energy:  -306.96582448412136
    Total Energy =                       -306.9658244841212991
  Basis Set: 6-31G*
  Basis Set:
  Basis Set: 6-31G*
  Basis Set:
  @DF-RHF Final Energy:  -306.96974094421665
    Total Energy =                       -306.9697409442165963
  Basis Set: 6-31G*
  Basis Set:
  Basis Set: 6-31G*
  Basis Set:
  @DF-RHF Final Energy:  -306.97089165507589
    Total Energy =                       -306.9708916550760023
  Basis Set: 6-31G*
  Basis Set:
  @DF-RHF Final Energy:  -306.97142462194569
    Total Energy =                       -306.9714246219458573
  Basis Set: 6-31G*
  Basis Set:
  @DF-RHF Final Energy:  -306.97156288431512
    Total Energy =                       -306.9715628843150057
  Basis Set: 6-31G*
  Basis Set:
  Basis Set: 6-31G*
  Basis Set:
  @DF-RHF Final Energy:  -306.97162389018911
    Total Energy =                       -306.9716238901891074
  Basis Set: 6-31G*
  Basis Set:
  Basis Set: 6-31G*
  Basis Set:
  @DF-RHF Final Energy:  -306.97163498556199
    Total Energy =                       -306.9716349855619342
  Basis Set: 6-31G*
  Basis Set:
  Charge       = 0
  Multiplicity = 1
  Basis Set: 6-31G*
  Basis Set:

    Orbital Energies (a.u.)
    -----------------------

    Doubly Occupied:

       1A    -20.564907     2A    -20.546571     3A    -11.276262
       4A    -11.272645     5A    -11.268224     6A    -11.254562
       7A     -1.392618     8A     -1.363769     9A     -1.029682
      10A     -0.950412    11A     -0.895703    12A     -0.813941
      13A     -0.694106    14A     -0.681680    15A     -0.655654
      16A     -0.633722    17A     -0.625512    18A     -0.592555
      19A     -0.554885    20A     -0.545274    21A     -0.517690
      22A     -0.491563    23A     -0.448909    24A     -0.423562
      25A     -0.403829

  @DF-RHF Final Energy:  -306.97163556584695

   => Energetics <=

    Nuclear Repulsion Energy =            265.0042864953614412
    One-Electron Energy =                -944.1553725006162949
    Two-Electron Energy =                 372.1794504394080150
    DFT Exchange-Correlation Energy =       0.0000000000000000
    Empirical Dispersion Energy =           0.0000000000000000
    PCM Polarization Energy =               0.0000000000000000
    EFP Energy =                            0.0000000000000000
    Total Energy =                       -306.9716355658468956
    Molecular point group: c1
  Basis Set: 6-31G*
  Basis Set:

  -Total Gradient:
     Atom            X                  Y                   Z
    ------   -----------------  -----------------  -----------------
       1       -0.000013964633    -0.000003731987     0.000003491568
       2        0.000644849597     0.001496443693    -0.003967858669
       3       -0.000549714815    -0.003479999922     0.007397106411
       4        0.000011837588    -0.000027255319    -0.000015591300
       5       -0.000000664020    -0.000006610726    -0.000008712614
       6       -0.001143879625     0.004276041566    -0.006380756081
       7        0.001022659025    -0.002324819380     0.002934832658
       8        0.000015635300     0.000012619338     0.000008103364
       9        0.000016758546     0.000014040239     0.000002207156
      10       -0.000019984408     0.000025681008     0.000048793514
      11       -0.000015285636     0.000018163538     0.000006909344
      12        0.000006039964     0.000001608619    -0.000004770461
      13        0.000064678587    -0.000001448917    -0.000037983910
      14       -0.000010620395     0.000000804685     0.000007700504
      15       -0.000012270431    -0.000006500539     0.000003324393
      16       -0.000016074644     0.000004964102     0.000003204125

  **** Optimization is complete! (in 9 steps) ****
    Final optimized geometry and variables:
    Molecular point group: c1

    Geometry (in Angstrom), charge = 0, multiplicity = 1:

    H           -0.545110942246    -1.255109340055    -1.365431025178
    C           -1.282504531907    -1.359979010868    -0.576667539158
    O           -1.843257901481    -0.134569770177    -0.207796836589
    H           -2.099137342783    -1.963967388707    -0.948893937932
    H           -0.818378503828    -1.865554230445     0.262782579113
    C           -1.031827425343     0.873887188847     0.324733362411
    C            0.417027821725     0.922118265251    -0.126977492330
    H           -1.506082820826     1.810264038703     0.055120599675
    H           -1.028667351238     0.802194923852     1.410201242878
    O            1.150016028188    -0.091001860241     0.490347886268
    H            0.488463519582     0.844870274888    -1.211039860345
    H            0.819375106202     1.895446237408     0.154817512745
    C            2.495097081654    -0.122479471532     0.129866262654
    H            2.617434931110    -0.296256030457    -0.937433345555
    H            2.996834894198     0.808188536099     0.387726953075
    H            2.959701914343    -0.933441629562     0.673200069605

  Mulliken Charges: (a.u.)
   Center  Symbol    Alpha    Beta     Spin     Total
       1     H     0.43197  0.43197  0.00000  0.13606
       2     C     3.07460  3.07460  0.00000 -0.14919
       3     O     4.31431  4.31431  0.00000 -0.62862
       4     H     0.41689  0.41689  0.00000  0.16622
       5     H     0.42015  0.42015  0.00000  0.15970
       6     C     2.98129  2.98129  0.00000  0.03741
       7     C     3.02073  3.02073  0.00000 -0.04145
       8     H     0.41861  0.41861  0.00000  0.16279
       9     H     0.42140  0.42140  0.00000  0.15720
      10     O     4.30295  4.30295  0.00000 -0.60590
      11     H     0.42433  0.42433  0.00000  0.15133
      12     H     0.42509  0.42509  0.00000  0.14982
      13     C     3.08085  3.08085  0.00000 -0.16169
      14     H     0.42848  0.42848  0.00000  0.14305
      15     H     0.42842  0.42842  0.00000  0.14317
      16     H     0.40995  0.40995  0.00000  0.18011

   Total alpha = 25.00000, Total beta = 25.00000, Total charge =  0.00000
