                              Psi4 1.0.54 Driver

  ==> Input File <==

--------------------------------------------------------------------------
set {
	reference rhf
	basis cc-pvtz
}

set_num_threads( 4 )
memory 2 gb

molecule MOL {
0 1

H	 2.250135	 4.672987	 1.298799
C	 2.511024	 4.131537	 2.218393
C	 1.413414	 3.268028	 2.778300
O	 3.584142	 4.261213	 2.696838
C	 0.819937	 2.314403	 1.737119
H	 1.799996	 2.732359	 3.635591
H	 0.635798	 3.943153	 3.128763
C	 1.790664	 1.229261	 1.276318
H	 -0.063997	 1.850703	 2.161363
H	 0.477614	 2.886953	 0.878518
C	 1.181757	 0.280428	 0.247371
H	 2.123105	 0.660444	 2.140631
H	 2.682937	 1.687305	 0.857424
C	 2.151032	 -0.811012	 -0.202643
H	 0.286846	 -0.167226	 0.668185
H	 0.859021	 0.851522	 -0.620379
C	 3.580021	 -0.656538	 0.320835
H	 2.170545	 -0.847575	 -1.289412
H	 1.766632	 -1.772905	 0.124928
C	 4.327657	 0.562694	 -0.213579
H	 4.138806	 -1.549270	 0.057813
H	 3.561991	 -0.620783	 1.406976
H	 4.355973	 0.557257	 -1.298551
H	 3.867136	 1.491650	 0.100501
H	 5.351524	 0.571613	 0.142204

	symmetry c1
}
set optking {
	frozen_dihedral = ("
		8 11 14 18
	")
}

ee,wfn = optimize('scf', return_wfn=True)
oeprop( wfn, 'DIPOLE', 'QUADRUPOLE', 'MULLIKEN_CHARGES')
f=open( 'psi4out.xyz', 'w' )
f.write( "25  " )
f.write( str(ee) + "\n" )
f.write( MOL.save_string_xyz() )
f.close()
--------------------------------------------------------------------------

    Molecular point group: c1
  Charge       = 0
  Multiplicity = 1
  Basis Set: CC-PVTZ
  Basis Set:
  @DF-RHF Final Energy:  -387.23179586565539
    Total Energy =                       -387.2317958656552719
    Molecular point group: c1
  Basis Set: CC-PVTZ
  Basis Set:
  Basis Set: CC-PVTZ
  Basis Set:
  @DF-RHF Final Energy:  -387.24508038081825
    Total Energy =                       -387.2450803808181945
  Basis Set: CC-PVTZ
  Basis Set:
  Basis Set: CC-PVTZ
  Basis Set:
  @DF-RHF Final Energy:  -387.24800472723592
    Total Energy =                       -387.2480047272358661
  Basis Set: CC-PVTZ
  Basis Set:
  Basis Set: CC-PVTZ
  Basis Set:
  @DF-RHF Final Energy:  -387.24647873500885
    Total Energy =                       -387.2464787350090774
  Basis Set: CC-PVTZ
  Basis Set:
  @DF-RHF Final Energy:  -387.24880103936732
    Total Energy =                       -387.2488010393675495
  @DF-RHF Final Energy:  -387.24881018601832
    Total Energy =                       -387.2488101860176357
  @DF-RHF Final Energy:  -387.24728387883727
    Total Energy =                       -387.2472838788373792
  Basis Set: CC-PVTZ
  Basis Set:
  @DF-RHF Final Energy:  -387.24896582094539
    Total Energy =                       -387.2489658209456138
  Basis Set: CC-PVTZ
  Basis Set:
  Basis Set: CC-PVTZ
  Basis Set:
  @DF-RHF Final Energy:  -387.24902405019344
    Total Energy =                       -387.2490240501938388
  Basis Set: CC-PVTZ
  Basis Set:
  Basis Set: CC-PVTZ
  Basis Set:
  @DF-RHF Final Energy:  -387.24903772873404
    Total Energy =                       -387.2490377287341516
  Basis Set: CC-PVTZ
  Basis Set:
  Charge       = 0
  Multiplicity = 1
  Basis Set: CC-PVTZ
  Basis Set:

    Orbital Energies (a.u.)
    -----------------------

    Doubly Occupied:

       1A    -20.551667     2A    -11.321201     3A    -11.233839
       4A    -11.232789     5A    -11.221292     6A    -11.218813
       7A    -11.215605     8A    -11.214219     9A    -11.206724
      10A     -1.406635    11A     -1.103655    12A     -1.066822
      13A     -1.010779    14A     -0.945889    15A     -0.874005
      16A     -0.831081    17A     -0.789740    18A     -0.768083
      19A     -0.669206    20A     -0.662831    21A     -0.632750
      22A     -0.625223    23A     -0.610937    24A     -0.593786
      25A     -0.563393    26A     -0.559450    27A     -0.537348
      28A     -0.520536    29A     -0.516486    30A     -0.500047
      31A     -0.491391    32A     -0.481986    33A     -0.451294
      34A     -0.449834    35A     -0.446344    36A     -0.412083

  @DF-RHF Final Energy:  -387.24903830177146

   => Energetics <=

    Nuclear Repulsion Energy =            451.9957321190937023
    One-Electron Energy =               -1420.6140262341086782
    Two-Electron Energy =                 581.3692558132430577
    DFT Exchange-Correlation Energy =       0.0000000000000000
    Empirical Dispersion Energy =           0.0000000000000000
    PCM Polarization Energy =               0.0000000000000000
    EFP Energy =                            0.0000000000000000
    Total Energy =                       -387.2490383017719751
    Molecular point group: c1
  Basis Set: CC-PVTZ
  Basis Set:

  -Total Gradient:
     Atom            X                  Y                   Z
    ------   -----------------  -----------------  -----------------
       1       -0.000004081182    -0.000005969847    -0.000010729751
       2       -0.000055672039     0.000034120982    -0.000002496185
       3        0.000018138684    -0.000001234047     0.000008288164
       4        0.000035131324    -0.000004867627     0.000014330309
       5        0.000004476354     0.000018900964    -0.000046579755
       6        0.000015134594    -0.000008572494    -0.000004756851
       7       -0.000012251454    -0.000021027732     0.000004068100
       8        0.000653740815     0.002477592307    -0.002789744342
       9       -0.000009215458     0.000012312414     0.000011494371
      10        0.000008833881     0.000006683358    -0.000005302363
      11       -0.000204620867    -0.002858334673     0.004054726875
      12        0.000007639754     0.000000073495     0.000009469504
      13        0.000025863358    -0.000009831062    -0.000012688778
      14       -0.003773533747    -0.003372474063    -0.000986259957
      15        0.000006414794    -0.000018660635     0.000001016571
      16       -0.000000362450    -0.000003780164    -0.000011764064
      17       -0.000044200042     0.000007359964     0.000043519942
      18        0.003329448665     0.003726690809    -0.000293723776
      19       -0.000010959920     0.000001838297     0.000014632710
      20        0.000014252043    -0.000004185987     0.000011757528
      21       -0.000002077253     0.000001436682    -0.000012554664
      22        0.000010380398     0.000007120807     0.000015196378
      23        0.000006539149     0.000004236111    -0.000007159638
      24       -0.000014499355    -0.000001561271     0.000011452459
      25       -0.000004520042     0.000012133422    -0.000016192788

  **** Optimization is complete! (in 11 steps) ****
    Final optimized geometry and variables:
    Molecular point group: c1

    Geometry (in Angstrom), charge = 0, multiplicity = 1:

    H           -0.688441141285     3.062698092458     0.322454846658
    C           -0.287093036254     2.549251767242     1.206905961714
    C           -1.182201120173     1.485767490727     1.782510670588
    O            0.770190089779     2.854264906478     1.638857717193
    C           -1.638434202485     0.465499174947     0.735108413034
    H           -0.665901672350     1.009040779991     2.605606689628
    H           -2.053421335836     1.997511107321     2.185438668380
    C           -0.507077175181    -0.414987190934     0.205831699547
    H           -2.406211207105    -0.159781162642     1.177520991299
    H           -2.114001523539     0.987162248193    -0.091852336305
    C           -1.012096036104    -1.431136747698    -0.819046936868
    H           -0.044866646407    -0.925178434444     1.045567988701
    H            0.263314311258     0.210042645717    -0.228853050699
    C            0.018276919029    -2.404610624561    -1.455854026875
    H           -1.796837509529    -2.018713838735    -0.354039498768
    H           -1.501106044371    -0.875483695326    -1.613630817472
    C            1.511849695639    -2.159209960652    -1.191455050666
    H           -0.106021918622    -2.376912138704    -2.533320785457
    H           -0.219382297790    -3.412603180866    -1.138031426101
    C            2.130903349980    -1.064149330335    -2.058542121662
    H            2.039445891928    -3.085381140008    -1.396721932574
    H            1.688562891021    -1.945654364659    -0.143795677772
    H            2.060891080510    -1.324825773360    -3.109577896114
    H            1.640895074046    -0.107117556442    -1.928379969895
    H            3.180074147818    -0.928205824258    -1.822315881183

  Mulliken Charges: (a.u.)
   Center  Symbol    Alpha    Beta     Spin     Total
       1     H     0.46397  0.46397  0.00000  0.07205
       2     C     2.90651  2.90651  0.00000  0.18698
       3     C     3.08662  3.08662  0.00000 -0.17325
       4     O     4.16617  4.16617  0.00000 -0.33235
       5     C     3.11764  3.11764  0.00000 -0.23528
       6     H     0.44331  0.44331  0.00000  0.11339
       7     H     0.44046  0.44046  0.00000  0.11907
       8     C     3.09905  3.09905  0.00000 -0.19809
       9     H     0.44254  0.44254  0.00000  0.11492
      10     H     0.44997  0.44997  0.00000  0.10007
      11     C     3.10024  3.10024  0.00000 -0.20048
      12     H     0.44901  0.44901  0.00000  0.10197
      13     H     0.44015  0.44015  0.00000  0.11970
      14     C     3.10004  3.10004  0.00000 -0.20007
      15     H     0.44784  0.44784  0.00000  0.10432
      16     H     0.45074  0.45074  0.00000  0.09851
      17     C     3.09991  3.09991  0.00000 -0.19982
      18     H     0.45238  0.45238  0.00000  0.09524
      19     H     0.44471  0.44471  0.00000  0.11059
      20     C     3.14768  3.14768  0.00000 -0.29535
      21     H     0.44364  0.44364  0.00000  0.11273
      22     H     0.44975  0.44975  0.00000  0.10049
      23     H     0.45420  0.45420  0.00000  0.09159
      24     H     0.45681  0.45681  0.00000  0.08639
      25     H     0.44666  0.44666  0.00000  0.10667

   Total alpha = 36.00000, Total beta = 36.00000, Total charge = -0.00000

*** Psi4 exiting successfully. Buy a developer a beer!
