  ==> Input File <==

--------------------------------------------------------------------------
set {
	reference rhf
	basis cc-pvtz
}

set_num_threads( 4 )
memory 2 gb

molecule MOL {
0 1

O	 -0.988175	 -1.402891	 0.050086
C	 -0.675048	 -0.248293	 -0.009686
C	 -1.742492	 0.826599	 -0.011538
N	 0.622280	 0.144970	 -0.099307
H	 -1.692153	 1.431066	 -0.908439
H	 -2.698310	 0.331559	 0.031353
H	 -1.642148	 1.483784	 0.843455
C	 1.288556	 0.069646	 -1.382409
C	 1.493021	 0.318165	 1.038923
H	 1.939082	 0.927328	 -1.502492
H	 0.556892	 0.063943	 -2.169693
H	 1.892790	 -0.830514	 -1.461437
H	 2.201681	 1.108625	 0.827713
H	 0.944339	 0.600390	 1.921075
H	 2.057713	 -0.584953	 1.259254

	symmetry c1
}
set optking {
	frozen_dihedral = ("
		8 4 2 3
	")
}

ee = optimize('scf')
oeprop('DIPOLE', 'QUADRUPOLE', 'MULLIKEN_CHARGES')
f=open( 'psi4out.xyz', 'w' )
f.write( "15  " )
f.write( str(ee) + "\n" )
f.write( MOL.save_string_xyz() )
f.close()
--------------------------------------------------------------------------

    Molecular point group: c1
  Charge       = 0
  Multiplicity = 1
  Basis Set: CC-PVTZ
  Basis Set:
  @DF-RHF Final Energy:  -286.10034450059032
    Total Energy =                       -286.1003445005904382
    Molecular point group: c1
  Basis Set: CC-PVTZ
  Basis Set:
  Basis Set: CC-PVTZ
  Basis Set:
  @DF-RHF Final Energy:  -286.10553053940635
    Total Energy =                       -286.1055305394063453
  Basis Set: CC-PVTZ
  Basis Set:
  Basis Set: CC-PVTZ
  Basis Set:
  @DF-RHF Final Energy:  -286.10994793237069
    Total Energy =                       -286.1099479323708010
  Basis Set: CC-PVTZ
  Basis Set:
  Basis Set: CC-PVTZ
  Basis Set:
  @DF-RHF Final Energy:  -286.11403680163545
    Total Energy =                       -286.1140368016355637
  Basis Set: CC-PVTZ
  Basis Set:
  @DF-RHF Final Energy:  -286.11599345043004
    Total Energy =                       -286.1159934504301532
  @DF-RHF Final Energy:  -286.11653738014945
    Total Energy =                       -286.1165373801493388
  Basis Set: CC-PVTZ
  Basis Set:
  @DF-RHF Final Energy:  -286.11657167455905
    Total Energy =                       -286.1165716745586565
  Basis Set: CC-PVTZ
  Basis Set:
  Basis Set: CC-PVTZ
  Basis Set:
  @DF-RHF Final Energy:  -286.11670784345375
    Total Energy =                       -286.1167078434536961
  Basis Set: CC-PVTZ
  Basis Set:
  Basis Set: CC-PVTZ
  Basis Set:
  @DF-RHF Final Energy:  -286.11672018608704
    Total Energy =                       -286.1167201860870364
  Basis Set: CC-PVTZ
  Basis Set:
  Charge       = 0
  Multiplicity = 1
  Basis Set: CC-PVTZ
  Basis Set:

    Orbital Energies (a.u.)
    -----------------------

    Doubly Occupied:

       1A    -20.542626     2A    -15.559263     3A    -11.344454
       4A    -11.254840     5A    -11.243658     6A    -11.227608
       7A     -1.415837     8A     -1.233087     9A     -1.014892
      10A     -0.964233    11A     -0.896707    12A     -0.738657
      13A     -0.682032    14A     -0.660571    15A     -0.641612
      16A     -0.604571    17A     -0.584447    18A     -0.575152
      19A     -0.556226    20A     -0.537261    21A     -0.523290
      22A     -0.497001    23A     -0.428478    24A     -0.382993

  @DF-RHF Final Energy:  -286.11672270834447

   => Energetics <=

    Nuclear Repulsion Energy =            252.9524280175987485
    One-Electron Energy =                -889.9193087743606156
    Two-Electron Energy =                 350.8501580484175406
    DFT Exchange-Correlation Energy =       0.0000000000000000
    Empirical Dispersion Energy =           0.0000000000000000
    PCM Polarization Energy =               0.0000000000000000
    EFP Energy =                            0.0000000000000000
    Total Energy =                       -286.1167227083442981
    Molecular point group: c1
  Basis Set: CC-PVTZ
  Basis Set:

  -Total Gradient:
     Atom            X                  Y                   Z
    ------   -----------------  -----------------  -----------------
       1       -0.000093562004    -0.000004024704     0.000021661084
       2        0.001232157187    -0.003751357828    -0.006630723608
       3       -0.000104428456     0.001529521840     0.005191481680
       4       -0.003662587618     0.006490730157    -0.000923700291
       5        0.000028201144    -0.000004769481    -0.000000415516
       6       -0.000014054831     0.000016222370     0.000022208020
       7        0.000005617015    -0.000020780692     0.000000024682
       8        0.002652199516    -0.004235615399     0.002321708819
       9        0.000040340382    -0.000054442698    -0.000053933202
      10       -0.000018178272    -0.000002403417     0.000018090398
      11       -0.000022328199     0.000016982558     0.000045787239
      12        0.000001769137     0.000001721340     0.000003674265
      13       -0.000018661378     0.000007564968     0.000000406518
      14       -0.000029869609     0.000018410797    -0.000022052422
      15        0.000003385986    -0.000007759816     0.000005782331

  **** Optimization is complete! (in 10 steps) ****
    Final optimized geometry and variables:
    Molecular point group: c1

    Geometry (in Angstrom), charge = 0, multiplicity = 1:

    O           -0.756944158821    -1.275677055767     0.534243412546
    C           -0.673521620299    -0.177744356509     0.100180988326
    C           -1.877858167172     0.677407682095    -0.184219147148
    N            0.571823810500     0.491360364122    -0.080921309321
    H           -1.767747139073     1.213211378756    -1.118089660904
    H           -2.775825006858     0.079072616978    -0.192228606804
    H           -1.939012067721     1.420008567761     0.603308556877
    C            1.160860314387     0.142389941627    -1.368669612052
    C            1.504771751505     0.204039808340     1.000990408045
    H            2.038879243502     0.751630749706    -1.533379284780
    H            0.461401194609     0.344947012110    -2.170501655968
    H            1.446189913130    -0.906173369072    -1.417274053917
    H            2.377804128085     0.830379554780     0.873873703116
    H            1.050247626384     0.447094047385     1.951654682103
    H            1.815812588525    -0.835668255516     1.026675940796

  Mulliken Charges: (a.u.)
   Center  Symbol    Alpha    Beta     Spin     Total
       1     O     4.17435  4.17435  0.00000 -0.34870
       2     C     2.83879  2.83879  0.00000  0.32242
       3     C     3.13251  3.13251  0.00000 -0.26502
       4     N     3.61826  3.61826  0.00000 -0.23651
       5     H     0.44885  0.44885  0.00000  0.10231
       6     H     0.44055  0.44055  0.00000  0.11889
       7     H     0.44728  0.44728  0.00000  0.10544
       8     C     3.09079  3.09079  0.00000 -0.18158
       9     C     3.09006  3.09006  0.00000 -0.18013
      10     H     0.45064  0.45064  0.00000  0.09872
      11     H     0.45226  0.45226  0.00000  0.09547
      12     H     0.45695  0.45695  0.00000  0.08610
      13     H     0.45290  0.45290  0.00000  0.09421
      14     H     0.45058  0.45058  0.00000  0.09883
      15     H     0.45523  0.45523  0.00000  0.08953

   Total alpha = 24.00000, Total beta = 24.00000, Total charge =  0.00000
