  ==> Input File <==

--------------------------------------------------------------------------
set {
	reference rhf
	basis 6-31G*
}

set_num_threads( 1 )
memory 2 gb

molecule MOL {
0 1

H	 -4.031818	 -0.453427	 -0.000094
C	 -2.967712	 -0.297022	 -0.000064
C	 -2.458620	 0.992929	 0.000032
C	 -2.109895	 -1.385637	 -0.000122
H	 -3.124998	 1.836319	 0.000077
C	 -1.090278	 1.193236	 0.000070
H	 -2.506361	 -2.384847	 -0.000198
C	 -0.739812	 -1.187531	 -0.000085
H	 -0.678594	 2.184290	 0.000146
C	 -0.226438	 0.104061	 0.000012
H	 -0.072310	 -2.027032	 -0.000131
C	 1.239129	 0.373821	 0.000060
O	 1.674202	 0.877634	 1.145262
O	 1.954867	 0.162079	 -0.928241
C	 3.058582	 1.164786	 1.233064
H	 3.641048	 0.266156	 1.091675
H	 3.214144	 1.560634	 2.224506
H	 3.341621	 1.894415	 0.488450

	symmetry c1
}
set optking {
	frozen_dihedral = ("
		12 13 15 16,
		10 12 13 15
	")
}

ee = energy('scf')
oeprop('DIPOLE', 'QUADRUPOLE', 'MULLIKEN_CHARGES')
f=open( 'psi4out.xyz', 'w' )
f.write( "18  " )
f.write( str(ee) + "\n" )
f.write( MOL.save_string_xyz() )
f.close()
--------------------------------------------------------------------------

    Molecular point group: c1

    Geometry (in Angstrom), charge = 0, multiplicity = 1:

       Center              X                  Y                   Z               Mass
    ------------   -----------------  -----------------  -----------------  -----------------
           H         -3.989827957288    -0.681521812759    -0.162539001843     1.007825032070
           C         -2.925721957288    -0.525116812759    -0.162509001843    12.000000000000
           C         -2.416629957288     0.764834187241    -0.162413001843    12.000000000000
           C         -2.067904957288    -1.613731812759    -0.162567001843    12.000000000000
           H         -3.083007957288     1.608224187241    -0.162368001843     1.007825032070
           C         -1.048287957288     0.965141187241    -0.162375001843    12.000000000000
           H         -2.464370957288    -2.612941812759    -0.162643001843     1.007825032070
           C         -0.697821957288    -1.415625812759    -0.162530001843    12.000000000000
           H         -0.636603957288     1.956195187241    -0.162299001843     1.007825032070
           C         -0.184447957288    -0.124033812759    -0.162433001843    12.000000000000
           H         -0.030319957288    -2.255126812759    -0.162576001843     1.007825032070
           C          1.281119042712     0.145726187241    -0.162385001843    12.000000000000
           O          1.716192042712     0.649539187241     0.982816998157    15.994914619560
           O          1.996857042712    -0.066015812759    -1.090686001843    15.994914619560
           C          3.100572042712     0.936691187241     1.070618998157    12.000000000000
           H          3.683038042712     0.038061187241     0.929229998157     1.007825032070
           H          3.256134042712     1.332539187241     2.062060998157     1.007825032070
           H          3.383611042712     1.666320187241     0.326004998157     1.007825032070

  Charge       = 0
  Multiplicity = 1
  Basis Set: 6-31G*
  Basis Set:

    Orbital Energies (a.u.)
    -----------------------

    Doubly Occupied:

       1A    -20.609796     2A    -20.549377     3A    -11.380250
       4A    -11.283391     5A    -11.251611     6A    -11.245009
       7A    -11.244042     8A    -11.241445     9A    -11.240047
      10A    -11.239510    11A     -1.474649    12A     -1.365623
      13A     -1.166660    14A     -1.049546    15A     -1.026493
      16A     -0.979383    17A     -0.861195    18A     -0.838745
      19A     -0.779973    20A     -0.738132    21A     -0.686405
      22A     -0.679467    23A     -0.675694    24A     -0.631013
      25A     -0.629920    26A     -0.598410    27A     -0.591052
      28A     -0.547955    29A     -0.535927    30A     -0.517354
      31A     -0.508171    32A     -0.501768    33A     -0.458578
      34A     -0.444948    35A     -0.343378    36A     -0.341866

  @DF-RHF Final Energy:  -457.33929699307851

   => Energetics <=

    Nuclear Repulsion Energy =            491.7603556283455646
    One-Electron Energy =               -1597.6861352637124583
    Two-Electron Energy =                 648.5864826422873648
    DFT Exchange-Correlation Energy =       0.0000000000000000
    Empirical Dispersion Energy =           0.0000000000000000
    PCM Polarization Energy =               0.0000000000000000
    EFP Energy =                            0.0000000000000000
    Total Energy =                       -457.3392969930794152

  Mulliken Charges: (a.u.)
   Center  Symbol    Alpha    Beta     Spin     Total
       1     H     0.39647  0.39647  0.00000  0.20706
       2     C     3.09686  3.09686  0.00000 -0.19372
       3     C     3.09995  3.09995  0.00000 -0.19990
       4     C     3.10106  3.10106  0.00000 -0.20211
       5     H     0.39564  0.39564  0.00000  0.20871
       6     C     3.09556  3.09556  0.00000 -0.19111
       7     H     0.39523  0.39523  0.00000  0.20955
       8     C     3.09716  3.09716  0.00000 -0.19432
       9     H     0.39089  0.39089  0.00000  0.21822
      10     C     3.01223  3.01223  0.00000 -0.02446
      11     H     0.38915  0.38915  0.00000  0.22169
      12     C     2.63935  2.63935  0.00000  0.72129
      13     O     4.29684  4.29684  0.00000 -0.59367
      14     O     4.27703  4.27703  0.00000 -0.55405
      15     C     3.09379  3.09379  0.00000 -0.18757
      16     H     0.40784  0.40784  0.00000  0.18431
      17     H     0.40668  0.40668  0.00000  0.18664
      18     H     0.40828  0.40828  0.00000  0.18344

   Total alpha = 36.00000, Total beta = 36.00000, Total charge = -0.00000
