  ==> Input File <==

--------------------------------------------------------------------------
set {
	reference rhf
	basis 6-31G*
}

set_num_threads( 4 )
memory 2 gb

molecule MOL {
0 1

H	 2.338664	 -0.954458	 -0.891193
O	 2.016064	 -0.864478	 0.000222
C	 1.050492	 0.053836	 0.000068
C	 -0.318135	 -0.576402	 0.000164
O	 1.285279	 1.218255	 -0.000078
C	 -1.454360	 0.441875	 -0.000474
H	 -0.374042	 -1.230163	 -0.866135
H	 -0.374274	 -1.229227	 0.867154
C	 -2.826123	 -0.230780	 0.000056
H	 -1.357605	 1.085198	 -0.868380
H	 -1.357504	 1.086451	 0.866496
H	 -2.959731	 -0.858053	 -0.876869
H	 -3.619374	 0.509403	 -0.000080
H	 -2.959371	 -0.857318	 0.877556

	symmetry c1
}
set optking {
	frozen_dihedral = ("
		1 2 3 5
	")
}

ee = optimize('scf')
oeprop('DIPOLE', 'QUADRUPOLE', 'MULLIKEN_CHARGES')
f=open( 'psi4out.xyz', 'w' )
f.write( "14  " )
f.write( str(ee) + "\n" )
f.write( MOL.save_string_xyz() )
f.close()
--------------------------------------------------------------------------

    Molecular point group: c1
  Charge       = 0
  Multiplicity = 1
  Basis Set: 6-31G*
  Basis Set:
  @DF-RHF Final Energy:  -305.85898013874657
    Total Energy =                       -305.8589801387465172
    Molecular point group: c1
  Basis Set: 6-31G*
  Basis Set:
  Basis Set: 6-31G*
  Basis Set:
  @DF-RHF Final Energy:  -305.85872045367444
    Total Energy =                       -305.8587204536742661
  Basis Set: 6-31G*
  Basis Set:
  Basis Set: 6-31G*
  Basis Set:
  @DF-RHF Final Energy:  -305.85985138147970
    Total Energy =                       -305.8598513814795297
  Basis Set: 6-31G*
  Basis Set:
  Basis Set: 6-31G*
  Basis Set:
  @DF-RHF Final Energy:  -305.86070654332235
    Total Energy =                       -305.8607065433223511
  Basis Set: 6-31G*
  Basis Set:
  Basis Set: 6-31G*
  Basis Set:
  @DF-RHF Final Energy:  -305.86071424282920
    Total Energy =                       -305.8607142428292605
  Basis Set: 6-31G*
  Basis Set:
  Charge       = 0
  Multiplicity = 1
  Basis Set: 6-31G*
  Basis Set:

    Orbital Energies (a.u.)
    -----------------------

    Doubly Occupied:

       1A    -20.594810     2A    -20.562620     3A    -11.381926
       4A    -11.242443     5A    -11.226466     6A    -11.218232
       7A     -1.460747     8A     -1.367286     9A     -1.082790
      10A     -0.976661    11A     -0.852173    12A     -0.795787
      13A     -0.709347    14A     -0.676681    15A     -0.662520
      16A     -0.628952    17A     -0.578613    18A     -0.559139
      19A     -0.542001    20A     -0.505114    21A     -0.497354
      22A     -0.483346    23A     -0.480798    24A     -0.444489

  @DF-RHF Final Energy:  -305.86071480508872

   => Energetics <=

    Nuclear Repulsion Energy =            239.1403837434617969
    One-Electron Energy =                -890.9416120912775341
    Two-Electron Energy =                 345.9405135427269897
    DFT Exchange-Correlation Energy =       0.0000000000000000
    Empirical Dispersion Energy =           0.0000000000000000
    PCM Polarization Energy =               0.0000000000000000
    EFP Energy =                            0.0000000000000000
    Total Energy =                       -305.8607148050887190
    Molecular point group: c1
  Basis Set: 6-31G*
  Basis Set:

  -Total Gradient:
     Atom            X                  Y                   Z
    ------   -----------------  -----------------  -----------------
       1       -0.003902488329    -0.004295578995    -0.001307665157
       2        0.004685684514     0.005434541752     0.004014151171
       3       -0.000449117488    -0.001063263074    -0.007920435737
       4       -0.000012295540     0.000033874111    -0.000032260718
       5       -0.000333455646    -0.000073168782     0.005226483534
       6       -0.000005073617     0.000002601612     0.000018259631
       7       -0.000012518034    -0.000012807859     0.000002939758
       8       -0.000005186120    -0.000001940880     0.000006014877
       9        0.000012660778    -0.000014722034    -0.000006433407
      10        0.000007749174    -0.000005329444    -0.000003459630
      11        0.000008259626    -0.000002360807     0.000002415691
      12       -0.000003237968    -0.000004420062    -0.000003613278
      13        0.000012691272     0.000003254737    -0.000002140012
      14       -0.000003672624    -0.000000680274     0.000005743278

  **** Optimization is complete! (in 6 steps) ****
    Final optimized geometry and variables:
    Molecular point group: c1

    Geometry (in Angstrom), charge = 0, multiplicity = 1:

    H            2.464840100547    -0.980477008835    -0.815921515335
    O            2.050936230096    -0.865489459375     0.030989077951
    C            1.054391879219     0.061371289046    -0.020532107195
    C           -0.318899107812    -0.561030245723    -0.009401444697
    O            1.278867379691     1.219679534139     0.007187201009
    C           -1.458443079195     0.452569622908     0.011764762261
    H           -0.389066944333    -1.214624986885    -0.876634430879
    H           -0.359432422926    -1.221273890475     0.853271950077
    C           -2.828834403772    -0.222865393353     0.027407378282
    H           -1.376365951967     1.102848052765    -0.852905404842
    H           -1.350186625113     1.091190725588     0.881771414990
    H           -2.973918675437    -0.845151545774    -0.851378485652
    H           -3.623604477347     0.515499121752     0.043068270801
    H           -2.948172587764    -0.854959295851     0.902840657562

  Mulliken Charges: (a.u.)
   Center  Symbol    Alpha    Beta     Spin     Total
       1     H     0.26582  0.26582  0.00000  0.46836
       2     O     4.36968  4.36968  0.00000 -0.73935
       3     C     2.63088  2.63088  0.00000  0.73824
       4     C     3.20830  3.20830  0.00000 -0.41661
       5     O     4.24719  4.24719  0.00000 -0.49438
       6     C     3.15271  3.15271  0.00000 -0.30542
       7     H     0.40835  0.40835  0.00000  0.18329
       8     H     0.39706  0.39706  0.00000  0.20588
       9     C     3.24280  3.24280  0.00000 -0.48561
      10     H     0.41201  0.41201  0.00000  0.17597
      11     H     0.40893  0.40893  0.00000  0.18214
      12     H     0.42174  0.42174  0.00000  0.15653
      13     H     0.41425  0.41425  0.00000  0.17150
      14     H     0.42027  0.42027  0.00000  0.15946

   Total alpha = 24.00000, Total beta = 24.00000, Total charge = -0.00000
