  ==> Input File <==

--------------------------------------------------------------------------
set {
	reference rhf
	basis 6-31G*
}

set_num_threads( 4 )
memory 2 gb

molecule MOL {
0 1

H	 5.229035	 1.721906	 0.712828
C	 4.737229	 0.915409	 0.177840
C	 3.277600	 0.776412	 0.608351
H	 4.811141	 1.129656	 -0.884222
H	 5.293790	 0.002372	 0.371239
C	 2.555642	 -0.357665	 -0.122718
H	 2.759453	 1.712215	 0.425599
H	 3.234848	 0.597171	 1.681541
C	 1.097112	 -0.532807	 0.300699
H	 2.593432	 -0.183074	 -1.192172
H	 3.080394	 -1.291804	 0.064528
C	 0.169600	 0.576866	 -0.172154
H	 0.704110	 -1.461373	 -0.110499
H	 1.015183	 -0.631906	 1.380812
C	 -1.181045	 0.701995	 0.511084
O	 0.477833	 1.314309	 -1.059608
C	 -2.285934	 -0.139295	 -0.145128
H	 -1.449051	 1.751551	 0.493206
H	 -1.071135	 0.403303	 1.551943
C	 -3.651768	 0.085446	 0.506485
H	 -2.346596	 0.110469	 -1.202272
H	 -2.034737	 -1.195320	 -0.088721
C	 -4.759797	 -0.746382	 -0.137905
H	 -3.908762	 1.140117	 0.445781
H	 -3.588286	 -0.154158	 1.565709
H	 -4.868882	 -0.505166	 -1.191300
H	 -4.548009	 -1.809175	 -0.062213
H	 -5.715422	 -0.564821	 0.343442

	symmetry c1
}
set optking {
	frozen_dihedral = ("
		16 12 15 17
	")
}

ee = optimize('scf')
oeprop('DIPOLE', 'QUADRUPOLE', 'MULLIKEN_CHARGES')
f=open( 'psi4out.xyz', 'w' )
f.write( "28  " )
f.write( str(ee) + "\n" )
f.write( MOL.save_string_xyz() )
f.close()
--------------------------------------------------------------------------

    Molecular point group: c1
  Charge       = 0
  Multiplicity = 1
  Basis Set: 6-31G*
  Basis Set:
  @DF-RHF Final Energy:  -426.16867554720250
    Total Energy =                       -426.1686755472021559
    Molecular point group: c1
  Basis Set: 6-31G*
  Basis Set:
  Basis Set: 6-31G*
  Basis Set:
  @DF-RHF Final Energy:  -426.16803030607343
    Total Energy =                       -426.1680303060732058
  Basis Set: 6-31G*
  Basis Set:
  Basis Set: 6-31G*
  Basis Set:
  @DF-RHF Final Energy:  -426.16901554513709
    Total Energy =                       -426.1690155451369719
  Basis Set: 6-31G*
  Basis Set:
  Basis Set: 6-31G*
  Basis Set:
  @DF-RHF Final Energy:  -426.16937036141030
    Total Energy =                       -426.1693703614100741
  Basis Set: 6-31G*
  Basis Set:
  @DF-RHF Final Energy:  -426.16937886043536
    Total Energy =                       -426.1693788604355859
  Basis Set: 6-31G*
  Basis Set:
  @DF-RHF Final Energy:  -426.16944015833485
    Total Energy =                       -426.1694401583349645
  Basis Set: 6-31G*
  Basis Set:
  Basis Set: 6-31G*
  Basis Set:
  @DF-RHF Final Energy:  -426.16946070008862
    Total Energy =                       -426.1694607000885071
  Basis Set: 6-31G*
  Basis Set:
  Basis Set: 6-31G*
  Basis Set:
  @DF-RHF Final Energy:  -426.16946466975583
    Total Energy =                       -426.1694646697558255
  Basis Set: 6-31G*
  Basis Set:
  Charge       = 0
  Multiplicity = 1
  Basis Set: 6-31G*
  Basis Set:

    Orbital Energies (a.u.)
    -----------------------

    Doubly Occupied:

       1A    -20.548174     2A    -11.322471     3A    -11.231062
       4A    -11.230712     5A    -11.228596     6A    -11.225091
       7A    -11.216193     8A    -11.215256     9A    -11.209907
      10A    -11.204385    11A     -1.393480    12A     -1.093466
      13A     -1.076941    14A     -1.022467    15A     -0.990497
      16A     -0.908249    17A     -0.870065    18A     -0.808159
      19A     -0.797136    20A     -0.724919    21A     -0.669961
      22A     -0.651224    23A     -0.630462    24A     -0.615506
      25A     -0.607112    26A     -0.589390    27A     -0.574559
      28A     -0.571497    29A     -0.542119    30A     -0.534295
      31A     -0.521618    32A     -0.506184    33A     -0.500478
      34A     -0.483314    35A     -0.476625    36A     -0.476134
      37A     -0.469174    38A     -0.463557    39A     -0.454341
      40A     -0.391855

  @DF-RHF Final Energy:  -426.16946555573315

   => Energetics <=

    Nuclear Repulsion Energy =            530.2486749731677946
    One-Electron Energy =               -1628.7430232680458175
    Two-Electron Energy =                 672.3248827391450959
    DFT Exchange-Correlation Energy =       0.0000000000000000
    Empirical Dispersion Energy =           0.0000000000000000
    PCM Polarization Energy =               0.0000000000000000
    EFP Energy =                            0.0000000000000000
    Total Energy =                       -426.1694655557328133
    Molecular point group: c1
  Basis Set: 6-31G*
  Basis Set:

  -Total Gradient:
     Atom            X                  Y                   Z
    ------   -----------------  -----------------  -----------------
       1        0.000004409774    -0.000003414143     0.000002799103
       2        0.000009540253     0.000003333802     0.000013849812
       3        0.000035619658     0.000012335052    -0.000015833900
       4       -0.000002449925     0.000005231227     0.000002547128
       5        0.000000320883    -0.000003124809    -0.000004367543
       6        0.000033045993    -0.000025732957     0.000024783784
       7        0.000000550375     0.000003023009    -0.000006998552
       8       -0.000004736577     0.000001214072    -0.000003457693
       9       -0.000013157250    -0.000076723857    -0.000007987872
      10       -0.000006283502     0.000002107769     0.000006308118
      11        0.000014371826     0.000007731532    -0.000004985650
      12       -0.000303106205    -0.000715840092    -0.000564970140
      13       -0.000010444946    -0.000007727621     0.000000164757
      14        0.000012715906     0.000005483814    -0.000011297966
      15       -0.000062126283     0.000707517187    -0.000200096240
      16        0.000188191206     0.000450405904     0.000485665907
      17        0.000113286176    -0.000367405346     0.000272326660
      18       -0.000014009430     0.000014609547     0.000000704090
      19       -0.000006268824     0.000016266931    -0.000002052756
      20        0.000010690489    -0.000015247037     0.000020131423
      21        0.000004941620    -0.000012211333    -0.000000359906
      22       -0.000003190415    -0.000004395190    -0.000001456013
      23       -0.000003737091     0.000006795150    -0.000008283722
      24        0.000004643224    -0.000002993291    -0.000000747174
      25       -0.000001914248    -0.000002045585     0.000003321047
      26        0.000002501554    -0.000004050703    -0.000001551085
      27       -0.000001029701     0.000001953344     0.000004597590
      28       -0.000002374540     0.000002903624    -0.000002753204

  **** Optimization is complete! (in 9 steps) ****
    Final optimized geometry and variables:
    Molecular point group: c1

    Geometry (in Angstrom), charge = 0, multiplicity = 1:

    H            5.340158269346     1.230105843292     0.203336387916
    C            4.711316879221     0.444059579708    -0.203167683336
    C            3.320036844213     0.468302709734     0.428390403461
    H            4.653865115302     0.589702163928    -1.277880989288
    H            5.210121160989    -0.504634106261    -0.023563295314
    C            2.411323913599    -0.637611525406    -0.113664414168
    H            2.859695224502     1.433523082921     0.250282317277
    H            3.413843107076     0.356911625707     1.507555527013
    C            1.014527833578    -0.650543108680     0.507090638629
    H            2.320138567493    -0.537668951305    -1.190206789738
    H            2.877896098284    -1.602007541332     0.074569286089
    C            0.092638645673     0.459041431181     0.030201663107
    H            0.514343087294    -1.594565592802     0.296111840370
    H            1.074671111135    -0.594018670661     1.592736999216
    C           -1.309776483366     0.492339829379     0.614316723531
    O            0.427951521445     1.260169778145    -0.789664212232
    C           -2.283347246476    -0.368199432974    -0.207227188196
    H           -1.640303393615     1.524596681581     0.606098352308
    H           -1.297923185433     0.147166377088     1.644624367104
    C           -3.714365620002    -0.309239519306     0.329939032899
    H           -2.266755111040    -0.027069916951    -1.238721308801
    H           -1.947453962979    -1.402927336089    -0.215082141213
    C           -4.688538347103    -1.156255371269    -0.487808819280
    H           -4.051455230473     0.724521688430     0.337231450857
    H           -3.725211932423    -0.642901976605     1.365289049042
    H           -4.723082444902    -0.825147014786    -1.521581937826
    H           -4.397009584890    -2.202728145578    -0.485349363945
    H           -5.694806641331    -1.092621517700    -0.086075540261

  Mulliken Charges: (a.u.)
   Center  Symbol    Alpha    Beta     Spin     Total
       1     H     0.41943  0.41943  0.00000  0.16114
       2     C     3.24033  3.24033  0.00000 -0.48066
       3     C     3.15608  3.15608  0.00000 -0.31216
       4     H     0.41882  0.41882  0.00000  0.16235
       5     H     0.42422  0.42422  0.00000  0.15156
       6     C     3.14862  3.14862  0.00000 -0.29724
       7     H     0.40637  0.40637  0.00000  0.18726
       8     H     0.42827  0.42827  0.00000  0.14345
       9     C     3.21292  3.21292  0.00000 -0.42583
      10     H     0.40952  0.40952  0.00000  0.18095
      11     H     0.42216  0.42216  0.00000  0.15568
      12     C     2.73588  2.73588  0.00000  0.52823
      13     H     0.40608  0.40608  0.00000  0.18783
      14     H     0.40923  0.40923  0.00000  0.18154
      15     C     3.19728  3.19728  0.00000 -0.39456
      16     O     4.26642  4.26642  0.00000 -0.53283
      17     C     3.16206  3.16206  0.00000 -0.32412
      18     H     0.40078  0.40078  0.00000  0.19845
      19     H     0.41606  0.41606  0.00000  0.16789
      20     C     3.15175  3.15175  0.00000 -0.30349
      21     H     0.40847  0.40847  0.00000  0.18306
      22     H     0.42039  0.42039  0.00000  0.15922
      23     C     3.24038  3.24038  0.00000 -0.48076
      24     H     0.41890  0.41890  0.00000  0.16221
      25     H     0.42205  0.42205  0.00000  0.15589
      26     H     0.41903  0.41903  0.00000  0.16194
      27     H     0.42124  0.42124  0.00000  0.15752
      28     H     0.41727  0.41727  0.00000  0.16546

   Total alpha = 40.00000, Total beta = 40.00000, Total charge =  0.00000
