  ==> Input File <==

--------------------------------------------------------------------------
set {
	reference rhf
	basis 6-31G*
}

set_num_threads( 4 )
memory 2 gb

molecule MOL {
0 1

H	 -3.420663	 1.227371	 -1.044276
O	 -3.452007	 0.283848	 -0.965577
C	 -3.181085	 -0.079926	 0.364119
C	 -1.765924	 0.277073	 0.805136
H	 -3.327791	 -1.152017	 0.410903
H	 -3.905698	 0.375695	 1.036898
C	 -0.677594	 -0.417312	 -0.014550
H	 -1.637766	 1.358238	 0.744969
H	 -1.659588	 0.017670	 1.857098
C	 0.738335	 -0.034840	 0.421385
H	 -0.814977	 -0.178223	 -1.064632
H	 -0.802730	 -1.495410	 0.071702
C	 1.822265	 -0.738362	 -0.399735
H	 0.853533	 1.043532	 0.342250
H	 0.871597	 -0.279636	 1.474438
C	 3.258060	 -0.455774	 0.057203
H	 1.718003	 -0.459167	 -1.447053
H	 1.651028	 -1.811884	 -0.354513
C	 3.673963	 1.014135	 -0.025248
H	 3.936450	 -1.044282	 -0.555769
H	 3.387122	 -0.810873	 1.077718
H	 3.543583	 1.400384	 -1.032696
H	 4.719715	 1.134372	 0.240806
H	 3.094336	 1.638905	 0.646211

	symmetry c1
}
set optking {
	frozen_dihedral = ("
		20 16 13 17
	")
}

ee = optimize('scf')
oeprop('DIPOLE', 'QUADRUPOLE', 'MULLIKEN_CHARGES')
f=open( 'psi4out.xyz', 'w' )
f.write( "24  " )
f.write( str(ee) + "\n" )
f.write( MOL.save_string_xyz() )
f.close()
--------------------------------------------------------------------------

    Molecular point group: c1
  Charge       = 0
  Multiplicity = 1
  Basis Set: 6-31G*
  Basis Set:
  @DF-RHF Final Energy:  -349.24754869239445
    Total Energy =                       -349.2475486923946164
    Molecular point group: c1
  Basis Set: 6-31G*
  Basis Set:
  Basis Set: 6-31G*
  Basis Set:
  @DF-RHF Final Energy:  -349.24749118513620
    Total Energy =                       -349.2474911851360275
  Basis Set: 6-31G*
  Basis Set:
  Basis Set: 6-31G*
  Basis Set:
  @DF-RHF Final Energy:  -349.24756880944079
    Total Energy =                       -349.2475688094409634
  Basis Set: 6-31G*
  Basis Set:
  Charge       = 0
  Multiplicity = 1
  Basis Set: 6-31G*
  Basis Set:

    Orbital Energies (a.u.)
    -----------------------

    Doubly Occupied:

       1A    -20.553572     2A    -11.267714     3A    -11.217482
       4A    -11.214117     5A    -11.212492     6A    -11.211588
       7A    -11.211153     8A    -11.207293     9A     -1.360176
      10A     -1.088600    11A     -1.048294    12A     -0.985537
      13A     -0.915087    14A     -0.850986    15A     -0.800961
      16A     -0.775355    17A     -0.679105    18A     -0.653821
      19A     -0.625999    20A     -0.619467    21A     -0.596311
      22A     -0.584987    23A     -0.557291    24A     -0.541543
      25A     -0.514743    26A     -0.508081    27A     -0.500286
      28A     -0.472696    29A     -0.467517    30A     -0.459544
      31A     -0.454955    32A     -0.450991    33A     -0.419129

  @DF-RHF Final Energy:  -349.24756828163498

   => Energetics <=

    Nuclear Repulsion Energy =            384.5992971381854773
    One-Electron Energy =               -1235.6399905999592193
    Two-Electron Energy =                 501.7931251801388157
    DFT Exchange-Correlation Energy =       0.0000000000000000
    Empirical Dispersion Energy =           0.0000000000000000
    PCM Polarization Energy =               0.0000000000000000
    EFP Energy =                            0.0000000000000000
    Total Energy =                       -349.2475682816349831
    Molecular point group: c1
  Basis Set: 6-31G*
  Basis Set:

  -Total Gradient:
     Atom            X                  Y                   Z
    ------   -----------------  -----------------  -----------------
       1       -0.000000235653    -0.000003561478    -0.000000597617
       2        0.000002924575     0.000007919224     0.000004289595
       3       -0.000006929041    -0.000029185247     0.000012637594
       4        0.000004618720    -0.000038183601     0.000037061067
       5       -0.000003959539     0.000007654857    -0.000000409454
       6        0.000003500527    -0.000001847022    -0.000004262781
       7        0.000013575440    -0.000011052078    -0.000017751393
       8       -0.000000181288    -0.000015161996    -0.000016492145
       9       -0.000003524300     0.000013943972     0.000018035845
      10       -0.000014610939     0.000057989176    -0.000036162414
      11       -0.000006231863     0.000036048065     0.000009104497
      12        0.000002494588    -0.000007173581    -0.000036274838
      13       -0.000281386522     0.001142267563     0.000254623366
      14        0.000010597675    -0.000011751974    -0.000037140939
      15        0.000006034480     0.000029955365    -0.000006259713
      16       -0.000024595801    -0.001046635306     0.000660927836
      17        0.000230150233    -0.000787456646    -0.000191787624
      18        0.000004257871    -0.000035362454    -0.000055017739
      19        0.000010440515     0.000003358659     0.000013920586
      20        0.000044329535     0.000638284750    -0.000592853751
      21       -0.000009096347     0.000034567554     0.000002121674
      22        0.000014333425     0.000004655347    -0.000007869713
      23       -0.000002890002     0.000000967276     0.000004073357
      24        0.000006383712     0.000009759574    -0.000013915294

  **** Optimization is complete! (in 4 steps) ****
    Final optimized geometry and variables:
    Molecular point group: c1

    Geometry (in Angstrom), charge = 0, multiplicity = 1:

    H           -3.431114398987     1.208605110129    -1.056635846440
    O           -3.456114780340     0.265221443209    -0.974532202797
    C           -3.178975836564    -0.092039634612     0.355657112736
    C           -1.764850118235     0.275736418089     0.791168248711
    H           -3.318433382010    -1.164807963909     0.406526261314
    H           -3.904573590369     0.361074374065     1.028988463749
    C           -0.674475036877    -0.412834808877    -0.030688318617
    H           -1.644443013594     1.357604373696     0.728102615073
    H           -1.653186671258     0.019452761105     1.843369611819
    C            0.740219709696    -0.021212887343     0.401121907682
    H           -0.815987587938    -0.175702617378    -1.080669333103
    H           -0.792870442937    -1.491544745177     0.056981667592
    C            1.825475164004    -0.724531493302    -0.417714576961
    H            0.850429506994     1.057025320492     0.315454159419
    H            0.876006269242    -0.259355413111     1.455489435703
    C            3.261381017314    -0.460493597757     0.049568878081
    H            1.731583712889    -0.441299975801    -1.464852452590
    H            1.647298588868    -1.797591173270    -0.382535908593
    C            3.699812300608     1.003139801222    -0.033862628577
    H            3.934554140582    -1.056461086888    -0.561892749674
    H            3.379485720499    -0.814819612104     1.071476377557
    H            3.571800901140     1.392266709270    -1.040602886255
    H            4.748472434503     1.106175285220     0.227934620630
    H            3.133149232051     1.636684298483     0.640301114677

  Mulliken Charges: (a.u.)
   Center  Symbol    Alpha    Beta     Spin     Total
       1     H     0.28339  0.28339  0.00000  0.43323
       2     O     4.36830  4.36830  0.00000 -0.73661
       3     C     2.99616  2.99616  0.00000  0.00769
       4     C     3.16905  3.16905  0.00000 -0.33810
       5     H     0.41631  0.41631  0.00000  0.16737
       6     H     0.42816  0.42816  0.00000  0.14368
       7     C     3.15176  3.15176  0.00000 -0.30352
       8     H     0.42832  0.42832  0.00000  0.14335
       9     H     0.42236  0.42236  0.00000  0.15528
      10     C     3.15377  3.15377  0.00000 -0.30755
      11     H     0.41206  0.41206  0.00000  0.17588
      12     H     0.42358  0.42358  0.00000  0.15284
      13     C     3.15225  3.15225  0.00000 -0.30450
      14     H     0.42265  0.42265  0.00000  0.15470
      15     H     0.42553  0.42553  0.00000  0.14894
      16     C     3.15191  3.15191  0.00000 -0.30382
      17     H     0.42358  0.42358  0.00000  0.15283
      18     H     0.42222  0.42222  0.00000  0.15556
      19     C     3.24136  3.24136  0.00000 -0.48272
      20     H     0.42116  0.42116  0.00000  0.15769
      21     H     0.42366  0.42366  0.00000  0.15267
      22     H     0.42245  0.42245  0.00000  0.15510
      23     H     0.41958  0.41958  0.00000  0.16085
      24     H     0.42043  0.42043  0.00000  0.15914

   Total alpha = 33.00000, Total beta = 33.00000, Total charge =  0.00000
