                              Psi4 1.0.54 Driver

  ==> Input File <==

--------------------------------------------------------------------------
set {
	reference rhf
	basis cc-pvtz
}

set_num_threads( 4 )
memory 2 gb

molecule MOL {
0 1

H	 -3.436473	 1.252944	 -1.023892
O	 -3.458596	 0.315260	 -0.960865
C	 -3.176635	 -0.080824	 0.355601
C	 -1.763371	 0.265266	 0.799691
H	 -3.321825	 -1.153438	 0.379502
H	 -3.895468	 0.357385	 1.043382
C	 -0.673390	 -0.426948	 -0.013392
H	 -1.631049	 1.344913	 0.747560
H	 -1.664587	 -0.001624	 1.849167
C	 0.737842	 -0.043159	 0.423759
H	 -0.806103	 -0.190518	 -1.063345
H	 -0.797221	 -1.503753	 0.074146
C	 1.824000	 -0.743224	 -0.390623
H	 0.850588	 1.033777	 0.343840
H	 0.868587	 -0.286314	 1.476203
C	 3.149693	 0.014506	 -0.481345
H	 1.452040	 -0.934294	 -1.394609
H	 2.014496	 -1.717572	 0.050940
C	 3.082235	 1.328428	 -1.256071
H	 3.881836	 -0.631253	 -0.956464
H	 3.522107	 0.206609	 0.521563
H	 2.707155	 1.168183	 -2.261910
H	 4.065830	 1.776635	 -1.339098
H	 2.435719	 2.051470	 -0.773543

	symmetry c1
}
set optking {
	frozen_dihedral = ("
		17 13 10 7
	")
}

ee,wfn = optimize('scf', return_wfn=True)
oeprop( wfn, 'DIPOLE', 'QUADRUPOLE', 'MULLIKEN_CHARGES')
f=open( 'psi4out.xyz', 'w' )
f.write( "24  " )
f.write( str(ee) + "\n" )
f.write( MOL.save_string_xyz() )
f.close()
--------------------------------------------------------------------------

    Molecular point group: c1
  Charge       = 0
  Multiplicity = 1
  Basis Set: CC-PVTZ
  Basis Set:
  @DF-RHF Final Energy:  -349.37772281681265
    Total Energy =                       -349.3777228168124793
    Molecular point group: c1
  Basis Set: CC-PVTZ
  Basis Set:
  Basis Set: CC-PVTZ
  Basis Set:
  @DF-RHF Final Energy:  -349.37745998003777
    Total Energy =                       -349.3774599800378837
  Basis Set: CC-PVTZ
  Basis Set:
  Basis Set: CC-PVTZ
  Basis Set:
  @DF-RHF Final Energy:  -349.37804704547085
    Total Energy =                       -349.3780470454704528
  Basis Set: CC-PVTZ
  Basis Set:
  Basis Set: CC-PVTZ
  Basis Set:
  @DF-RHF Final Energy:  -349.37811186341111
    Total Energy =                       -349.3781118634112772
  Basis Set: CC-PVTZ
  Basis Set:
  Basis Set: CC-PVTZ
  Basis Set:
  @DF-RHF Final Energy:  -349.37813953355146
    Total Energy =                       -349.3781395335507796
  Basis Set: CC-PVTZ
  Basis Set:
  Basis Set: CC-PVTZ
  Basis Set:
  @DF-RHF Final Energy:  -349.37814287540544
    Total Energy =                       -349.3781428754053877
  Basis Set: CC-PVTZ
  Basis Set:
  Charge       = 0
  Multiplicity = 1
  Basis Set: CC-PVTZ
  Basis Set:

    Orbital Energies (a.u.)
    -----------------------

    Doubly Occupied:

       1A    -20.546309     2A    -11.265526     3A    -11.215086
       4A    -11.212469     5A    -11.210132     6A    -11.209278
       7A    -11.209051     8A    -11.205290     9A     -1.364169
      10A     -1.089103    11A     -1.049346    12A     -0.986522
      13A     -0.916310    14A     -0.850290    15A     -0.801059
      16A     -0.778901    17A     -0.681796    18A     -0.654688
      19A     -0.625257    20A     -0.620208    21A     -0.600462
      22A     -0.579640    23A     -0.566356    24A     -0.536405
      25A     -0.517508    26A     -0.512504    27A     -0.496488
      28A     -0.474451    29A     -0.468047    30A     -0.461518
      31A     -0.456268    32A     -0.449274    33A     -0.420982

  @DF-RHF Final Energy:  -349.37814346282232

   => Energetics <=

    Nuclear Repulsion Energy =            385.9464323197223621
    One-Electron Energy =               -1238.5877686902326786
    Two-Electron Energy =                 503.2631929076882216
    DFT Exchange-Correlation Energy =       0.0000000000000000
    Empirical Dispersion Energy =           0.0000000000000000
    PCM Polarization Energy =               0.0000000000000000
    EFP Energy =                            0.0000000000000000
    Total Energy =                       -349.3781434628220950
    Molecular point group: c1
  Basis Set: CC-PVTZ
  Basis Set:

  -Total Gradient:
     Atom            X                  Y                   Z
    ------   -----------------  -----------------  -----------------
       1        0.000003164836    -0.000015723782     0.000012778455
       2        0.000002407048    -0.000014987156     0.000000904793
       3       -0.000005539410     0.000028291588     0.000008069244
       4       -0.000003223533    -0.000010577748    -0.000005913936
       5       -0.000003085600     0.000012705063    -0.000011095693
       6       -0.000002272998    -0.000001586095    -0.000010021238
       7        0.000008435697     0.002128940870    -0.001778806967
       8        0.000002528372    -0.000014796738    -0.000001670842
       9        0.000008961640    -0.000003285134    -0.000011782717
      10       -0.000327223873    -0.003755314341     0.002791112188
      11       -0.000008393360    -0.000002599125     0.000006623591
      12        0.000003588434     0.000019034368     0.000006565414
      13        0.001648548136     0.005038520756    -0.002082312248
      14       -0.000015628135    -0.000043464730     0.000006871306
      15       -0.000014405627     0.000012806197    -0.000014868890
      16        0.000011674512    -0.000014079427    -0.000029356805
      17       -0.001328431178    -0.003382811581     0.001094757547
      18        0.000007326851     0.000019020351    -0.000001669586
      19        0.000002580722     0.000013786909     0.000015221668
      20       -0.000001142869     0.000008005764     0.000005760678
      21       -0.000001434552     0.000016560905    -0.000024532645
      22        0.000009608675     0.000000213359     0.000041960376
      23       -0.000031059094    -0.000017315701     0.000001281082
      24        0.000033015311    -0.000021344571    -0.000019874772

  **** Optimization is complete! (in 7 steps) ****
    Final optimized geometry and variables:
    Molecular point group: c1

    Geometry (in Angstrom), charge = 0, multiplicity = 1:

    H           -3.361736338852     1.228364204734    -0.727730969872
    O           -3.382392497614     0.288579812179    -0.721586009245
    C           -3.100623824719    -0.185707476252     0.568731829669
    C           -1.687546186277     0.133824041310     1.033039230152
    H           -3.245171807282    -1.257873323697     0.527609861788
    H           -3.820043298455     0.209700461280     1.281366707884
    C           -0.597254316230    -0.504879639828     0.178152188131
    H           -1.556317723597     1.214873299655     1.047707786603
    H           -1.587856899437    -0.197203306175     2.063896625407
    C            0.814125052549    -0.133138851067     0.625143290062
    H           -0.733899099448    -0.211435575652    -0.856328733471
    H           -0.715037801506    -1.586200950897     0.205824418440
    C            1.910998670417    -0.830865152709    -0.188637047763
    H            0.921848359192     0.944402345461     0.543426511628
    H            0.945099840138    -0.366634910835     1.678202291923
    C            3.251443001376    -0.096104604177    -0.229061655766
    H            1.555976384421    -1.016045531647    -1.199139365941
    H            2.071496766114    -1.818431450448     0.235430592548
    C            3.259680547280     1.152369963501    -1.107788083137
    H            4.012437058103    -0.779111993528    -0.593455280407
    H            3.544672530767     0.170185549605     0.783290447689
    H            3.015704035338     0.902907410257    -2.135133071544
    H            4.237851250966     1.619723623465    -1.105310466373
    H            2.544911132258     1.893551506004    -0.770569160464

  Mulliken Charges: (a.u.)
   Center  Symbol    Alpha    Beta     Spin     Total
       1     H     0.39527  0.39527  0.00000  0.20946
       2     O     4.20369  4.20369  0.00000 -0.40739
       3     C     2.97762  2.97762  0.00000  0.04475
       4     C     3.10249  3.10249  0.00000 -0.20499
       5     H     0.45885  0.45885  0.00000  0.08231
       6     H     0.46020  0.46020  0.00000  0.07960
       7     C     3.08768  3.08768  0.00000 -0.17535
       8     H     0.45909  0.45909  0.00000  0.08183
       9     H     0.45309  0.45309  0.00000  0.09382
      10     C     3.09409  3.09409  0.00000 -0.18817
      11     H     0.44618  0.44618  0.00000  0.10763
      12     H     0.45475  0.45475  0.00000  0.09051
      13     C     3.09639  3.09639  0.00000 -0.19277
      14     H     0.45435  0.45435  0.00000  0.09130
      15     H     0.45215  0.45215  0.00000  0.09570
      16     C     3.09024  3.09024  0.00000 -0.18048
      17     H     0.45388  0.45388  0.00000  0.09224
      18     H     0.44943  0.44943  0.00000  0.10114
      19     C     3.14930  3.14930  0.00000 -0.29861
      20     H     0.44839  0.44839  0.00000  0.10322
      21     H     0.45512  0.45512  0.00000  0.08976
      22     H     0.45447  0.45447  0.00000  0.09105
      23     H     0.44767  0.44767  0.00000  0.10465
      24     H     0.45560  0.45560  0.00000  0.08880

   Total alpha = 33.00000, Total beta = 33.00000, Total charge =  0.00000

*** Psi4 exiting successfully. Buy a developer a beer!
