                              Psi4 1.0.54 Driver

  ==> Input File <==

--------------------------------------------------------------------------
set {
	reference rhf
	basis cc-pvtz
}

set_num_threads( 4 )
memory 2 gb

molecule MOL {
0 1

H	 -2.151415	 -0.200778	 -2.026779
O	 -2.220469	 -0.151384	 -1.090995
C	 -1.127764	 0.545268	 -0.561076
C	 0.137045	 -0.289124	 -0.603985
H	 -0.962382	 1.483470	 -1.081224
H	 -1.370240	 0.778423	 0.465825
O	 1.172093	 0.457955	 -0.054438
H	 0.367931	 -0.562228	 -1.635005
H	 -0.017251	 -1.211908	 -0.048794
C	 2.395478	 -0.199028	 -0.000366
H	 2.505946	 -0.901710	 -0.823354
H	 3.174616	 0.545641	 -0.071768
H	 2.513730	 -0.742241	 0.934223

	symmetry c1
}
set optking {
	frozen_dihedral = ("
		4 7 10 13
	")
}

ee,wfn = optimize('scf', return_wfn=True)
oeprop( wfn, 'DIPOLE', 'QUADRUPOLE', 'MULLIKEN_CHARGES')
f=open( 'psi4out.xyz', 'w' )
f.write( "13  " )
f.write( str(ee) + "\n" )
f.write( MOL.save_string_xyz() )
f.close()
--------------------------------------------------------------------------

    Molecular point group: c1
  Charge       = 0
  Multiplicity = 1
  Basis Set: CC-PVTZ
  Basis Set:
  @DF-RHF Final Energy:  -268.06048218903015
    Total Energy =                       -268.0604821890300400
    Molecular point group: c1
  Basis Set: CC-PVTZ
  Basis Set:
  Basis Set: CC-PVTZ
  Basis Set:
  @DF-RHF Final Energy:  -268.06057071381724
    Total Energy =                       -268.0605707138170146
  Basis Set: CC-PVTZ
  Basis Set:
  Basis Set: CC-PVTZ
  Basis Set:
  @DF-RHF Final Energy:  -268.06058371506526
    Total Energy =                       -268.0605837150653201
  Basis Set: CC-PVTZ
  Basis Set:
  Charge       = 0
  Multiplicity = 1
  Basis Set: CC-PVTZ
  Basis Set:

    Orbital Energies (a.u.)
    -----------------------

    Doubly Occupied:

       1A    -20.554412     2A    -20.552721     3A    -11.269494
       4A    -11.267512     5A    -11.267221     6A     -1.389867
       7A     -1.368841     8A     -1.019631     9A     -0.914140
      10A     -0.842583    11A     -0.711349    12A     -0.675296
      13A     -0.662522    14A     -0.637650    15A     -0.598843
      16A     -0.569732    17A     -0.549363    18A     -0.490821
      19A     -0.483690    20A     -0.441464    21A     -0.421931

  @DF-RHF Final Energy:  -268.06058391316026

   => Energetics <=

    Nuclear Repulsion Energy =            190.3240462287202206
    One-Electron Energy =                -743.3911000641192004
    Two-Electron Energy =                 285.0064699222386935
    DFT Exchange-Correlation Energy =       0.0000000000000000
    Empirical Dispersion Energy =           0.0000000000000000
    PCM Polarization Energy =               0.0000000000000000
    EFP Energy =                            0.0000000000000000
    Total Energy =                       -268.0605839131602579
    Molecular point group: c1
  Basis Set: CC-PVTZ
  Basis Set:

  -Total Gradient:
     Atom            X                  Y                   Z
    ------   -----------------  -----------------  -----------------
       1       -0.000012465575    -0.000005738644    -0.000004350330
       2       -0.000037957494    -0.000000848319    -0.000031582472
       3        0.000004958965    -0.000019117141     0.000003425105
       4        0.000503092574     0.000777235192    -0.002056109182
       5       -0.000004945453     0.000003936457     0.000003564838
       6        0.000018303008     0.000001125809    -0.000002689127
       7       -0.000338431422    -0.000486485834     0.003310641325
       8        0.000007704465     0.000012428888     0.000010771794
       9       -0.000001019149     0.000005106958    -0.000007696175
      10       -0.001311597289    -0.002621280753    -0.002366147480
      11       -0.000005900812     0.000001843838    -0.000004220084
      12        0.000012882387     0.000002383730     0.000001522598
      13        0.001165375786     0.002329409820     0.001142869191

  **** Optimization is complete! (in 4 steps) ****
    Final optimized geometry and variables:
    Molecular point group: c1

    Geometry (in Angstrom), charge = 0, multiplicity = 1:

    H           -2.219594243977    -0.255865750749    -1.532070891061
    O           -2.283393440161    -0.201338786686    -0.596195302462
    C           -1.181187711729     0.487360369995    -0.075300716500
    C            0.075309512327    -0.359255624245    -0.120357590548
    H           -1.008846412031     1.421043132031    -0.601371399587
    H           -1.416301750678     0.728667473222     0.951405285112
    O            1.121144437298     0.386834661933     0.411382694468
    H            0.295688082871    -0.643173484115    -1.150075845977
    H           -0.085662809353    -1.275252621546     0.444307294239
    C            2.349587520182    -0.265898844512     0.475522594130
    H            2.476396200033    -0.970193190423    -0.341008591164
    H            3.129497719737     0.480625882405     0.409095233915
    H            2.465924497310    -0.789114864448     1.420532997627

  Mulliken Charges: (a.u.)
   Center  Symbol    Alpha    Beta     Spin     Total
       1     H     0.39410  0.39410  0.00000  0.21179
       2     O     4.20214  4.20214  0.00000 -0.40429
       3     C     2.97431  2.97431  0.00000  0.05137
       4     C     2.96501  2.96501  0.00000  0.06998
       5     H     0.46718  0.46718  0.00000  0.06565
       6     H     0.45258  0.45258  0.00000  0.09484
       7     O     4.17780  4.17780  0.00000 -0.35560
       8     H     0.48087  0.48087  0.00000  0.03827
       9     H     0.47050  0.47050  0.00000  0.05900
      10     C     3.02968  3.02968  0.00000 -0.05935
      11     H     0.47251  0.47251  0.00000  0.05499
      12     H     0.45005  0.45005  0.00000  0.09989
      13     H     0.46327  0.46327  0.00000  0.07346

   Total alpha = 21.00000, Total beta = 21.00000, Total charge = -0.00000

*** Psi4 exiting successfully. Buy a developer a beer!
