                              Psi4 1.0.54 Driver

  ==> Input File <==

--------------------------------------------------------------------------
set {
	reference rhf
	basis cc-pvtz
}

set_num_threads( 4 )
memory 2 gb

molecule MOL {
0 1

H	 -2.006988	 -0.736961	 -2.685293
N	 -1.077894	 -0.833587	 -2.335266
C	 -1.081224	 -1.391678	 -0.995614
H	 -0.662843	 0.073963	 -2.326222
C	 0.330872	 -1.523542	 -0.472886
H	 -1.657937	 -0.803739	 -0.282680
H	 -1.522480	 -2.381598	 -1.033033
O	 0.881195	 -0.248324	 -0.336237
H	 0.322496	 -2.032446	 0.489983
H	 0.923471	 -2.115833	 -1.166389
C	 2.208068	 -0.234417	 0.074171
H	 2.725499	 -1.027054	 -0.446768
H	 2.688377	 0.712084	 -0.164856
H	 2.295137	 -0.403407	 1.144883

	symmetry c1
}
set optking {
	frozen_dihedral = ("
		5 8 11 13
	")
}

ee,wfn = optimize('scf', return_wfn=True)
oeprop( wfn, 'DIPOLE', 'QUADRUPOLE', 'MULLIKEN_CHARGES')
f=open( 'psi4out.xyz', 'w' )
f.write( "14  " )
f.write( str(ee) + "\n" )
f.write( MOL.save_string_xyz() )
f.close()
--------------------------------------------------------------------------

    Molecular point group: c1
  Charge       = 0
  Multiplicity = 1
  Basis Set: CC-PVTZ
  Basis Set:
  @DF-RHF Final Energy:  -248.22438144307392
    Total Energy =                       -248.2243814430739803
    Molecular point group: c1
  Basis Set: CC-PVTZ
  Basis Set:
  Basis Set: CC-PVTZ
  Basis Set:
  @DF-RHF Final Energy:  -248.22511522371772
    Total Energy =                       -248.2251152237176939
  Basis Set: CC-PVTZ
  Basis Set:
  Basis Set: CC-PVTZ
  Basis Set:
  @DF-RHF Final Energy:  -248.22531083796878
    Total Energy =                       -248.2253108379686637
  Basis Set: CC-PVTZ
  Basis Set:
  Charge       = 0
  Multiplicity = 1
  Basis Set: CC-PVTZ
  Basis Set:

    Orbital Energies (a.u.)
    -----------------------

    Doubly Occupied:

       1A    -20.550012     2A    -15.523408     3A    -11.264107
       4A    -11.263509     5A    -11.239764     6A     -1.383626
       7A     -1.175878     8A     -1.000637     9A     -0.907735
      10A     -0.815742    11A     -0.684875    12A     -0.675848
      13A     -0.646782    14A     -0.612428    15A     -0.607655
      16A     -0.541723    17A     -0.531707    18A     -0.497469
      19A     -0.474084    20A     -0.419277    21A     -0.383777

  @DF-RHF Final Energy:  -248.22531163033975

   => Energetics <=

    Nuclear Repulsion Energy =            194.6503326976726669
    One-Electron Energy =                -723.3511971404386713
    Two-Electron Energy =                 280.4755528124261446
    DFT Exchange-Correlation Energy =       0.0000000000000000
    Empirical Dispersion Energy =           0.0000000000000000
    PCM Polarization Energy =               0.0000000000000000
    EFP Energy =                            0.0000000000000000
    Total Energy =                       -248.2253116303398883
    Molecular point group: c1
  Basis Set: CC-PVTZ
  Basis Set:

  -Total Gradient:
     Atom            X                  Y                   Z
    ------   -----------------  -----------------  -----------------
       1       -0.000000762140     0.000003676036    -0.000006078173
       2       -0.000007635165     0.000006211678    -0.000020200173
       3        0.000041556319     0.000090326132     0.000012932757
       4       -0.000000340753     0.000003660871    -0.000003634863
       5        0.000647154466    -0.000160896058    -0.001763132186
       6       -0.000010323632     0.000002046508     0.000004279305
       7        0.000044037629     0.000001654784     0.000014605381
       8       -0.000655523076    -0.000075902146     0.002102785297
       9        0.000006269970     0.000011707504     0.000002722213
      10        0.000021121779     0.000030129203    -0.000007241148
      11       -0.000673923127     0.000985812102     0.001771599985
      12       -0.000010240180    -0.000018297507    -0.000011831951
      13        0.000631401522    -0.000882808736    -0.002102422151
      14       -0.000032793610     0.000002679630     0.000005615709

  **** Optimization is complete! (in 4 steps) ****
    Final optimized geometry and variables:
    Molecular point group: c1

    Geometry (in Angstrom), charge = 0, multiplicity = 1:

    H           -2.264227867793     0.077948243780    -1.872232069515
    N           -1.335670182770    -0.016313811319    -1.520187710339
    C           -1.340518674163    -0.570974128358    -0.179138192550
    H           -0.922132398225     0.891900113437    -1.512740468319
    C            0.070850337725    -0.697508652821     0.346993475995
    H           -1.920732738634     0.016921949057     0.530960148098
    H           -1.778459992155    -1.562463011867    -0.214742125594
    O            0.617751102987     0.580251215917     0.474789036803
    H            0.059945589680    -1.202784125870     1.312018787153
    H            0.666464944291    -1.290734899339    -0.342294693295
    C            1.941766365481     0.612990112012     0.897040932145
    H            2.532744317550    -0.157463153236     0.408150161606
    H            2.357489195807     1.573063814821     0.625476711592
    H            2.020463926056     0.476111918557     1.972640704417

  Mulliken Charges: (a.u.)
   Center  Symbol    Alpha    Beta     Spin     Total
       1     H     0.43026  0.43026  0.00000  0.13948
       2     N     3.69421  3.69421  0.00000 -0.38842
       3     C     3.02239  3.02239  0.00000 -0.04478
       4     H     0.42240  0.42240  0.00000  0.15521
       5     C     2.96936  2.96936  0.00000  0.06128
       6     H     0.46453  0.46453  0.00000  0.07094
       7     H     0.45872  0.45872  0.00000  0.08257
       8     O     4.18113  4.18113  0.00000 -0.36227
       9     H     0.47096  0.47096  0.00000  0.05808
      10     H     0.46704  0.46704  0.00000  0.06591
      11     C     3.03056  3.03056  0.00000 -0.06112
      12     H     0.47289  0.47289  0.00000  0.05421
      13     H     0.44899  0.44899  0.00000  0.10202
      14     H     0.46655  0.46655  0.00000  0.06690

   Total alpha = 21.00000, Total beta = 21.00000, Total charge =  0.00000

*** Psi4 exiting successfully. Buy a developer a beer!
