  ==> Input File <==

--------------------------------------------------------------------------
set {
	reference rhf
	basis 6-31G*
}

set_num_threads( 1 )
memory 2 gb

molecule MOL {
0 1

H	 2.591676	 2.013956	 0.335017
O	 3.341076	 1.666752	 -0.126416
C	 3.569581	 0.339145	 0.272707
C	 2.539767	 -0.640285	 -0.279495
H	 4.553106	 0.084646	 -0.100901
H	 3.608576	 0.269204	 1.359154
C	 2.500821	 -1.982457	 0.455303
H	 1.560048	 -0.171671	 -0.235701
H	 2.763452	 -0.810220	 -1.331376
C	 1.495869	 -2.962576	 -0.156461
H	 2.251408	 -1.811172	 1.498768
H	 3.493505	 -2.432657	 0.439839
C	 1.477866	 -4.353032	 0.489021
H	 0.498272	 -2.529916	 -0.106926
H	 1.723961	 -3.076983	 -1.214093
C	 0.982375	 -4.384784	 1.937455
H	 0.839762	 -4.999541	 -0.109866
H	 2.476222	 -4.785111	 0.439717
C	 0.882381	 -5.803366	 2.502310
H	 0.005124	 -3.907299	 1.993124
H	 1.643785	 -3.800022	 2.572193
C	 0.394134	 -5.837498	 3.950107
H	 0.210216	 -6.391508	 1.881207
H	 1.855734	 -6.285452	 2.438568
H	 -0.592213	 -5.391485	 4.041836
H	 0.332029	 -6.856010	 4.320797
H	 1.065947	 -5.288350	 4.603917

	symmetry c1
}
set optking {
	frozen_dihedral = ("
		14 10 7 4,
		14 10 13 16,
		10 7 4 8,
		10 13 16 20,
		20 16 19 22,
		4 3 2 1
	")
}

ee = energy('scf')
oeprop('DIPOLE', 'QUADRUPOLE', 'MULLIKEN_CHARGES')
f=open( 'psi4out.xyz', 'w' )
f.write( "27  " )
f.write( str(ee) + "\n" )
f.write( MOL.save_string_xyz() )
f.close()
--------------------------------------------------------------------------

    Molecular point group: c1

    Geometry (in Angstrom), charge = 0, multiplicity = 1:

       Center              X                  Y                   Z               Mass
    ------------   -----------------  -----------------  -----------------  -----------------
           H          0.665410728175     4.607000267336    -0.671879399129     1.007825032070
           O          1.414810728175     4.259796267336    -1.133312399129    15.994914619560
           C          1.643315728175     2.932189267336    -0.734189399129    12.000000000000
           C          0.613501728175     1.952759267336    -1.286391399129    12.000000000000
           H          2.626840728175     2.677690267336    -1.107797399129     1.007825032070
           H          1.682310728175     2.862248267336     0.352257600871     1.007825032070
           C          0.574555728175     0.610587267336    -0.551593399129    12.000000000000
           H         -0.366217271825     2.421373267336    -1.242597399129     1.007825032070
           H          0.837186728175     1.782824267336    -2.338272399129     1.007825032070
           C         -0.430396271825    -0.369531732664    -1.163357399129    12.000000000000
           H          0.325142728175     0.781872267336     0.491871600871     1.007825032070
           H          1.567239728175     0.160387267336    -0.567057399129     1.007825032070
           C         -0.448399271825    -1.759987732664    -0.517875399129    12.000000000000
           H         -1.427993271825     0.063128267336    -1.113822399129     1.007825032070
           H         -0.202304271825    -0.483938732664    -2.220989399129     1.007825032070
           C         -0.943890271825    -1.791739732664     0.930558600871    12.000000000000
           H         -1.086503271825    -2.406496732664    -1.116762399129     1.007825032070
           H          0.549956728175    -2.192066732664    -0.567179399129     1.007825032070
           C         -1.043884271825    -3.210321732664     1.495413600871    12.000000000000
           H         -1.921141271825    -1.314254732664     0.986227600871     1.007825032070
           H         -0.282480271825    -1.206977732664     1.565296600871     1.007825032070
           C         -1.532131271825    -3.244453732664     2.943210600871    12.000000000000
           H         -1.716049271825    -3.798463732664     0.874310600871     1.007825032070
           H         -0.070531271825    -3.692407732664     1.431671600871     1.007825032070
           H         -2.518478271825    -2.798440732664     3.034939600871     1.007825032070
           H         -1.594236271825    -4.262965732664     3.313900600871     1.007825032070
           H         -0.860318271825    -2.695305732664     3.597020600871     1.007825032070

  Charge       = 0
  Multiplicity = 1
  Basis Set: 6-31G*
  Basis Set:

    Orbital Energies (a.u.)
    -----------------------

    Doubly Occupied:

       1A    -20.552079     2A    -11.266769     3A    -11.218997
       4A    -11.216601     5A    -11.215870     6A    -11.215124
       7A    -11.214904     8A    -11.213968     9A    -11.209422
      10A     -1.358543    11A     -1.095165    12A     -1.062127
      13A     -1.011504    14A     -0.945843    15A     -0.883935
      16A     -0.822107    17A     -0.804182    18A     -0.778012
      19A     -0.692645    20A     -0.649294    21A     -0.644048
      22A     -0.607572    23A     -0.603395    24A     -0.585966
      25A     -0.572453    26A     -0.552612    27A     -0.546002
      28A     -0.520734    29A     -0.509931    30A     -0.497983
      31A     -0.482176    32A     -0.475087    33A     -0.463487
      34A     -0.460406    35A     -0.455412    36A     -0.443169
      37A     -0.420854

  @DF-RHF Final Energy:  -388.28022748458716

   => Energetics <=

    Nuclear Repulsion Energy =            453.1839939495910130
    One-Electron Energy =               -1424.3915463931186878
    Two-Electron Energy =                 582.9273249589427905
    DFT Exchange-Correlation Energy =       0.0000000000000000
    Empirical Dispersion Energy =           0.0000000000000000
    PCM Polarization Energy =               0.0000000000000000
    EFP Energy =                            0.0000000000000000
    Total Energy =                       -388.2802274845848842

  Mulliken Charges: (a.u.)
   Center  Symbol    Alpha    Beta     Spin     Total
       1     H     0.28290  0.28290  0.00000  0.43420
       2     O     4.37128  4.37128  0.00000 -0.74256
       3     C     2.99086  2.99086  0.00000  0.01829
       4     C     3.16411  3.16411  0.00000 -0.32822
       5     H     0.41591  0.41591  0.00000  0.16819
       6     H     0.43208  0.43208  0.00000  0.13583
       7     C     3.16199  3.16199  0.00000 -0.32398
       8     H     0.42564  0.42564  0.00000  0.14871
       9     H     0.41623  0.41623  0.00000  0.16755
      10     C     3.15253  3.15253  0.00000 -0.30507
      11     H     0.42131  0.42131  0.00000  0.15737
      12     H     0.42289  0.42289  0.00000  0.15421
      13     C     3.15333  3.15333  0.00000 -0.30666
      14     H     0.42354  0.42354  0.00000  0.15291
      15     H     0.42068  0.42068  0.00000  0.15865
      16     C     3.15277  3.15277  0.00000 -0.30553
      17     H     0.42133  0.42133  0.00000  0.15733
      18     H     0.42366  0.42366  0.00000  0.15268
      19     C     3.15118  3.15118  0.00000 -0.30236
      20     H     0.42480  0.42480  0.00000  0.15039
      21     H     0.42261  0.42261  0.00000  0.15477
      22     C     3.23920  3.23920  0.00000 -0.47840
      23     H     0.42296  0.42296  0.00000  0.15409
      24     H     0.42293  0.42293  0.00000  0.15415
      25     H     0.42195  0.42195  0.00000  0.15610
      26     H     0.41920  0.41920  0.00000  0.16161
      27     H     0.42212  0.42212  0.00000  0.15575

   Total alpha = 37.00000, Total beta = 37.00000, Total charge =  0.00000
