  ==> Input File <==

--------------------------------------------------------------------------
set {
	reference rhf
	basis 6-31G*
}

set_num_threads( 4 )
memory 2 gb

molecule MOL {
0 1

O	 0.391030	 1.298905	 0.000133
C	 0.503002	 0.111612	 0.000005
C	 -0.702327	 -0.811998	 -0.000075
C	 1.863306	 -0.554493	 0.000030
C	 -1.867581	 -0.295093	 -0.835027
H	 -0.375251	 -1.787788	 -0.354514
H	 -1.005426	 -0.965533	 1.034006
H	 -1.575751	 -0.164919	 -1.869971
H	 -2.697515	 -0.993034	 -0.798384
H	 -2.211514	 0.664624	 -0.469142
H	 1.974395	 -1.189404	 -0.874166
H	 2.638695	 0.198920	 -0.000196
H	 1.974487	 -1.188655	 0.874727

	symmetry c1
}
set optking {
	frozen_dihedral = ("
		6 3 2 1
	")
}

ee = optimize('scf')
oeprop('DIPOLE', 'QUADRUPOLE', 'MULLIKEN_CHARGES')
f=open( 'psi4out.xyz', 'w' )
f.write( "13  " )
f.write( str(ee) + "\n" )
f.write( MOL.save_string_xyz() )
f.close()
--------------------------------------------------------------------------

    Molecular point group: c1
  Charge       = 0
  Multiplicity = 1
  Basis Set: 6-31G*
  Basis Set:
  @DF-RHF Final Energy:  -230.99611193635181
    Total Energy =                       -230.9961119363520083
    Molecular point group: c1
  Basis Set: 6-31G*
  Basis Set:
  Basis Set: 6-31G*
  Basis Set:
  @DF-RHF Final Energy:  -230.99526285434240
    Total Energy =                       -230.9952628543424282
  Basis Set: 6-31G*
  Basis Set:
  Basis Set: 6-31G*
  Basis Set:
  @DF-RHF Final Energy:  -230.99631278785949
    Total Energy =                       -230.9963127878596651
  Basis Set: 6-31G*
  Basis Set:
  Basis Set: 6-31G*
  Basis Set:
  @DF-RHF Final Energy:  -230.99661992847874
    Total Energy =                       -230.9966199284786512
  Basis Set: 6-31G*
  Basis Set:
  Basis Set: 6-31G*
  Basis Set:
  @DF-RHF Final Energy:  -230.99662752425434
    Total Energy =                       -230.9966275242543645
  Basis Set: 6-31G*
  Basis Set:
  Basis Set: 6-31G*
  Basis Set:
  @DF-RHF Final Energy:  -230.99663057759363
    Total Energy =                       -230.9966305775937769
  Basis Set: 6-31G*
  Basis Set:
  Charge       = 0
  Multiplicity = 1
  Basis Set: 6-31G*
  Basis Set:

    Orbital Energies (a.u.)
    -----------------------

    Doubly Occupied:

       1A    -20.549826     2A    -11.326963     3A    -11.234469
       4A    -11.229495     5A    -11.217243     6A     -1.395816
       7A     -1.061421     8A     -1.000615     9A     -0.879088
      10A     -0.730655    11A     -0.657926    12A     -0.641229
      13A     -0.616477    14A     -0.585881    15A     -0.571239
      16A     -0.526163    17A     -0.519285    18A     -0.504962
      19A     -0.480745    20A     -0.401432

  @DF-RHF Final Energy:  -230.99663064252388

   => Energetics <=

    Nuclear Repulsion Energy =            176.8185920176313175
    One-Electron Energy =                -663.3685861901501539
    Two-Electron Energy =                 255.5533635299949538
    DFT Exchange-Correlation Energy =       0.0000000000000000
    Empirical Dispersion Energy =           0.0000000000000000
    PCM Polarization Energy =               0.0000000000000000
    EFP Energy =                            0.0000000000000000
    Total Energy =                       -230.9966306425238827
    Molecular point group: c1
  Basis Set: 6-31G*
  Basis Set:

  -Total Gradient:
     Atom            X                  Y                   Z
    ------   -----------------  -----------------  -----------------
       1       -0.000016517620     0.000035423541     0.001785815129
       2        0.000107794317    -0.000148859915    -0.002104986161
       3       -0.000464875162     0.000563836746    -0.001366141217
       4       -0.000011540852     0.000004954335     0.000000422630
       5        0.000002289234     0.000006242239    -0.000001871961
       6        0.000377997703    -0.000449467792     0.001686241976
       7       -0.000000177986    -0.000000547571     0.000000061788
       8       -0.000000235709    -0.000000492753     0.000000611714
       9        0.000004932939     0.000000041627     0.000003255754
      10       -0.000001633927     0.000004487913    -0.000001649144
      11        0.000002401370    -0.000005492217    -0.000003058324
      12       -0.000002289512    -0.000006086032    -0.000000352216
      13        0.000001855203    -0.000004040125     0.000001650032

  **** Optimization is complete! (in 7 steps) ****
    Final optimized geometry and variables:
    Molecular point group: c1

    Geometry (in Angstrom), charge = 0, multiplicity = 1:

    O            0.344639433947     1.337399157814     0.128537513771
    C            0.474990365346     0.151816044830     0.149870785705
    C           -0.728423096650    -0.777419009388     0.166339886587
    C            1.840559597300    -0.495274339079     0.210311141046
    C           -1.915141049024    -0.243460185534    -0.631343551353
    H           -0.436810899975    -1.769653565791    -0.164756016070
    H           -1.006868114779    -0.887112396981     1.214022029466
    H           -1.671608523117    -0.160898537136    -1.685507359136
    H           -2.767630399916    -0.907193670969    -0.534709129596
    H           -2.199728348119     0.738694393276    -0.278085971488
    H            2.023752939117    -1.051811730576    -0.704981540939
    H            2.603345471150     0.261332116264     0.330089153799
    H            1.891478643366    -1.203919018948     1.032039689919

  Mulliken Charges: (a.u.)
   Center  Symbol    Alpha    Beta     Spin     Total
       1     O     4.26226  4.26226  0.00000 -0.52452
       2     C     2.73548  2.73548  0.00000  0.52903
       3     C     3.20634  3.20634  0.00000 -0.41268
       4     C     3.28847  3.28847  0.00000 -0.57695
       5     C     3.23967  3.23967  0.00000 -0.47935
       6     H     0.41416  0.41416  0.00000  0.17168
       7     H     0.40352  0.40352  0.00000  0.19297
       8     H     0.41702  0.41702  0.00000  0.16597
       9     H     0.41788  0.41788  0.00000  0.16425
      10     H     0.40214  0.40214  0.00000  0.19572
      11     H     0.40698  0.40698  0.00000  0.18603
      12     H     0.39679  0.39679  0.00000  0.20643
      13     H     0.40930  0.40930  0.00000  0.18141

   Total alpha = 20.00000, Total beta = 20.00000, Total charge =  0.00000
