  ==> Input File <==

--------------------------------------------------------------------------
set {
	reference rhf
	basis 6-31G*
}

set_num_threads( 1 )
memory 2 gb

molecule MOL {
0 1

O	 0.749854	 1.307668	 -0.000040
C	 0.576249	 0.131685	 -0.000108
C	 -0.766779	 -0.556801	 -0.000461
O	 1.568443	 -0.749345	 -0.000005
C	 -1.945214	 0.412366	 0.000161
H	 -0.796911	 -1.211249	 -0.867467
H	 -0.796854	 -1.212390	 0.865687
C	 -3.287791	 -0.317055	 0.000105
H	 -1.876087	 1.060580	 -0.866812
H	 -1.875822	 1.059691	 0.867761
H	 -3.394745	 -0.949193	 -0.877058
H	 -4.111778	 0.388953	 0.000015
H	 -3.394954	 -0.949187	 0.877259
C	 1.629947	 -1.647869	 1.092734
H	 1.746153	 -1.108705	 2.021894
H	 2.490783	 -2.272718	 0.912757
H	 0.733796	 -2.249622	 1.140865

	symmetry c1
}
set optking {
	frozen_dihedral = ("
		1 2 3 6,
		9 5 3 6
	")
}

ee = energy('scf')
oeprop('DIPOLE', 'QUADRUPOLE', 'MULLIKEN_CHARGES')
f=open( 'psi4out.xyz', 'w' )
f.write( "17  " )
f.write( str(ee) + "\n" )
f.write( MOL.save_string_xyz() )
f.close()
--------------------------------------------------------------------------

    Molecular point group: c1

    Geometry (in Angstrom), charge = 0, multiplicity = 1:

       Center              X                  Y                   Z               Mass
    ------------   -----------------  -----------------  -----------------  -----------------
           O          0.943908310103     1.526187322278    -0.168704283036    15.994914619560
           C          0.770303310103     0.350204322278    -0.168772283036    12.000000000000
           C         -0.572724689897    -0.338281677722    -0.169125283036    12.000000000000
           O          1.762497310103    -0.530825677722    -0.168669283036    15.994914619560
           C         -1.751159689897     0.630885322278    -0.168503283036    12.000000000000
           H         -0.602856689897    -0.992729677722    -1.036131283036     1.007825032070
           H         -0.602799689897    -0.993870677722     0.697022716964     1.007825032070
           C         -3.093736689897    -0.098535677722    -0.168559283036    12.000000000000
           H         -1.682032689897     1.279099322278    -1.035476283036     1.007825032070
           H         -1.681767689897     1.278210322278     0.699096716964     1.007825032070
           H         -3.200690689897    -0.730673677722    -1.045722283036     1.007825032070
           H         -3.917723689897     0.607472322278    -0.168649283036     1.007825032070
           H         -3.200899689897    -0.730667677722     0.708594716964     1.007825032070
           C          1.824001310103    -1.429349677722     0.924069716964    12.000000000000
           H          1.940207310103    -0.890185677722     1.853229716964     1.007825032070
           H          2.684837310103    -2.054198677722     0.744092716964     1.007825032070
           H          0.927850310103    -2.031102677722     0.972200716964     1.007825032070

  Charge       = 0
  Multiplicity = 1
  Basis Set: 6-31G*
  Basis Set:

    Orbital Energies (a.u.)
    -----------------------

    Doubly Occupied:

       1A    -20.593268     2A    -20.553551     3A    -11.374572
       4A    -11.297528     5A    -11.239051     6A    -11.224443
       7A    -11.217217     8A     -1.465355     9A     -1.369742
      10A     -1.081371    11A     -0.992339    12A     -0.965620
      13A     -0.838482    14A     -0.767678    15A     -0.700625
      16A     -0.682348    17A     -0.680902    18A     -0.641058
      19A     -0.615623    20A     -0.578207    21A     -0.567931
      22A     -0.552479    23A     -0.518809    24A     -0.493602
      25A     -0.489344    26A     -0.481081    27A     -0.456998
      28A     -0.433321

  @DF-RHF Final Energy:  -344.88138542991834

   => Energetics <=

    Nuclear Repulsion Energy =            315.3421994296185744
    One-Electron Energy =               -1094.7020441947117888
    Two-Electron Energy =                 434.4784593351758417
    DFT Exchange-Correlation Energy =       0.0000000000000000
    Empirical Dispersion Energy =           0.0000000000000000
    PCM Polarization Energy =               0.0000000000000000
    EFP Energy =                            0.0000000000000000
    Total Energy =                       -344.8813854299173158

  Mulliken Charges: (a.u.)
   Center  Symbol    Alpha    Beta     Spin     Total
       1     O     4.25993  4.25993  0.00000 -0.51986
       2     C     2.60812  2.60812  0.00000  0.78376
       3     C     3.22338  3.22338  0.00000 -0.44676
       4     O     4.30508  4.30508  0.00000 -0.61015
       5     C     3.15056  3.15056  0.00000 -0.30113
       6     H     0.39902  0.39902  0.00000  0.20196
       7     H     0.40752  0.40752  0.00000  0.18497
       8     C     3.24254  3.24254  0.00000 -0.48507
       9     H     0.40895  0.40895  0.00000  0.18209
      10     H     0.41145  0.41145  0.00000  0.17711
      11     H     0.42128  0.42128  0.00000  0.15745
      12     H     0.41451  0.41451  0.00000  0.17098
      13     H     0.42302  0.42302  0.00000  0.15395
      14     C     3.09790  3.09790  0.00000 -0.19579
      15     H     0.41071  0.41071  0.00000  0.17857
      16     H     0.39866  0.39866  0.00000  0.20268
      17     H     0.41738  0.41738  0.00000  0.16525

   Total alpha = 28.00000, Total beta = 28.00000, Total charge = -0.00000
