  ==> Input File <==

--------------------------------------------------------------------------
set {
	reference rhf
	basis cc-pvtz
}

set_num_threads( 4 )
memory 2 gb

molecule MOL {
0 1

H	 -3.162190	 0.493205	 -0.000107
C	 -2.363908	 -0.234727	 0.000005
O	 -1.158738	 0.454634	 -0.000087
H	 -2.464314	 -0.863616	 -0.882153
H	 -2.464327	 -0.863359	 0.882345
C	 -0.116610	 -0.205937	 -0.646563
C	 1.134427	 0.646334	 -0.576325
H	 -0.383080	 -0.397150	 -1.686308
H	 0.061126	 -1.173622	 -0.176841
C	 2.325775	 -0.010325	 -1.264685
H	 0.923402	 1.607768	 -1.031340
H	 1.364098	 0.837418	 0.466119
H	 2.126013	 -0.188568	 -2.316070
H	 3.204666	 0.619230	 -1.199645
H	 2.569841	 -0.963910	 -0.808423

	symmetry c1
}
set optking {
	frozen_dihedral = ("
		6 3 2 4
	")
}

ee = optimize('scf')
oeprop('DIPOLE', 'QUADRUPOLE', 'MULLIKEN_CHARGES')
f=open( 'psi4out.xyz', 'w' )
f.write( "15  " )
f.write( str(ee) + "\n" )
f.write( MOL.save_string_xyz() )
f.close()
--------------------------------------------------------------------------

    Molecular point group: c1
  Charge       = 0
  Multiplicity = 1
  Basis Set: CC-PVTZ
  Basis Set:
  @DF-RHF Final Energy:  -232.22624356002149
    Total Energy =                       -232.2262435600213735
    Molecular point group: c1
  Basis Set: CC-PVTZ
  Basis Set:
  Basis Set: CC-PVTZ
  Basis Set:
  @DF-RHF Final Energy:  -232.22634202190815
    Total Energy =                       -232.2263420219080672
  Basis Set: CC-PVTZ
  Basis Set:
  Basis Set: CC-PVTZ
  Basis Set:
  @DF-RHF Final Energy:  -232.22637512888519
    Total Energy =                       -232.2263751288852518
  Basis Set: CC-PVTZ
  Basis Set:
  Charge       = 0
  Multiplicity = 1
  Basis Set: CC-PVTZ
  Basis Set:

    Orbital Energies (a.u.)
    -----------------------

    Doubly Occupied:

       1A    -20.545744     2A    -11.264745     3A    -11.261558
       4A    -11.212521     5A    -11.210623     6A     -1.379347
       7A     -1.058259     8A     -0.956120     9A     -0.877458
      10A     -0.809466    11A     -0.674886    12A     -0.655118
      13A     -0.632316    14A     -0.607997    15A     -0.564805
      16A     -0.542847    17A     -0.503306    18A     -0.490590
      19A     -0.478722    20A     -0.462586    21A     -0.413497

  @DF-RHF Final Energy:  -232.22637536245236

   => Energetics <=

    Nuclear Repulsion Energy =            189.8354489692613924
    One-Electron Energy =                -690.9186275661638774
    Two-Electron Energy =                 268.8568032344503536
    DFT Exchange-Correlation Energy =       0.0000000000000000
    Empirical Dispersion Energy =           0.0000000000000000
    PCM Polarization Energy =               0.0000000000000000
    EFP Energy =                            0.0000000000000000
    Total Energy =                       -232.2263753624521314
    Molecular point group: c1
  Basis Set: CC-PVTZ
  Basis Set:

  -Total Gradient:
     Atom            X                  Y                   Z
    ------   -----------------  -----------------  -----------------
       1       -0.000020100688     0.000002635079    -0.000005476920
       2       -0.001820933649     0.003218135335    -0.002652673317
       3        0.001098021097    -0.002062765608     0.003230149826
       4        0.001243759654    -0.002136429116     0.001417279404
       5        0.000011915634     0.000000192077    -0.000004248850
       6       -0.000537811133     0.000977270086    -0.001958264157
       7       -0.000003988790    -0.000013807145    -0.000014025972
       8       -0.000002410883     0.000007896239     0.000014071385
       9       -0.000005250309     0.000005261062    -0.000007668701
      10        0.000030297193     0.000012010394    -0.000006100797
      11        0.000003370061    -0.000000512780     0.000001625950
      12       -0.000010077221    -0.000007165438    -0.000007178510
      13        0.000001333901    -0.000000401156     0.000001088016
      14        0.000014778876    -0.000005900198    -0.000008066654
      15       -0.000002903743     0.000003581170    -0.000000510703

  **** Optimization is complete! (in 4 steps) ****
    Final optimized geometry and variables:
    Molecular point group: c1

    Geometry (in Angstrom), charge = 0, multiplicity = 1:

    H           -3.107964537431     0.380227981234     0.513014794852
    C           -2.306424315457    -0.344976652255     0.498053140106
    O           -1.092491429813     0.334619907760     0.483096721055
    H           -2.419833306454    -0.985876630815    -0.371929590031
    H           -2.388947658313    -0.974007508792     1.381434164904
    C           -0.045395528276    -0.328433460977    -0.153850537342
    C            1.203485620169     0.526487712292    -0.077480101008
    H           -0.305449926394    -0.521286083092    -1.194225599573
    H            0.134621146789    -1.294834051946     0.318162329492
    C            2.398374239162    -0.125510435844    -0.764460329309
    H            0.991034039020     1.488618710934    -0.530573290854
    H            1.430111236171     0.715675678928     0.965988783737
    H            2.201929567461    -0.301135462758    -1.816965864582
    H            3.275858987386     0.505709454089    -0.695229673151
    H            2.643259930901    -1.079941736222    -0.310292550513

  Mulliken Charges: (a.u.)
   Center  Symbol    Alpha    Beta     Spin     Total
       1     H     0.45041  0.45041  0.00000  0.09919
       2     C     3.03129  3.03129  0.00000 -0.06259
       3     O     4.17417  4.17417  0.00000 -0.34835
       4     H     0.47424  0.47424  0.00000  0.05152
       5     H     0.46535  0.46535  0.00000  0.06930
       6     C     2.95580  2.95580  0.00000  0.08840
       7     C     3.08127  3.08127  0.00000 -0.16253
       8     H     0.47463  0.47463  0.00000  0.05073
       9     H     0.47680  0.47680  0.00000  0.04641
      10     C     3.15582  3.15582  0.00000 -0.31165
      11     H     0.45120  0.45120  0.00000  0.09759
      12     H     0.45100  0.45100  0.00000  0.09800
      13     H     0.45593  0.45593  0.00000  0.08814
      14     H     0.44626  0.44626  0.00000  0.10749
      15     H     0.45583  0.45583  0.00000  0.08834

   Total alpha = 21.00000, Total beta = 21.00000, Total charge =  0.00000
