  ==> Input File <==

--------------------------------------------------------------------------
set {
	reference rhf
	basis 6-31G*
}

set_num_threads( 4 )
memory 2 gb

molecule MOL {
0 1

H	 -3.418136	 -0.936192	 0.401055
O	 -3.118845	 -0.149100	 -0.033141
C	 -1.777441	 -0.060400	 -0.004252
C	 -0.983069	 -1.030351	 0.600040
C	 -1.197852	 1.049081	 -0.606907
H	 -1.440292	 -1.887189	 1.064891
C	 0.388502	 -0.886781	 0.599214
H	 -1.831758	 1.783470	 -1.066372
C	 0.175327	 1.178548	 -0.599539
H	 1.013519	 -1.627408	 1.061733
C	 0.984182	 0.218375	 0.000000
H	 0.624977	 2.038139	 -1.066422
C	 2.452467	 0.370529	 0.000000
O	 3.228994	 -0.533774	 0.000000
H	 2.809473	 1.405765	 0.000000

	symmetry c1
}
set optking {
	frozen_dihedral = ("
		7 11 13 14
	")
}

ee = optimize('scf')
oeprop('DIPOLE', 'QUADRUPOLE', 'MULLIKEN_CHARGES')
f=open( 'psi4out.xyz', 'w' )
f.write( "15  " )
f.write( str(ee) + "\n" )
f.write( MOL.save_string_xyz() )
f.close()
--------------------------------------------------------------------------

    Molecular point group: c1
  Charge       = 0
  Multiplicity = 1
  Basis Set: 6-31G*
  Basis Set:
  @DF-RHF Final Energy:  -418.28609867892294
    Total Energy =                       -418.2860986789231674
    Molecular point group: c1
  Basis Set: 6-31G*
  Basis Set:
  Basis Set: 6-31G*
  Basis Set:
  @DF-RHF Final Energy:  -418.28468473416081
    Total Energy =                       -418.2846847341608054
  Basis Set: 6-31G*
  Basis Set:
  Basis Set: 6-31G*
  Basis Set:
  @DF-RHF Final Energy:  -418.28649728095172
    Total Energy =                       -418.2864972809518349
  Basis Set: 6-31G*
  Basis Set:
  Basis Set: 6-31G*
  Basis Set:
  @DF-RHF Final Energy:  -418.28661096271429
    Total Energy =                       -418.2866109627145761
  Basis Set: 6-31G*
  Basis Set:
  Basis Set: 6-31G*
  Basis Set:
  @DF-RHF Final Energy:  -418.28661289284065
    Total Energy =                       -418.2866128928405942
  Basis Set: 6-31G*
  Basis Set:
  Charge       = 0
  Multiplicity = 1
  Basis Set: 6-31G*
  Basis Set:

    Orbital Energies (a.u.)
    -----------------------

    Doubly Occupied:

       1A    -20.609686     2A    -20.558609     3A    -11.329045
       4A    -11.322023     5A    -11.259472     6A    -11.257017
       7A    -11.244098     8A    -11.239822     9A    -11.238757
      10A     -1.430557    11A     -1.399151    12A     -1.170359
      13A     -1.040804    14A     -1.038548    15A     -0.888391
      16A     -0.866589    17A     -0.795180    18A     -0.756467
      19A     -0.713083    20A     -0.667512    21A     -0.643040
      22A     -0.628648    23A     -0.607807    24A     -0.607050
      25A     -0.584984    26A     -0.560232    27A     -0.542427
      28A     -0.506102    29A     -0.485239    30A     -0.419429
      31A     -0.357225    32A     -0.325867

  @DF-RHF Final Energy:  -418.28661461921263

   => Energetics <=

    Nuclear Repulsion Energy =            401.0913552119051246
    One-Electron Energy =               -1364.5695049944686161
    Two-Electron Energy =                 545.1915351633508635
    DFT Exchange-Correlation Energy =       0.0000000000000000
    Empirical Dispersion Energy =           0.0000000000000000
    PCM Polarization Energy =               0.0000000000000000
    EFP Energy =                            0.0000000000000000
    Total Energy =                       -418.2866146192126280
    Molecular point group: c1
  Basis Set: 6-31G*
  Basis Set:

  -Total Gradient:
     Atom            X                  Y                   Z
    ------   -----------------  -----------------  -----------------
       1       -0.000001907913     0.000006009591     0.000006022298
       2       -0.000000595318    -0.000031464003    -0.000015563721
       3       -0.000013979316     0.000110867995     0.000009248744
       4        0.000069143796    -0.000017094545     0.000024335128
       5       -0.000056666315    -0.000085587755    -0.000044963203
       6       -0.000010701434    -0.000003496598    -0.000012802500
       7       -0.000546667785     0.002824968074     0.004657285754
       8        0.000006639099    -0.000001806193    -0.000004456793
       9        0.000070448964    -0.000008512427     0.000092261037
      10        0.000004980747     0.000006747897    -0.000001236457
      11        0.000792010339    -0.004236327490    -0.009937600647
      12       -0.000001168005    -0.000004232017    -0.000007626324
      13       -0.000574650815     0.001664928248     0.011929947635
      14        0.000251367455    -0.000216838230    -0.006699513889
      15        0.000011746491    -0.000008162546     0.000004662940

  **** Optimization is complete! (in 6 steps) ****
    Final optimized geometry and variables:
    Molecular point group: c1

    Geometry (in Angstrom), charge = 0, multiplicity = 1:

    H           -3.421942587103    -0.933020191271     0.398131030148
    O           -3.122548236496    -0.143614463600    -0.031548805230
    C           -1.779641762459    -0.061323230595    -0.009455527027
    C           -0.986180915236    -1.029938653646     0.594542410325
    C           -1.198369209305     1.048365829446    -0.610708252866
    H           -1.443064941725    -1.878834491487     1.074017023045
    C            0.387673238411    -0.894750527092     0.579051193065
    H           -1.831535046871     1.788437239995    -1.062248589067
    C            0.174293397524     1.180578779659    -0.598659429488
    H            1.009657110341    -1.640792056216     1.037816871579
    C            0.984642291165     0.199665787024    -0.035063567890
    H            0.622351343191     2.051893577245    -1.044950054244
    C            2.453441889437     0.374801764096     0.008991544434
    O            3.238263171030    -0.519916821685     0.063648330599
    H            2.801088008079     1.410400155854    -0.063232756412

  Mulliken Charges: (a.u.)
   Center  Symbol    Alpha    Beta     Spin     Total
       1     H     0.26877  0.26877  0.00000  0.46246
       2     O     4.37350  4.37350  0.00000 -0.74700
       3     C     2.78646  2.78646  0.00000  0.42708
       4     C     3.14674  3.14674  0.00000 -0.29347
       5     C     3.12701  3.12701  0.00000 -0.25403
       6     H     0.39823  0.39823  0.00000  0.20354
       7     C     3.08156  3.08156  0.00000 -0.16313
       8     H     0.38651  0.38651  0.00000  0.22697
       9     C     3.09300  3.09300  0.00000 -0.18599
      10     H     0.37758  0.37758  0.00000  0.24485
      11     C     3.05980  3.05980  0.00000 -0.11961
      12     H     0.39036  0.39036  0.00000  0.21928
      13     C     2.83824  2.83824  0.00000  0.32352
      14     O     4.24747  4.24747  0.00000 -0.49493
      15     H     0.42477  0.42477  0.00000  0.15046

   Total alpha = 32.00000, Total beta = 32.00000, Total charge =  0.00000
