  ==> Input File <==

--------------------------------------------------------------------------
set {
	reference rhf
	basis cc-pvtz
}

set_num_threads( 4 )
memory 2 gb

molecule MOL {
0 1

H	 -4.234298	 0.514878	 0.080133
O	 -3.519076	 -0.043113	 -0.163382
C	 -2.302264	 0.528872	 0.237390
C	 -1.175688	 -0.398187	 -0.171891
H	 -2.168016	 1.503123	 -0.227997
H	 -2.287590	 0.676140	 1.315317
C	 0.196029	 0.106276	 0.266738
H	 -1.201873	 -0.515469	 -1.250677
H	 -1.365975	 -1.378728	 0.252664
C	 1.330220	 -0.826136	 -0.155230
H	 0.359542	 1.097229	 -0.145561
H	 0.212134	 0.218135	 1.348778
C	 2.719700	 -0.407669	 0.328325
H	 1.339388	 -0.911200	 -1.239363
H	 1.119001	 -1.821953	 0.224128
C	 3.241564	 0.893452	 -0.276737
H	 3.418299	 -1.204729	 0.093035
H	 2.711776	 -0.323368	 1.411960
H	 3.254204	 0.841071	 -1.360784
H	 2.634460	 1.745075	 0.005842
H	 4.254264	 1.092401	 0.054971

	symmetry c1
}
set optking {
	frozen_dihedral = ("
		2 3 4 8
	")
}

ee = optimize('scf')
oeprop('DIPOLE', 'QUADRUPOLE', 'MULLIKEN_CHARGES')
f=open( 'psi4out.xyz', 'w' )
f.write( "21  " )
f.write( str(ee) + "\n" )
f.write( MOL.save_string_xyz() )
f.close()
--------------------------------------------------------------------------

    Molecular point group: c1
  Charge       = 0
  Multiplicity = 1
  Basis Set: CC-PVTZ
  Basis Set:
  @DF-RHF Final Energy:  -310.33304030833301
    Total Energy =                       -310.3330403083330111
    Molecular point group: c1
  Basis Set: CC-PVTZ
  Basis Set:
  Basis Set: CC-PVTZ
  Basis Set:
  @DF-RHF Final Energy:  -310.33304222455604
    Total Energy =                       -310.3330422245564932
  Basis Set: CC-PVTZ
  Basis Set:
  Charge       = 0
  Multiplicity = 1
  Basis Set: CC-PVTZ
  Basis Set:

    Orbital Energies (a.u.)
    -----------------------

    Doubly Occupied:

       1A    -20.545362     2A    -11.264976     3A    -11.213145
       4A    -11.213051     5A    -11.211267     6A    -11.208969
       7A    -11.206099     8A     -1.363205     9A     -1.087484
      10A     -1.034473    11A     -0.955497    12A     -0.876474
      13A     -0.807608    14A     -0.779201    15A     -0.696241
      16A     -0.662841    17A     -0.623479    18A     -0.607911
      19A     -0.588454    20A     -0.571550    21A     -0.537356
      22A     -0.520877    23A     -0.511959    24A     -0.487370
      25A     -0.480337    26A     -0.460809    27A     -0.456162
      28A     -0.444248    29A     -0.437364

  @DF-RHF Final Energy:  -310.33304211005202

   => Energetics <=

    Nuclear Repulsion Energy =            312.9635183371244693
    One-Electron Energy =               -1040.8855846488063435
    Two-Electron Energy =                 417.5890242016295133
    DFT Exchange-Correlation Energy =       0.0000000000000000
    Empirical Dispersion Energy =           0.0000000000000000
    PCM Polarization Energy =               0.0000000000000000
    EFP Energy =                            0.0000000000000000
    Total Energy =                       -310.3330421100523608
    Molecular point group: c1
  Basis Set: CC-PVTZ
  Basis Set:

  -Total Gradient:
     Atom            X                  Y                   Z
    ------   -----------------  -----------------  -----------------
       1        0.000004256133    -0.000011918587    -0.000002259923
       2       -0.000037578860    -0.000160703577     0.000337356967
       3        0.000108813674     0.000320930262    -0.000451732446
       4       -0.000348925220    -0.000543240560     0.000219757123
       5        0.000025312298     0.000016489866     0.000022852768
       6       -0.000034675651    -0.000019834596    -0.000005472217
       7       -0.000012223029     0.000000314303    -0.000077312889
       8        0.000343902103     0.000378048963    -0.000075492819
       9       -0.000016375548     0.000021285775     0.000041688290
      10       -0.000007240845    -0.000020359602     0.000025380406
      11        0.000047300472     0.000056028462     0.000005273438
      12       -0.000023569724    -0.000027892804    -0.000031980525
      13        0.000022185521    -0.000019234530    -0.000045660505
      14        0.000009013316    -0.000015056921     0.000014131704
      15       -0.000022745767     0.000013676460     0.000016137875
      16       -0.000025070776    -0.000003813636     0.000012438515
      17        0.000007154724     0.000016087408    -0.000016612850
      18        0.000005050422    -0.000015927755    -0.000009396705
      19        0.000003289988    -0.000011074212     0.000017177671
      20       -0.000043509113     0.000015865914    -0.000006023354
      21       -0.000004364122     0.000010329365     0.000009749476

  **** Optimization is complete! (in 3 steps) ****
    Final optimized geometry and variables:
    Molecular point group: c1

    Geometry (in Angstrom), charge = 0, multiplicity = 1:

    H           -4.231019657358     0.528599595343     0.063552997297
    O           -3.517886835296    -0.036625423694    -0.168958621892
    C           -2.299502883525     0.534196010946     0.228694083035
    C           -1.175232688369    -0.398799860550    -0.173525420544
    H           -2.161460523914     1.505672470559    -0.241215069704
    H           -2.285818160846     0.686669470472     1.305947505939
    C            0.197550533270     0.108511339213     0.258499324011
    H           -1.199892348558    -0.524074408400    -1.251488845636
    H           -1.366677939286    -1.374643671439     0.260741789451
    C            1.331082204918    -0.823997254378    -0.164616132213
    H            0.358861579544     1.098458457784    -0.157280204833
    H            0.217125522677     0.223434554054     1.340034589779
    C            2.720917009943    -0.405579867720     0.317758198309
    H            1.339359693942    -0.908773063452    -1.248739436656
    H            1.119917975384    -1.819810162548     0.214767263129
    C            3.237752827173     0.900749773616    -0.280133521105
    H            3.420819869972    -1.199290225234     0.075259788724
    H            2.715792026478    -0.328331296660     1.401898075320
    H            3.248306286349     0.855124142971    -1.364478661360
    H            2.628642761558     1.748721985032     0.008992257752
    H            4.250511966337     1.100640415388     0.050778410726

  Mulliken Charges: (a.u.)
   Center  Symbol    Alpha    Beta     Spin     Total
       1     H     0.39760  0.39760  0.00000  0.20479
       2     O     4.19428  4.19428  0.00000 -0.38856
       3     C     2.96329  2.96329  0.00000  0.07341
       4     C     3.08368  3.08368  0.00000 -0.16736
       5     H     0.47464  0.47464  0.00000  0.05072
       6     H     0.47528  0.47528  0.00000  0.04944
       7     C     3.10334  3.10334  0.00000 -0.20668
       8     H     0.45136  0.45136  0.00000  0.09728
       9     H     0.45015  0.45015  0.00000  0.09971
      10     C     3.09427  3.09427  0.00000 -0.18855
      11     H     0.45376  0.45376  0.00000  0.09247
      12     H     0.45535  0.45535  0.00000  0.08930
      13     C     3.08984  3.08984  0.00000 -0.17968
      14     H     0.45316  0.45316  0.00000  0.09369
      15     H     0.44881  0.44881  0.00000  0.10239
      16     C     3.15247  3.15247  0.00000 -0.30493
      17     H     0.44844  0.44844  0.00000  0.10311
      18     H     0.45495  0.45495  0.00000  0.09010
      19     H     0.45464  0.45464  0.00000  0.09072
      20     H     0.45424  0.45424  0.00000  0.09153
      21     H     0.44645  0.44645  0.00000  0.10710

   Total alpha = 29.00000, Total beta = 29.00000, Total charge = -0.00000
