  ==> Input File <==

--------------------------------------------------------------------------
set {
	reference rhf
	basis 6-31G*
}

set_num_threads( 4 )
memory 2 gb

molecule MOL {
0 1

H	 -3.407059	 -1.043082	 0.000000
O	 -3.119761	 -0.140267	 0.000000
C	 -1.777559	 -0.059267	 0.000000
C	 -1.104118	 1.090169	 -0.402835
C	 -1.070440	 -1.178174	 0.422013
H	 -1.659760	 1.953022	 -0.728500
C	 0.274546	 1.116030	 -0.382003
H	 -1.612549	 -2.052730	 0.727861
C	 0.308146	 -1.136909	 0.437247
H	 0.807090	 1.996137	 -0.690078
C	 0.997126	 0.003899	 0.037887
H	 0.856597	 -2.003725	 0.764194
C	 2.472822	 0.033243	 0.059581
O	 3.138412	 0.967213	 -0.265146
H	 2.948058	 -0.890636	 0.405654

	symmetry c1
}
set optking {
	frozen_dihedral = ("
		5 3 2 1
	")
}

ee = optimize('scf')
oeprop('DIPOLE', 'QUADRUPOLE', 'MULLIKEN_CHARGES')
f=open( 'psi4out.xyz', 'w' )
f.write( "15  " )
f.write( str(ee) + "\n" )
f.write( MOL.save_string_xyz() )
f.close()
--------------------------------------------------------------------------

    Molecular point group: c1
  Charge       = 0
  Multiplicity = 1
  Basis Set: 6-31G*
  Basis Set:
  @DF-RHF Final Energy:  -418.28702565235483
    Total Energy =                       -418.2870256523550552
    Molecular point group: c1
  Basis Set: 6-31G*
  Basis Set:
  Basis Set: 6-31G*
  Basis Set:
  @DF-RHF Final Energy:  -418.28897117875692
    Total Energy =                       -418.2889711787566966
  Basis Set: 6-31G*
  Basis Set:
  Basis Set: 6-31G*
  Basis Set:
  @DF-RHF Final Energy:  -418.28913439641900
    Total Energy =                       -418.2891343964190582
  Basis Set: 6-31G*
  Basis Set:
  Basis Set: 6-31G*
  Basis Set:
  @DF-RHF Final Energy:  -418.28848752619047
    Total Energy =                       -418.2884875261897832
  Basis Set: 6-31G*
  Basis Set:
  Basis Set: 6-31G*
  Basis Set:
  @DF-RHF Final Energy:  -418.28916056751450
    Total Energy =                       -418.2891605675143865
  Basis Set: 6-31G*
  Basis Set:
  Basis Set: 6-31G*
  Basis Set:
  @DF-RHF Final Energy:  -418.28916327592435
    Total Energy =                       -418.2891632759249205
  Basis Set: 6-31G*
  Basis Set:
  Charge       = 0
  Multiplicity = 1
  Basis Set: 6-31G*
  Basis Set:

    Orbital Energies (a.u.)
    -----------------------

    Doubly Occupied:

       1A    -20.609337     2A    -20.556199     3A    -11.328216
       4A    -11.322902     5A    -11.263206     6A    -11.253636
       7A    -11.245155     8A    -11.239454     9A    -11.237978
      10A     -1.430007    11A     -1.397424    12A     -1.170626
      13A     -1.042845    14A     -1.036970    15A     -0.893137
      16A     -0.858107    17A     -0.802377    18A     -0.756266
      19A     -0.696040    20A     -0.684799    21A     -0.639883
      22A     -0.624508    23A     -0.613592    24A     -0.607639
      25A     -0.575691    26A     -0.556393    27A     -0.549162
      28A     -0.506026    29A     -0.483757    30A     -0.418700
      31A     -0.357074    32A     -0.328286

  @DF-RHF Final Energy:  -418.28916368806290

   => Energetics <=

    Nuclear Repulsion Energy =            401.2872588521289572
    One-Electron Energy =               -1364.9820615631301735
    Two-Electron Energy =                 545.4056390229386579
    DFT Exchange-Correlation Energy =       0.0000000000000000
    Empirical Dispersion Energy =           0.0000000000000000
    PCM Polarization Energy =               0.0000000000000000
    EFP Energy =                            0.0000000000000000
    Total Energy =                       -418.2891636880625583
    Molecular point group: c1
  Basis Set: 6-31G*
  Basis Set:

  -Total Gradient:
     Atom            X                  Y                   Z
    ------   -----------------  -----------------  -----------------
       1        0.000011364726    -0.000032115409    -0.002301424953
       2       -0.000085252716     0.000358322267     0.003804838216
       3        0.000035396031    -0.000979503496    -0.003168084151
       4        0.000096443564     0.000030497843     0.000020119978
       5       -0.000063431844     0.000604733547     0.001637014298
       6       -0.000012661530    -0.000006695168     0.000001477991
       7       -0.000032464338     0.000020394977     0.000007020633
       8        0.000004514375     0.000007936595    -0.000000771920
       9        0.000038709382     0.000018014584     0.000019923837
      10        0.000001482370    -0.000003221079    -0.000005961090
      11       -0.000004285835    -0.000027664364    -0.000006253963
      12        0.000010364092     0.000003342707    -0.000005865989
      13        0.000011383752    -0.000005812528     0.000002712943
      14        0.000006583422     0.000006766676    -0.000001638168
      15       -0.000018145445     0.000005002847    -0.000003107661

  **** Optimization is complete! (in 7 steps) ****
    Final optimized geometry and variables:
    Molecular point group: c1

    Geometry (in Angstrom), charge = 0, multiplicity = 1:

    H           -3.471357676922    -1.028951176681     0.007170208893
    O           -3.116206895280    -0.150761151540    -0.005410474944
    C           -1.769461566560    -0.172750050503     0.009071544664
    C           -1.107790573327     0.988010029061    -0.387551450086
    C           -1.052813722892    -1.279500580642     0.438447851913
    H           -1.689641918277     1.831247574830    -0.708718929990
    C            0.266142098612     1.027290536876    -0.362114308728
    H           -1.569629254504    -2.167113665423     0.759938006495
    C            0.330484971212    -1.227739619379     0.452053947661
    H            0.791708511759     1.912582455316    -0.667290976196
    C            1.003253316759    -0.082656809582     0.055731539321
    H            0.885983528967    -2.088934790123     0.781746171655
    C            2.478843234898    -0.040363791130     0.078407474716
    O            3.136428945760     0.899348142149    -0.245311591652
    H            2.961955727719    -0.960317755640     0.424202462582

  Mulliken Charges: (a.u.)
   Center  Symbol    Alpha    Beta     Spin     Total
       1     H     0.26910  0.26910  0.00000  0.46180
       2     O     4.37366  4.37366  0.00000 -0.74732
       3     C     2.78777  2.78777  0.00000  0.42447
       4     C     3.12588  3.12588  0.00000 -0.25176
       5     C     3.14651  3.14651  0.00000 -0.29303
       6     H     0.38552  0.38552  0.00000  0.22895
       7     C     3.07949  3.07949  0.00000 -0.15899
       8     H     0.39807  0.39807  0.00000  0.20386
       9     C     3.09251  3.09251  0.00000 -0.18502
      10     H     0.37470  0.37470  0.00000  0.25060
      11     C     3.06707  3.06707  0.00000 -0.13414
      12     H     0.38990  0.38990  0.00000  0.22020
      13     C     2.83066  2.83066  0.00000  0.33868
      14     O     4.25382  4.25382  0.00000 -0.50763
      15     H     0.42533  0.42533  0.00000  0.14934

   Total alpha = 32.00000, Total beta = 32.00000, Total charge = -0.00000
