  ==> Input File <==

--------------------------------------------------------------------------
set {
	reference rhf
	basis cc-pvtz
}

set_num_threads( 4 )
memory 2 gb

molecule MOL {
0 1

H	 -3.268214	 -0.875720	 0.463107
C	 -2.806015	 0.000007	 0.024886
N	 -1.391133	 0.000016	 0.301321
H	 -3.029448	 0.000055	 -1.045738
H	 -3.268126	 0.875758	 0.463150
C	 -1.047474	 -0.860171	 1.412875
C	 -0.869769	 1.334599	 0.502814
H	 -1.525337	 -0.525845	 2.338468
H	 -1.403869	 -1.861942	 1.204256
C	 0.455349	 -0.896711	 1.618304
H	 -1.096424	 1.935098	 -0.370180
H	 -1.335514	 1.818539	 1.366371
C	 0.633054	 1.298059	 0.708242
H	 0.682004	 -1.497210	 2.491298
H	 0.921095	 -1.380651	 0.754746
N	 0.976713	 0.437872	 1.819797
H	 0.989449	 2.299830	 0.916862
H	 1.110917	 0.963733	 -0.217351
C	 2.391595	 0.437881	 2.096232
H	 2.597366	 -0.166941	 2.970538
H	 2.727948	 1.446475	 2.301575
H	 2.986336	 0.045686	 1.266397

	symmetry c1
}
set optking {
	frozen_dihedral = ("
		6 3 2 4
	")
}

ee = optimize('scf')
oeprop('DIPOLE', 'QUADRUPOLE', 'MULLIKEN_CHARGES')
f=open( 'psi4out.xyz', 'w' )
f.write( "22  " )
f.write( str(ee) + "\n" )
f.write( MOL.save_string_xyz() )
f.close()
--------------------------------------------------------------------------

    Molecular point group: c1
  Charge       = 0
  Multiplicity = 1
  Basis Set: CC-PVTZ
  Basis Set:
  @DF-RHF Final Energy:  -344.34584046000100
    Total Energy =                       -344.3458404600007725
    Molecular point group: c1
  Basis Set: CC-PVTZ
  Basis Set:
  Basis Set: CC-PVTZ
  Basis Set:
  @DF-RHF Final Energy:  -344.34679509753761
    Total Energy =                       -344.3467950975376652
  Basis Set: CC-PVTZ
  Basis Set:
  Basis Set: CC-PVTZ
  Basis Set:
  @DF-RHF Final Energy:  -344.34691304100500
    Total Energy =                       -344.3469130410048820
  Basis Set: CC-PVTZ
  Basis Set:
  Basis Set: CC-PVTZ
  Basis Set:
  @DF-RHF Final Energy:  -344.34692125389978
    Total Energy =                       -344.3469212539000637
  Basis Set: CC-PVTZ
  Basis Set:
  Charge       = 0
  Multiplicity = 1
  Basis Set: CC-PVTZ
  Basis Set:

    Orbital Energies (a.u.)
    -----------------------

    Doubly Occupied:

       1A    -15.537371     2A    -15.534194     3A    -11.237524
       4A    -11.237314     5A    -11.236551     6A    -11.236536
       7A    -11.234064     8A    -11.234030     9A     -1.255828
      10A     -1.204297    11A     -1.025998    12A     -0.992329
      13A     -0.912679    14A     -0.868302    15A     -0.836338
      16A     -0.753898    17A     -0.666291    18A     -0.637501
      19A     -0.631642    20A     -0.626062    21A     -0.621980
      22A     -0.581211    23A     -0.551060    24A     -0.548828
      25A     -0.542971    26A     -0.519409    27A     -0.496577
      28A     -0.488971    29A     -0.467090    30A     -0.457214
      31A     -0.351380    32A     -0.341782

  @DF-RHF Final Energy:  -344.34692192005838

   => Energetics <=

    Nuclear Repulsion Energy =            421.5513369290789001
    One-Electron Energy =               -1302.0620708965261656
    Two-Electron Energy =                 536.1638120473887739
    DFT Exchange-Correlation Energy =       0.0000000000000000
    Empirical Dispersion Energy =           0.0000000000000000
    PCM Polarization Energy =               0.0000000000000000
    EFP Energy =                            0.0000000000000000
    Total Energy =                       -344.3469219200585485
    Molecular point group: c1
  Basis Set: CC-PVTZ
  Basis Set:

  -Total Gradient:
     Atom            X                  Y                   Z
    ------   -----------------  -----------------  -----------------
       1       -0.000010291894    -0.000018816171     0.000006812229
       2        0.000114437937     0.004800579946    -0.000782442058
       3       -0.000734330542     0.002511414791     0.003223576337
       4        0.000085138534    -0.004621599034    -0.000125511189
       5        0.000017560066    -0.000029452783     0.000004791071
       6        0.000542935787    -0.002655325574    -0.002287563169
       7       -0.000006966055     0.000015414567    -0.000023283406
       8        0.000000490293     0.000002897250    -0.000014823470
       9        0.000003106693     0.000003340920     0.000000364166
      10        0.000005947592    -0.000000527416    -0.000004347316
      11       -0.000001663232     0.000001753408     0.000002031688
      12        0.000000436040    -0.000008901922    -0.000001391296
      13       -0.000009460501     0.000012949272     0.000002229270
      14        0.000002907184    -0.000000205536    -0.000000131681
      15       -0.000003403499    -0.000004180186    -0.000001964430
      16       -0.000018826290    -0.000009355966    -0.000010029332
      17        0.000003922868     0.000000342687    -0.000000471600
      18       -0.000005421628     0.000002348586    -0.000001948432
      19        0.000004927096    -0.000002129653     0.000015034146
      20        0.000006490222     0.000001289202    -0.000000231515
      21        0.000002805634    -0.000002079191    -0.000000242789
      22       -0.000000742306     0.000000242803    -0.000000457225

  **** Optimization is complete! (in 5 steps) ****
    Final optimized geometry and variables:
    Molecular point group: c1

    Geometry (in Angstrom), charge = 0, multiplicity = 1:

    H           -3.063083452218    -1.134860600912    -0.717151489278
    C           -2.605938501955    -0.213902862606    -1.057039459850
    N           -1.200646829346    -0.206407827827    -0.715850490796
    H           -2.741724069837    -0.182870352398    -2.132607869258
    H           -3.157616576508     0.608832654289    -0.603156475121
    C           -0.843170337855    -1.080246658785     0.377884576467
    C           -0.660129378175     1.121934629056    -0.552952313527
    H           -1.302863672048    -0.765470714109     1.320029391271
    H           -1.196840336094    -2.079977266121     0.158669391973
    C            0.663593490319    -1.116612442347     0.556685195155
    H           -0.890358704939     1.705560240058    -1.437097111344
    H           -1.109839079534     1.633313593797     0.303643919796
    C            0.844538844991     1.072752298366    -0.364619654888
    H            0.905347004993    -1.718328862658     1.424871261164
    H            1.113188139528    -1.600036490099    -0.315944710040
    N            1.191478510144     0.216801804871     0.749155879037
    H            1.213136533094     2.072475904306    -0.167231742403
    H            1.309368021018     0.726635885451    -1.292671194523
    C            2.608227981170     0.211682744196     1.015503530466
    H            2.817577045436    -0.389416839230     1.891574521332
    H            2.950887026742     1.219785896758     1.212904630778
    H            3.195408352070    -0.187762337057     0.183582010210

  Mulliken Charges: (a.u.)
   Center  Symbol    Alpha    Beta     Spin     Total
       1     H     0.45688  0.45688  0.00000  0.08624
       2     C     3.09535  3.09535  0.00000 -0.19071
       3     N     3.61432  3.61432  0.00000 -0.22864
       4     H     0.45023  0.45023  0.00000  0.09954
       5     H     0.46546  0.46546  0.00000  0.06908
       6     C     3.03346  3.03346  0.00000 -0.06692
       7     C     3.03462  3.03462  0.00000 -0.06924
       8     H     0.46969  0.46969  0.00000  0.06062
       9     H     0.45402  0.45402  0.00000  0.09196
      10     C     3.03635  3.03635  0.00000 -0.07271
      11     H     0.45387  0.45387  0.00000  0.09227
      12     H     0.46841  0.46841  0.00000  0.06317
      13     C     3.03654  3.03654  0.00000 -0.07308
      14     H     0.45404  0.45404  0.00000  0.09192
      15     H     0.46869  0.46869  0.00000  0.06262
      16     N     3.61311  3.61311  0.00000 -0.22622
      17     H     0.45403  0.45403  0.00000  0.09195
      18     H     0.46851  0.46851  0.00000  0.06298
      19     C     3.09830  3.09830  0.00000 -0.19660
      20     H     0.45196  0.45196  0.00000  0.09608
      21     H     0.45195  0.45195  0.00000  0.09611
      22     H     0.47021  0.47021  0.00000  0.05957

   Total alpha = 32.00000, Total beta = 32.00000, Total charge =  0.00000
