  ==> Input File <==

--------------------------------------------------------------------------
set {
	reference rhf
	basis 6-31G*
}

set_num_threads( 1 )
memory 2 gb

molecule MOL {
0 1

H	 -2.635181	 0.388277	 -1.433872
O	 -3.452007	 0.283848	 -0.965577
C	 -3.181085	 -0.079926	 0.364119
C	 -1.765924	 0.277073	 0.805136
H	 -3.327791	 -1.152017	 0.410903
H	 -3.905698	 0.375695	 1.036898
C	 -0.677594	 -0.417312	 -0.014550
H	 -1.637766	 1.358238	 0.744969
H	 -1.659588	 0.017670	 1.857098
C	 0.738335	 -0.034840	 0.421385
H	 -0.814977	 -0.178223	 -1.064632
H	 -0.802730	 -1.495410	 0.071702
C	 1.822265	 -0.738362	 -0.399735
H	 0.853533	 1.043532	 0.342250
H	 0.871597	 -0.279636	 1.474438
C	 3.258060	 -0.455774	 0.057203
H	 1.718003	 -0.459167	 -1.447053
H	 1.651028	 -1.811884	 -0.354513
C	 3.709143	 0.994797	 -0.123830
H	 3.930637	 -1.101717	 -0.501982
H	 3.365259	 -0.739518	 1.102287
H	 3.601178	 1.310569	 -1.158127
H	 4.753787	 1.110486	 0.148516
H	 3.135362	 1.678896	 0.492569

	symmetry c1
}
set optking {
	frozen_dihedral = ("
		20 16 13 17,
		17 13 10 7,
		13 10 7 11,
		11 7 4 3,
		7 4 3 2
	")
}

ee = energy('scf')
oeprop('DIPOLE', 'QUADRUPOLE', 'MULLIKEN_CHARGES')
f=open( 'psi4out.xyz', 'w' )
f.write( "24  " )
f.write( str(ee) + "\n" )
f.write( MOL.save_string_xyz() )
f.close()
--------------------------------------------------------------------------

    Molecular point group: c1

    Geometry (in Angstrom), charge = 0, multiplicity = 1:

       Center              X                  Y                   Z               Mass
    ------------   -----------------  -----------------  -----------------  -----------------
           H         -2.641998745310     0.395559955734    -1.430490464735     1.007825032070
           O         -3.458824745310     0.291130955734    -0.962195464735    15.994914619560
           C         -3.187902745310    -0.072643044266     0.367500535265    12.000000000000
           C         -1.772741745310     0.284355955734     0.808517535265    12.000000000000
           H         -3.334608745310    -1.144734044266     0.414284535265     1.007825032070
           H         -3.912515745310     0.382977955734     1.040279535265     1.007825032070
           C         -0.684411745310    -0.410029044266    -0.011168464735    12.000000000000
           H         -1.644583745310     1.365520955734     0.748350535265     1.007825032070
           H         -1.666405745310     0.024952955734     1.860479535265     1.007825032070
           C          0.731517254690    -0.027557044266     0.424766535265    12.000000000000
           H         -0.821794745310    -0.170940044266    -1.061250464735     1.007825032070
           H         -0.809547745310    -1.488127044266     0.075083535265     1.007825032070
           C          1.815447254690    -0.731079044266    -0.396353464735    12.000000000000
           H          0.846715254690     1.050814955734     0.345631535265     1.007825032070
           H          0.864779254690    -0.272353044266     1.477819535265     1.007825032070
           C          3.251242254690    -0.448491044266     0.060584535265    12.000000000000
           H          1.711185254690    -0.451884044266    -1.443671464735     1.007825032070
           H          1.644210254690    -1.804601044266    -0.351131464735     1.007825032070
           C          3.702325254690     1.002079955734    -0.120448464735    12.000000000000
           H          3.923819254690    -1.094434044266    -0.498600464735     1.007825032070
           H          3.358441254690    -0.732235044266     1.105668535265     1.007825032070
           H          3.594360254690     1.317851955734    -1.154745464735     1.007825032070
           H          4.746969254690     1.117768955734     0.151897535265     1.007825032070
           H          3.128544254690     1.686178955734     0.495950535265     1.007825032070

  Charge       = 0
  Multiplicity = 1
  Basis Set: 6-31G*
  Basis Set:

    Orbital Energies (a.u.)
    -----------------------

    Doubly Occupied:

       1A    -20.547448     2A    -11.265745     3A    -11.227042
       4A    -11.223521     5A    -11.221543     6A    -11.219333
       7A    -11.218595     8A    -11.211492     9A     -1.356631
      10A     -1.097217    11A     -1.054260    12A     -0.990104
      13A     -0.921817    14A     -0.857723    15A     -0.804510
      16A     -0.783786    17A     -0.670166    18A     -0.662395
      19A     -0.631195    20A     -0.624092    21A     -0.607071
      22A     -0.591272    23A     -0.563643    24A     -0.539146
      25A     -0.528687    26A     -0.515850    27A     -0.496075
      28A     -0.483593    29A     -0.480575    30A     -0.466223
      31A     -0.459836    32A     -0.438936    33A     -0.427485

  @DF-RHF Final Energy:  -349.24289699483444

   => Energetics <=

    Nuclear Repulsion Energy =            385.4748295059093266
    One-Electron Energy =               -1237.0614645946216115
    Two-Electron Energy =                 502.3437380938777892
    DFT Exchange-Correlation Energy =       0.0000000000000000
    Empirical Dispersion Energy =           0.0000000000000000
    PCM Polarization Energy =               0.0000000000000000
    EFP Energy =                            0.0000000000000000
    Total Energy =                       -349.2428969948344388

  Mulliken Charges: (a.u.)
   Center  Symbol    Alpha    Beta     Spin     Total
       1     H     0.27620  0.27620  0.00000  0.44760
       2     O     4.37970  4.37970  0.00000 -0.75941
       3     C     2.97922  2.97922  0.00000  0.04157
       4     C     3.18318  3.18318  0.00000 -0.36636
       5     H     0.42903  0.42903  0.00000  0.14194
       6     H     0.41916  0.41916  0.00000  0.16169
       7     C     3.15847  3.15847  0.00000 -0.31694
       8     H     0.41709  0.41709  0.00000  0.16581
       9     H     0.41798  0.41798  0.00000  0.16405
      10     C     3.15272  3.15272  0.00000 -0.30543
      11     H     0.43160  0.43160  0.00000  0.13680
      12     H     0.41761  0.41761  0.00000  0.16478
      13     C     3.15302  3.15302  0.00000 -0.30604
      14     H     0.42003  0.42003  0.00000  0.15994
      15     H     0.42186  0.42186  0.00000  0.15627
      16     C     3.15280  3.15280  0.00000 -0.30560
      17     H     0.42393  0.42393  0.00000  0.15214
      18     H     0.42139  0.42139  0.00000  0.15722
      19     C     3.24150  3.24150  0.00000 -0.48300
      20     H     0.42004  0.42004  0.00000  0.15991
      21     H     0.42291  0.42291  0.00000  0.15417
      22     H     0.42202  0.42202  0.00000  0.15597
      23     H     0.41840  0.41840  0.00000  0.16320
      24     H     0.42014  0.42014  0.00000  0.15972

   Total alpha = 33.00000, Total beta = 33.00000, Total charge =  0.00000
