                              Psi4 1.0.54 Driver

  ==> Input File <==

--------------------------------------------------------------------------
set {
	reference rhf
	basis cc-pvtz
}

set_num_threads( 4 )
memory 2 gb

molecule MOL {
0 1

H	 -3.144994	 -1.202467	 -0.018751
O	 -2.321472	 -0.864941	 -0.318626
C	 -2.021813	 0.336996	 0.342658
C	 -0.669613	 0.837286	 -0.127252
H	 -2.780861	 1.084746	 0.127159
H	 -2.006390	 0.184138	 1.420053
C	 0.490865	 -0.082543	 0.241244
H	 -0.708709	 0.967192	 -1.204587
H	 -0.507562	 1.822272	 0.303070
C	 1.839800	 0.429565	 -0.255472
H	 0.305636	 -1.070211	 -0.165276
H	 0.527397	 -0.195943	 1.322876
C	 2.575525	 -0.578048	 -1.132517
H	 1.689627	 1.349551	 -0.813842
H	 2.464344	 0.689017	 0.595598
H	 1.991087	 -0.830908	 -2.010817
H	 3.527510	 -0.184573	 -1.470462
H	 2.771442	 -1.498189	 -0.591774

	symmetry c1
}
set optking {
	frozen_dihedral = ("
		14 10 7 11
	")
}

ee,wfn = optimize('scf', return_wfn=True)
oeprop( wfn, 'DIPOLE', 'QUADRUPOLE', 'MULLIKEN_CHARGES')
f=open( 'psi4out.xyz', 'w' )
f.write( "18  " )
f.write( str(ee) + "\n" )
f.write( MOL.save_string_xyz() )
f.close()
--------------------------------------------------------------------------

    Molecular point group: c1
  Charge       = 0
  Multiplicity = 1
  Basis Set: CC-PVTZ
  Basis Set:
  @DF-RHF Final Energy:  -271.28106511740106
    Total Energy =                       -271.2810651174011127
    Molecular point group: c1
  Basis Set: CC-PVTZ
  Basis Set:
  Basis Set: CC-PVTZ
  Basis Set:
  @DF-RHF Final Energy:  -271.28130558886090
    Total Energy =                       -271.2813055888608460
  Basis Set: CC-PVTZ
  Basis Set:
  Basis Set: CC-PVTZ
  Basis Set:
  @DF-RHF Final Energy:  -271.28136901641767
    Total Energy =                       -271.2813690164175568
  Basis Set: CC-PVTZ
  Basis Set:
  Charge       = 0
  Multiplicity = 1
  Basis Set: CC-PVTZ
  Basis Set:

    Orbital Energies (a.u.)
    -----------------------

    Doubly Occupied:

       1A    -20.546336     2A    -11.265811     3A    -11.211048
       4A    -11.208773     5A    -11.204659     6A    -11.202235
       7A     -1.364193     8A     -1.074045     9A     -1.009207
      10A     -0.913666    11A     -0.820908    12A     -0.783866
      13A     -0.707647    14A     -0.642104    15A     -0.620718
      16A     -0.586307    17A     -0.572815    18A     -0.563203
      19A     -0.512647    20A     -0.504359    21A     -0.499013
      22A     -0.465856    23A     -0.452228    24A     -0.448364
      25A     -0.431073

  @DF-RHF Final Energy:  -271.28136931216432

   => Energetics <=

    Nuclear Repulsion Energy =            249.9648396707807763
    One-Electron Energy =                -863.2702527359942906
    Two-Electron Energy =                 342.0240437530488862
    DFT Exchange-Correlation Energy =       0.0000000000000000
    Empirical Dispersion Energy =           0.0000000000000000
    PCM Polarization Energy =               0.0000000000000000
    EFP Energy =                            0.0000000000000000
    Total Energy =                       -271.2813693121646565
    Molecular point group: c1
  Basis Set: CC-PVTZ
  Basis Set:

  -Total Gradient:
     Atom            X                  Y                   Z
    ------   -----------------  -----------------  -----------------
       1       -0.000000042645     0.000000065178     0.000002638736
       2       -0.000002809023     0.000010507091     0.000012952976
       3       -0.000009294691     0.000007295339    -0.000010855441
       4        0.000003614058    -0.000000639881     0.000022272948
       5       -0.000022029261    -0.000011862260    -0.000000354330
       6       -0.000006712567    -0.000008639349    -0.000011173814
       7       -0.000513982161     0.000693098918    -0.000842230577
       8        0.000014476689     0.000002153539     0.000000350890
       9        0.000004424103    -0.000007866633     0.000004659482
      10       -0.000067034776    -0.000813610263    -0.000906327426
      11        0.000468076212    -0.000435677534     0.000850766976
      12       -0.000009789533     0.000009096359    -0.000004420179
      13        0.000024148618    -0.000002868785    -0.000002786103
      14        0.000118256517     0.000549880615     0.000883273220
      15        0.000004075421    -0.000010452459    -0.000009507013
      16       -0.000006253773     0.000010879684     0.000009765882
      17        0.000010040127     0.000004257140    -0.000000092199
      18       -0.000009163313     0.000004383300     0.000001065973

  **** Optimization is complete! (in 4 steps) ****
    Final optimized geometry and variables:
    Molecular point group: c1

    Geometry (in Angstrom), charge = 0, multiplicity = 1:

    H           -3.083392420607    -1.183083838478     0.205723011300
    O           -2.260566043818    -0.846985849769    -0.097398998871
    C           -1.956227961674     0.354453309597     0.562623375273
    C           -0.605625386888     0.852897114116     0.086933157650
    H           -2.715250370448     1.103323003460     0.350744679066
    H           -1.935985694235     0.201446641851     1.639912637819
    C            0.556348311614    -0.069620022752     0.447225635371
    H           -0.648030137320     0.984762368696    -0.990215712442
    H           -0.438528761163     1.836726260941     0.517948309198
    C            1.923190693452     0.443458388755    -0.050906158758
    H            0.362056973904    -1.054923992254     0.042691624760
    H            0.582359236011    -0.192334701594     1.526270115740
    C            2.671971986190    -0.561780652137    -0.920457093994
    H            1.786971336992     1.364570441952    -0.609168780556
    H            2.546317981135     0.707724187731     0.797180055216
    H            2.095579735220    -0.817784418954    -1.803222526921
    H            3.626391817224    -0.165438568735    -1.249039568217
    H            2.863723970043    -1.480625359214    -0.376372593225

  Mulliken Charges: (a.u.)
   Center  Symbol    Alpha    Beta     Spin     Total
       1     H     0.39577  0.39577  0.00000  0.20847
       2     O     4.19821  4.19821  0.00000 -0.39643
       3     C     2.97395  2.97395  0.00000  0.05210
       4     C     3.09183  3.09183  0.00000 -0.18365
       5     H     0.46552  0.46552  0.00000  0.06896
       6     H     0.47383  0.47383  0.00000  0.05234
       7     C     3.09390  3.09390  0.00000 -0.18779
       8     H     0.45185  0.45185  0.00000  0.09631
       9     H     0.45288  0.45288  0.00000  0.09424
      10     C     3.08782  3.08782  0.00000 -0.17564
      11     H     0.44453  0.44453  0.00000  0.11095
      12     H     0.45526  0.45526  0.00000  0.08948
      13     C     3.14690  3.14690  0.00000 -0.29380
      14     H     0.45587  0.45587  0.00000  0.08826
      15     H     0.45190  0.45190  0.00000  0.09620
      16     H     0.45382  0.45382  0.00000  0.09236
      17     H     0.45125  0.45125  0.00000  0.09750
      18     H     0.45493  0.45493  0.00000  0.09014

   Total alpha = 25.00000, Total beta = 25.00000, Total charge = -0.00000

*** Psi4 exiting successfully. Buy a developer a beer!
