  ==> Input File <==

--------------------------------------------------------------------------
set {
	reference rhf
	basis 6-31G*
}

set_num_threads( 4 )
memory 2 gb

molecule MOL {
0 1

H	 -3.135461	 -1.215070	 0.001379
O	 -2.310168	 -0.871793	 -0.309793
C	 -2.026376	 0.340750	 0.341611
C	 -0.673256	 0.843270	 -0.132153
H	 -2.792215	 1.080697	 0.115987
H	 -2.013526	 0.200402	 1.421792
C	 0.486613	 -0.083066	 0.235839
H	 -0.715586	 0.970948	 -1.210718
H	 -0.508072	 1.829858	 0.297090
C	 1.840406	 0.433480	 -0.254303
H	 0.300215	 -1.068318	 -0.178947
H	 0.519509	 -0.203625	 1.318070
C	 2.942821	 0.304221	 0.796242
H	 2.130583	 -0.112517	 -1.149514
H	 1.745735	 1.476365	 -0.550734
H	 3.085385	 -0.732375	 1.087847
H	 3.891261	 0.675885	 0.420377
H	 2.698509	 0.867884	 1.692404

	symmetry c1
}
set optking {
	frozen_dihedral = ("
		14 10 7 11
	")
}

ee = optimize('scf')
oeprop('DIPOLE', 'QUADRUPOLE', 'MULLIKEN_CHARGES')
f=open( 'psi4out.xyz', 'w' )
f.write( "18  " )
f.write( str(ee) + "\n" )
f.write( MOL.save_string_xyz() )
f.close()
--------------------------------------------------------------------------

    Molecular point group: c1
  Charge       = 0
  Multiplicity = 1
  Basis Set: 6-31G*
  Basis Set:
  @DF-RHF Final Energy:  -271.17506215497951
    Total Energy =                       -271.1750621549796278
    Molecular point group: c1
  Basis Set: 6-31G*
  Basis Set:
  Basis Set: 6-31G*
  Basis Set:
  @DF-RHF Final Energy:  -271.17532356487146
    Total Energy =                       -271.1753235648714622
  Basis Set: 6-31G*
  Basis Set:
  Basis Set: 6-31G*
  Basis Set:
  @DF-RHF Final Energy:  -271.17540854434355
    Total Energy =                       -271.1754085443434974
  Basis Set: 6-31G*
  Basis Set:
  Basis Set: 6-31G*
  Basis Set:
  @DF-RHF Final Energy:  -271.17540630739313
    Total Energy =                       -271.1754063073930183
  Basis Set: 6-31G*
  Basis Set:
  Basis Set: 6-31G*
  Basis Set:
  @DF-RHF Final Energy:  -271.17541049840253
    Total Energy =                       -271.1754104984024707
  Basis Set: 6-31G*
  Basis Set:
  Charge       = 0
  Multiplicity = 1
  Basis Set: 6-31G*
  Basis Set:

    Orbital Energies (a.u.)
    -----------------------

    Doubly Occupied:

       1A    -20.553123     2A    -11.267760     3A    -11.212002
       4A    -11.210494     5A    -11.206084     6A    -11.205130
       7A     -1.359759     8A     -1.072770     9A     -1.008138
      10A     -0.912481    11A     -0.818449    12A     -0.783335
      13A     -0.705313    14A     -0.638198    15A     -0.622096
      16A     -0.588818    17A     -0.572136    18A     -0.552789
      19A     -0.521053    20A     -0.501183    21A     -0.491337
      22A     -0.466256    23A     -0.454110    24A     -0.447030
      25A     -0.427923

  @DF-RHF Final Energy:  -271.17541047801888

   => Energetics <=

    Nuclear Repulsion Energy =            248.8818849452325992
    One-Electron Energy =                -860.9190632879574423
    Two-Electron Energy =                 340.8617678647059961
    DFT Exchange-Correlation Energy =       0.0000000000000000
    Empirical Dispersion Energy =           0.0000000000000000
    PCM Polarization Energy =               0.0000000000000000
    EFP Energy =                            0.0000000000000000
    Total Energy =                       -271.1754104780188186
    Molecular point group: c1
  Basis Set: 6-31G*
  Basis Set:

  -Total Gradient:
     Atom            X                  Y                   Z
    ------   -----------------  -----------------  -----------------
       1        0.000000674196     0.000000200138    -0.000000339319
       2        0.000004307686    -0.000003861957    -0.000002264548
       3       -0.000005236195    -0.000003129378    -0.000003966738
       4       -0.000002868387    -0.000001954867     0.000005098821
       5       -0.000000715995     0.000002744622    -0.000000208406
       6        0.000002886958     0.000004316067     0.000000322225
       7        0.002457777383    -0.002426656355     0.004055190293
       8        0.000004143208     0.000002604333    -0.000001750092
       9       -0.000001615287    -0.000005846671     0.000006309287
      10       -0.002504680363     0.003383037991    -0.003237586646
      11       -0.001660887363     0.001510424074    -0.002868591025
      12        0.000003228089     0.000004718243    -0.000004390949
      13       -0.000003297349     0.000003263392     0.000002557346
      14        0.001706171732    -0.002460945441     0.002050679713
      15        0.000002562228    -0.000009020709     0.000001349862
      16        0.000002458875    -0.000001813198    -0.000009156065
      17        0.000000598993     0.000009692797     0.000004493494
      18       -0.000005508405    -0.000007773081     0.000002252748

  **** Optimization is complete! (in 6 steps) ****
    Final optimized geometry and variables:
    Molecular point group: c1

    Geometry (in Angstrom), charge = 0, multiplicity = 1:

    H           -3.117956933335    -1.372806583177    -0.146112418709
    O           -2.291396364737    -1.020321146587    -0.443322605942
    C           -2.031956184975     0.195366396561     0.212717669025
    C           -0.676639047414     0.712849795106    -0.237615826036
    H           -2.802068278281     0.926720495793    -0.026096024218
    H           -2.036175954577     0.055177264860     1.293090809459
    C            0.489939397238    -0.197067244899     0.157805043188
    H           -0.698923823654     0.833835961804    -1.317714141965
    H           -0.531234051952     1.703876595668     0.188549060987
    C            1.849511391349     0.314396436035    -0.360460365018
    H            0.288992231640    -1.183597368456    -0.243115828132
    H            0.513794974863    -0.288484804439     1.241630017503
    C            2.977088110436     0.154992230352     0.661767728096
    H            2.127100184910    -0.236972118883    -1.254449409215
    H            1.775241343288     1.360628550784    -0.645220175830
    H            3.092919598974    -0.884493168621     0.956057436549
    H            3.927156857310     0.492293642015     0.258197982543
    H            2.774938529236     0.730599443292     1.560919480738

  Mulliken Charges: (a.u.)
   Center  Symbol    Alpha    Beta     Spin     Total
       1     H     0.28054  0.28054  0.00000  0.43893
       2     O     4.36983  4.36983  0.00000 -0.73965
       3     C     2.99758  2.99758  0.00000  0.00484
       4     C     3.16214  3.16214  0.00000 -0.32428
       5     H     0.42925  0.42925  0.00000  0.14150
       6     H     0.43273  0.43273  0.00000  0.13454
       7     C     3.15710  3.15710  0.00000 -0.31421
       8     H     0.41474  0.41474  0.00000  0.17052
       9     H     0.42429  0.42429  0.00000  0.15142
      10     C     3.15391  3.15391  0.00000 -0.30781
      11     H     0.40496  0.40496  0.00000  0.19008
      12     H     0.42517  0.42517  0.00000  0.14965
      13     C     3.23969  3.23969  0.00000 -0.47938
      14     H     0.41966  0.41966  0.00000  0.16069
      15     H     0.42228  0.42228  0.00000  0.15545
      16     H     0.42143  0.42143  0.00000  0.15713
      17     H     0.42134  0.42134  0.00000  0.15732
      18     H     0.42336  0.42336  0.00000  0.15327

   Total alpha = 25.00000, Total beta = 25.00000, Total charge = -0.00000
