  ==> Input File <==

--------------------------------------------------------------------------
set {
	reference rhf
	basis 6-31G*
}

set_num_threads( 1 )
memory 2 gb

molecule MOL {
0 1

O	 1.072327	 1.122716	 0.639143
C	 1.122059	 0.121804	 -0.000188
C	 0.031099	 -0.397665	 -0.904540
O	 2.172624	 -0.688929	 0.000216
C	 -1.203217	 0.498109	 -0.941875
H	 0.460548	 -0.517653	 -1.895464
H	 -0.219833	 -1.399932	 -0.568018
C	 -2.292418	 -0.051053	 -1.864605
H	 -0.914158	 1.493283	 -1.265262
H	 -1.595255	 0.610135	 0.064236
C	 -3.533301	 0.839688	 -1.906961
H	 -1.894114	 -0.162103	 -2.871132
H	 -2.576471	 -1.049296	 -1.537656
H	 -3.288024	 1.835995	 -2.263144
H	 -4.289495	 0.428172	 -2.568097
H	 -3.975600	 0.941955	 -0.920273
C	 3.452279	 -0.082609	 0.000533
H	 3.583069	 0.529321	 -0.880332
H	 4.163299	 -0.894027	 0.001117
H	 3.582335	 0.529955	 0.881077

	symmetry c1
}
set optking {
	frozen_dihedral = ("
		9 5 8 12,
		1 2 3 6,
		9 5 3 6
	")
}

ee = energy('scf')
oeprop('DIPOLE', 'QUADRUPOLE', 'MULLIKEN_CHARGES')
f=open( 'psi4out.xyz', 'w' )
f.write( "20  " )
f.write( str(ee) + "\n" )
f.write( MOL.save_string_xyz() )
f.close()
--------------------------------------------------------------------------

    Molecular point group: c1

    Geometry (in Angstrom), charge = 0, multiplicity = 1:

       Center              X                  Y                   Z               Mass
    ------------   -----------------  -----------------  -----------------  -----------------
           O          0.936196501154     0.946620391307     1.251771941416    15.994914619560
           C          0.985928501154    -0.054291608693     0.612440941416    12.000000000000
           C         -0.105031498846    -0.573760608693    -0.291911058584    12.000000000000
           O          2.036493501154    -0.865024608693     0.612844941416    15.994914619560
           C         -1.339347498846     0.322013391307    -0.329246058584    12.000000000000
           H          0.324417501154    -0.693748608693    -1.282835058584     1.007825032070
           H         -0.355963498846    -1.576027608693     0.044610941416     1.007825032070
           C         -2.428548498846    -0.227148608693    -1.251976058584    12.000000000000
           H         -1.050288498846     1.317187391307    -0.652633058584     1.007825032070
           H         -1.731385498846     0.434039391307     0.676864941416     1.007825032070
           C         -3.669431498846     0.663592391307    -1.294332058584    12.000000000000
           H         -2.030244498846    -0.338198608693    -2.258503058584     1.007825032070
           H         -2.712601498846    -1.225391608693    -0.925027058584     1.007825032070
           H         -3.424154498846     1.659899391307    -1.650515058584     1.007825032070
           H         -4.425625498846     0.252076391307    -1.955468058584     1.007825032070
           H         -4.111730498846     0.765859391307    -0.307644058584     1.007825032070
           C          3.316148501154    -0.258704608693     0.613161941416    12.000000000000
           H          3.446938501154     0.353225391307    -0.267703058584     1.007825032070
           H          4.027168501154    -1.070122608693     0.613745941416     1.007825032070
           H          3.446204501154     0.353859391307     1.493705941416     1.007825032070

  Charge       = 0
  Multiplicity = 1
  Basis Set: 6-31G*
  Basis Set:

    Orbital Energies (a.u.)
    -----------------------

    Doubly Occupied:

       1A    -20.596180     2A    -20.548676     3A    -11.373055
       4A    -11.285130     5A    -11.235968     6A    -11.220513
       7A    -11.219309     8A    -11.210828     9A     -1.467170
      10A     -1.363765    11A     -1.088636    12A     -1.023109
      13A     -0.970774    14A     -0.888282    15A     -0.804588
      16A     -0.767912    17A     -0.696580    18A     -0.681822
      19A     -0.672595    20A     -0.645153    21A     -0.602925
      22A     -0.591990    23A     -0.582015    24A     -0.545272
      25A     -0.535805    26A     -0.517399    27A     -0.501129
      28A     -0.480026    29A     -0.475680    30A     -0.470329
      31A     -0.453308    32A     -0.433924

  @DF-RHF Final Energy:  -383.93306750576261

   => Energetics <=

    Nuclear Repulsion Energy =            381.2548608558525416
    One-Electron Energy =               -1278.4763235940747563
    Two-Electron Energy =                 513.2883952324593793
    DFT Exchange-Correlation Energy =       0.0000000000000000
    Empirical Dispersion Energy =           0.0000000000000000
    PCM Polarization Energy =               0.0000000000000000
    EFP Energy =                            0.0000000000000000
    Total Energy =                       -383.9330675057628923

  Mulliken Charges: (a.u.)
   Center  Symbol    Alpha    Beta     Spin     Total
       1     O     4.27728  4.27728  0.00000 -0.55456
       2     C     2.60533  2.60533  0.00000  0.78934
       3     C     3.20990  3.20990  0.00000 -0.41981
       4     O     4.30943  4.30943  0.00000 -0.61885
       5     C     3.15176  3.15176  0.00000 -0.30353
       6     H     0.40363  0.40363  0.00000  0.19274
       7     H     0.39945  0.39945  0.00000  0.20110
       8     C     3.15409  3.15409  0.00000 -0.30819
       9     H     0.41281  0.41281  0.00000  0.17438
      10     H     0.41132  0.41132  0.00000  0.17735
      11     C     3.23928  3.23928  0.00000 -0.47856
      12     H     0.42349  0.42349  0.00000  0.15302
      13     H     0.42268  0.42268  0.00000  0.15465
      14     H     0.42019  0.42019  0.00000  0.15963
      15     H     0.41877  0.41877  0.00000  0.16246
      16     H     0.41974  0.41974  0.00000  0.16052
      17     C     3.09505  3.09505  0.00000 -0.19011
      18     H     0.41691  0.41691  0.00000  0.16618
      19     H     0.40643  0.40643  0.00000  0.18713
      20     H     0.40245  0.40245  0.00000  0.19510

   Total alpha = 32.00000, Total beta = 32.00000, Total charge = -0.00000
