  ==> Input File <==

--------------------------------------------------------------------------
set {
	reference rhf
	basis 6-31G*
}

set_num_threads( 4 )
memory 2 gb

molecule MOL {
0 1

H	 -1.836216	 1.387520	 -0.000064
C	 -1.301823	 0.443321	 -0.000031
O	 -0.003969	 0.658512	 0.000451
O	 -1.829879	 -0.616434	 -0.000857
C	 0.850537	 -0.484732	 0.000380
C	 0.133832	 -1.587157	 -0.748828
H	 1.058892	 -0.764240	 1.023992
H	 1.786815	 -0.220664	 -0.471791
H	 -0.805240	 -1.832859	 -0.266326
H	 0.751944	 -2.478585	 -0.771796
H	 -0.073871	 -1.286801	 -1.769384

	symmetry c1
}
set optking {
	frozen_dihedral = ("
		7 5 3 2
	")
}

ee = optimize('scf')
oeprop('DIPOLE', 'QUADRUPOLE', 'MULLIKEN_CHARGES')
f=open( 'psi4out.xyz', 'w' )
f.write( "11  " )
f.write( str(ee) + "\n" )
f.write( MOL.save_string_xyz() )
f.close()
--------------------------------------------------------------------------

    Molecular point group: c1
  Charge       = 0
  Multiplicity = 1
  Basis Set: 6-31G*
  Basis Set:
  @DF-RHF Final Energy:  -266.78093260645511
    Total Energy =                       -266.7809326064549964
    Molecular point group: c1
  Basis Set: 6-31G*
  Basis Set:
  Basis Set: 6-31G*
  Basis Set:
  @DF-RHF Final Energy:  -266.81141270826055
    Total Energy =                       -266.8114127082606046
  Basis Set: 6-31G*
  Basis Set:
  Basis Set: 6-31G*
  Basis Set:
  @DF-RHF Final Energy:  -266.80990210266759
    Total Energy =                       -266.8099021026675928
  Basis Set: 6-31G*
  Basis Set:
  Basis Set: 6-31G*
  Basis Set:
  @DF-RHF Final Energy:  -266.81419096567561
    Total Energy =                       -266.8141909656756638
  Basis Set: 6-31G*
  Basis Set:
  @DF-RHF Final Energy:  -266.82056868355926
    Total Energy =                       -266.8205686835593724
  Basis Set: 6-31G*
  Basis Set:
  @DF-RHF Final Energy:  -266.82119419824920
    Total Energy =                       -266.8211941982491453
  Basis Set: 6-31G*
  Basis Set:
  Basis Set: 6-31G*
  Basis Set:
  @DF-RHF Final Energy:  -266.82136508182072
    Total Energy =                       -266.8213650818206588
  Basis Set: 6-31G*
  Basis Set:
  Basis Set: 6-31G*
  Basis Set:
  @DF-RHF Final Energy:  -266.82140705998518
    Total Energy =                       -266.8214070599853471
  Basis Set: 6-31G*
  Basis Set:
  Charge       = 0
  Multiplicity = 1
  Basis Set: 6-31G*
  Basis Set:

    Orbital Energies (a.u.)
    -----------------------

    Doubly Occupied:

       1A    -20.610985     2A    -20.554681     3A    -11.378846
       4A    -11.296165     5A    -11.221530     6A     -1.470921
       7A     -1.373601     8A     -1.049128     9A     -0.918106
      10A     -0.795898    11A     -0.727795    12A     -0.683194
      13A     -0.663759    14A     -0.619491    15A     -0.576789
      16A     -0.545508    17A     -0.528474    18A     -0.503606
      19A     -0.455313    20A     -0.445968

  @DF-RHF Final Energy:  -266.82141035317096

   => Energetics <=

    Nuclear Repulsion Energy =            182.5519562003509577
    One-Electron Energy =                -725.9072210323151921
    Two-Electron Energy =                 276.5338544787931596
    DFT Exchange-Correlation Energy =       0.0000000000000000
    Empirical Dispersion Energy =           0.0000000000000000
    PCM Polarization Energy =               0.0000000000000000
    EFP Energy =                            0.0000000000000000
    Total Energy =                       -266.8214103531710180
    Molecular point group: c1
  Basis Set: 6-31G*
  Basis Set:

  -Total Gradient:
     Atom            X                  Y                   Z
    ------   -----------------  -----------------  -----------------
       1       -0.000054542772    -0.000001099791     0.000003085436
       2       -0.000297959077    -0.000108767712    -0.005397483445
       3        0.001346895348     0.000908484575     0.007983880044
       4       -0.000003388115     0.000053286263    -0.000017403371
       5       -0.005955691936    -0.004003517308    -0.002321951057
       6        0.000045575549     0.000079300580     0.000025614653
       7        0.004844607641     0.003147368275    -0.000255881957
       8        0.000059066514    -0.000123063645    -0.000040958124
       9        0.000032854680     0.000032541032     0.000018860688
      10       -0.000016429774    -0.000018365623     0.000007241565
      11       -0.000000988058     0.000033833353    -0.000005004434

  **** Optimization is complete! (in 9 steps) ****
    Final optimized geometry and variables:
    Molecular point group: c1

    Geometry (in Angstrom), charge = 0, multiplicity = 1:

    H           -1.246177549623     1.895707465874     0.027157350983
    C           -0.865169975556     0.888054987523     0.159695095191
    O            0.448484910317     0.913444921811     0.112524820262
    O           -1.560619273683    -0.052933025057     0.339403410658
    C            1.254428884442    -0.270309338247     0.102749894481
    C            0.732904284272    -1.447166211466    -0.703720920862
    H            1.478195475205    -0.528689451543     1.130039640949
    H            2.179888799078     0.078048663554    -0.333992202734
    H           -0.115052103925    -1.926409504999    -0.242087211139
    H            1.539527343227    -2.168362868132    -0.796401112426
    H            0.452592542598    -1.131474023605    -1.702948531656

  Mulliken Charges: (a.u.)
   Center  Symbol    Alpha    Beta     Spin     Total
       1     H     0.41299  0.41299  0.00000  0.17402
       2     C     2.72494  2.72494  0.00000  0.55013
       3     O     4.29850  4.29850  0.00000 -0.59699
       4     O     4.26339  4.26339  0.00000 -0.52677
       5     C     2.99717  2.99717  0.00000  0.00565
       6     C     3.26218  3.26218  0.00000 -0.52436
       7     H     0.41085  0.41085  0.00000  0.17830
       8     H     0.40851  0.40851  0.00000  0.18298
       9     H     0.39037  0.39037  0.00000  0.21925
      10     H     0.41752  0.41752  0.00000  0.16496
      11     H     0.41359  0.41359  0.00000  0.17282

   Total alpha = 20.00000, Total beta = 20.00000, Total charge =  0.00000
