  ==> Input File <==

--------------------------------------------------------------------------
set {
	reference rhf
	basis cc-pvtz
}

set_num_threads( 4 )
memory 2 gb

molecule MOL {
0 1

H	 -2.366577	 1.074625	 1.113697
C	 -2.490035	 0.179073	 0.519589
C	 -1.227335	 -0.668251	 0.540731
H	 -2.733580	 0.487727	 -0.488198
H	 -3.326526	 -0.383134	 0.917219
C	 0.000000	 0.039916	 0.000014
H	 -1.363334	 -1.578662	 -0.036810
H	 -0.999513	 -0.996913	 1.551161
C	 1.286532	 -0.763243	 0.000268
O	 -0.043776	 1.157264	 -0.399981
C	 2.547023	 0.087626	 -0.000114
H	 1.264245	 -1.421103	 -0.864380
H	 1.264290	 -1.420353	 0.865489
H	 2.584452	 0.725630	 -0.872909
H	 3.427035	 -0.544422	 0.000125
H	 2.584484	 0.726356	 0.872143

	symmetry c1
}
set optking {
	frozen_dihedral = ("
		3 6 9 12
	")
}

ee = optimize('scf')
oeprop('DIPOLE', 'QUADRUPOLE', 'MULLIKEN_CHARGES')
f=open( 'psi4out.xyz', 'w' )
f.write( "16  " )
f.write( str(ee) + "\n" )
f.write( MOL.save_string_xyz() )
f.close()
--------------------------------------------------------------------------

    Molecular point group: c1
  Charge       = 0
  Multiplicity = 1
  Basis Set: CC-PVTZ
  Basis Set:
  @DF-RHF Final Energy:  -270.13116258368279
    Total Energy =                       -270.1311625836828512
    Molecular point group: c1
  Basis Set: CC-PVTZ
  Basis Set:
  Basis Set: CC-PVTZ
  Basis Set:
  @DF-RHF Final Energy:  -270.13138370920899
    Total Energy =                       -270.1313837092092172
  Basis Set: CC-PVTZ
  Basis Set:
  Basis Set: CC-PVTZ
  Basis Set:
  @DF-RHF Final Energy:  -270.13040186854198
    Total Energy =                       -270.1304018685419805
  Basis Set: CC-PVTZ
  Basis Set:
  Basis Set: CC-PVTZ
  Basis Set:
  @DF-RHF Final Energy:  -270.13151106041175
    Total Energy =                       -270.1315110604119809
  Basis Set: CC-PVTZ
  Basis Set:
  Basis Set: CC-PVTZ
  Basis Set:
  @DF-RHF Final Energy:  -270.13152487918126
    Total Energy =                       -270.1315248791811428
  Basis Set: CC-PVTZ
  Basis Set:
  Charge       = 0
  Multiplicity = 1
  Basis Set: CC-PVTZ
  Basis Set:

    Orbital Energies (a.u.)
    -----------------------

    Doubly Occupied:

       1A    -20.538478     2A    -11.318003     3A    -11.232551
       4A    -11.232088     5A    -11.212854     6A    -11.211988
       7A     -1.399043     8A     -1.069649     9A     -1.037371
      10A     -0.916906    11A     -0.847130    12A     -0.725944
      13A     -0.669196    14A     -0.646872    15A     -0.622136
      16A     -0.607488    17A     -0.561388    18A     -0.531195
      19A     -0.526416    20A     -0.511407    21A     -0.503717
      22A     -0.494646    23A     -0.485445    24A     -0.400295

  @DF-RHF Final Energy:  -270.13152545161233

   => Energetics <=

    Nuclear Repulsion Energy =            240.3235514155719272
    One-Electron Energy =                -842.3057424281363410
    Two-Electron Energy =                 331.8506655609519953
    DFT Exchange-Correlation Energy =       0.0000000000000000
    Empirical Dispersion Energy =           0.0000000000000000
    PCM Polarization Energy =               0.0000000000000000
    EFP Energy =                            0.0000000000000000
    Total Energy =                       -270.1315254516123900
    Molecular point group: c1
  Basis Set: CC-PVTZ
  Basis Set:

  -Total Gradient:
     Atom            X                  Y                   Z
    ------   -----------------  -----------------  -----------------
       1        0.000009403993    -0.000009359273     0.000001390139
       2       -0.000016160637    -0.000012623387    -0.000033958979
       3        0.000212937834     0.000248254697     0.000803361896
       4       -0.000004563644     0.000007112365     0.000004834246
       5       -0.000004202099     0.000001029786     0.000003548694
       6       -0.000198027993    -0.000166609982    -0.001201938487
       7        0.000000984665     0.000012373356    -0.000008892320
       8       -0.000001185197    -0.000019543749    -0.000002174373
       9       -0.000487203567    -0.000840326925     0.000965363448
      10        0.000000747792     0.000002288860    -0.000000034790
      11        0.000026412922     0.000023485992    -0.000004663571
      12        0.000471766730     0.000764049496    -0.000523465784
      13        0.000000419902     0.000011935848    -0.000010865263
      14       -0.000007937458    -0.000006146155     0.000003195939
      15        0.000001485868    -0.000008497737     0.000005908971
      16       -0.000004879110    -0.000007423194    -0.000001609767

  **** Optimization is complete! (in 6 steps) ****
    Final optimized geometry and variables:
    Molecular point group: c1

    Geometry (in Angstrom), charge = 0, multiplicity = 1:

    H           -2.451779124549     1.061612117424     0.860177686401
    C           -2.523906067247     0.126944686397     0.321326079503
    C           -1.239450762177    -0.676392551976     0.451199881710
    H           -2.731549252415     0.362762725128    -0.714418146779
    H           -3.361312924785    -0.434837987223     0.717572436549
    C           -0.006523133571     0.038765271340    -0.062741196704
    H           -1.318476699703    -1.628523213455    -0.066539229169
    H           -1.045728093080    -0.927535556474     1.491406467469
    C            1.261114585687    -0.790957581011    -0.144699003316
    O           -0.029222870525     1.181120116658    -0.386805025347
    C            2.537376520218     0.038626919540    -0.166164397721
    H            1.182737916690    -1.375300165455    -1.059205481096
    H            1.271876781666    -1.507487618121     0.669559779880
    H            2.532150831413     0.732353252323    -0.994653198487
    H            3.403692431241    -0.605150553595    -0.259650532295
    H            2.641508318186     0.615356091329     0.744738334133

  Mulliken Charges: (a.u.)
   Center  Symbol    Alpha    Beta     Spin     Total
       1     H     0.44577  0.44577  0.00000  0.10845
       2     C     3.14104  3.14104  0.00000 -0.28209
       3     C     3.10002  3.10002  0.00000 -0.20004
       4     H     0.44977  0.44977  0.00000  0.10047
       5     H     0.45067  0.45067  0.00000  0.09865
       6     C     2.87214  2.87214  0.00000  0.25572
       7     H     0.44549  0.44549  0.00000  0.10902
       8     H     0.44556  0.44556  0.00000  0.10888
       9     C     3.09811  3.09811  0.00000 -0.19621
      10     O     4.17317  4.17317  0.00000 -0.34634
      11     C     3.14185  3.14185  0.00000 -0.28369
      12     H     0.44570  0.44570  0.00000  0.10861
      13     H     0.44521  0.44521  0.00000  0.10958
      14     H     0.44278  0.44278  0.00000  0.11445
      15     H     0.45040  0.45040  0.00000  0.09921
      16     H     0.45233  0.45233  0.00000  0.09535

   Total alpha = 24.00000, Total beta = 24.00000, Total charge = -0.00000
