  ==> Input File <==

--------------------------------------------------------------------------
set {
	reference rhf
	basis 6-31G*
}

set_num_threads( 4 )
memory 2 gb

molecule MOL {
0 1

H	 -2.499100	 -0.730091	 -0.745082
O	 -2.347518	 -0.290803	 0.079804
C	 -1.184022	 0.487508	 -0.006784
C	 0.062599	 -0.378592	 0.031606
H	 -1.176523	 1.099369	 -0.904519
H	 -1.187323	 1.153111	 0.844927
O	 0.580290	 -0.444957	 -1.259662
H	 -0.185996	 -1.376963	 0.396894
H	 0.784735	 0.051007	 0.723378
C	 1.753962	 -1.185645	 -1.373755
H	 1.601778	 -2.220937	 -1.074357
H	 2.055690	 -1.161880	 -2.411685
H	 2.550653	 -0.763729	 -0.764607

	symmetry c1
}
set optking {
	frozen_dihedral = ("
		8 4 3 5
	")
}

ee = optimize('scf')
oeprop('DIPOLE', 'QUADRUPOLE', 'MULLIKEN_CHARGES')
f=open( 'psi4out.xyz', 'w' )
f.write( "13  " )
f.write( str(ee) + "\n" )
f.write( MOL.save_string_xyz() )
f.close()
--------------------------------------------------------------------------

    Molecular point group: c1
  Charge       = 0
  Multiplicity = 1
  Basis Set: 6-31G*
  Basis Set:
  @DF-RHF Final Energy:  -267.94644444600186
    Total Energy =                       -267.9464444460020331
    Molecular point group: c1
  Basis Set: 6-31G*
  Basis Set:
  Basis Set: 6-31G*
  Basis Set:
  @DF-RHF Final Energy:  -267.94729233386602
    Total Energy =                       -267.9472923338658461
  Basis Set: 6-31G*
  Basis Set:
  Basis Set: 6-31G*
  Basis Set:
  @DF-RHF Final Energy:  -267.94754740054964
    Total Energy =                       -267.9475474005495812
  Basis Set: 6-31G*
  Basis Set:
  Basis Set: 6-31G*
  Basis Set:
  @DF-RHF Final Energy:  -267.94755817112758
    Total Energy =                       -267.9475581711274685
  Basis Set: 6-31G*
  Basis Set:
  Charge       = 0
  Multiplicity = 1
  Basis Set: 6-31G*
  Basis Set:

    Orbital Energies (a.u.)
    -----------------------

    Doubly Occupied:

       1A    -20.562427     2A    -20.553234     3A    -11.271288
       4A    -11.270630     5A    -11.269015     6A     -1.387811
       7A     -1.357982     8A     -1.016854     9A     -0.915599
      10A     -0.839847    11A     -0.703393    12A     -0.680045
      13A     -0.656420    14A     -0.630520    15A     -0.600739
      16A     -0.567969    17A     -0.537594    18A     -0.491625
      19A     -0.484945    20A     -0.437218    21A     -0.420929

  @DF-RHF Final Energy:  -267.94755920320074

   => Energetics <=

    Nuclear Repulsion Energy =            191.6611790682011645
    One-Electron Energy =                -745.9053060315225139
    Two-Electron Energy =                 286.2965677601206380
    DFT Exchange-Correlation Energy =       0.0000000000000000
    Empirical Dispersion Energy =           0.0000000000000000
    PCM Polarization Energy =               0.0000000000000000
    EFP Energy =                            0.0000000000000000
    Total Energy =                       -267.9475592032007398
    Molecular point group: c1
  Basis Set: 6-31G*
  Basis Set:

  -Total Gradient:
     Atom            X                  Y                   Z
    ------   -----------------  -----------------  -----------------
       1       -0.000026855782    -0.000035928012    -0.000015327945
       2        0.000020453162     0.000025849332    -0.000041948770
       3        0.002979925183     0.004864757345     0.002414001294
       4        0.000674762289     0.001153935514     0.006126440579
       5       -0.002700098655    -0.004275320837    -0.002978083848
       6        0.000042375897    -0.000005527573    -0.000002633648
       7       -0.000032622010    -0.000003970178     0.000024127266
       8       -0.000964265934    -0.001703943156    -0.005524473438
       9       -0.000016112193    -0.000008529539    -0.000000013408
      10        0.000031338980    -0.000022316020    -0.000002061118
      11       -0.000000949445    -0.000003534514    -0.000001181570
      12       -0.000011720479     0.000012018527     0.000006674881
      13        0.000003768989     0.000002509111    -0.000005520273

  **** Optimization is complete! (in 5 steps) ****
    Final optimized geometry and variables:
    Molecular point group: c1

    Geometry (in Angstrom), charge = 0, multiplicity = 1:

    H           -2.155962086772    -0.398078828448    -0.284847358144
    O           -2.104122927561     0.065804896599     0.539846125507
    C           -0.947072441300     0.864125082552     0.538893953954
    C            0.333745841015     0.034457875148     0.570313752473
    H           -0.930695865617     1.477552934531    -0.355689046338
    H           -1.021218850831     1.498592870005     1.410867724863
    O            0.833055107505    -0.049920005520    -0.737533217208
    H            0.095305494689    -0.967127405718     0.920342606620
    H            1.081799017979     0.474630418155     1.227088181173
    C            1.977634538619    -0.832703182118    -0.862038548159
    H            1.792891442133    -1.861233036143    -0.557350005345
    H            2.269758243689    -0.822447347226    -1.903143654860
    H            2.796310406657    -0.438413555542    -0.262831668069

  Mulliken Charges: (a.u.)
   Center  Symbol    Alpha    Beta     Spin     Total
       1     H     0.27990  0.27990  0.00000  0.44019
       2     O     4.37149  4.37149  0.00000 -0.74299
       3     C     3.00544  3.00544  0.00000 -0.01088
       4     C     3.00899  3.00899  0.00000 -0.01798
       5     H     0.41392  0.41392  0.00000  0.17216
       6     H     0.41379  0.41379  0.00000  0.17241
       7     O     4.31015  4.31015  0.00000 -0.62030
       8     H     0.41936  0.41936  0.00000  0.16127
       9     H     0.42755  0.42755  0.00000  0.14490
      10     C     3.08044  3.08044  0.00000 -0.16089
      11     H     0.42899  0.42899  0.00000  0.14203
      12     H     0.41122  0.41122  0.00000  0.17756
      13     H     0.42874  0.42874  0.00000  0.14252

   Total alpha = 21.00000, Total beta = 21.00000, Total charge = -0.00000
