                              Psi4 1.0.54 Driver

  ==> Input File <==

--------------------------------------------------------------------------
set {
	reference rhf
	basis cc-pvtz
}

set_num_threads( 4 )
memory 2 gb

molecule MOL {
0 1

H	 -0.000105	 1.988529	 0.748933
O	 -0.000098	 1.879786	 -0.188206
C	 -0.000014	 0.545691	 -0.532416
C	 -1.286000	 -0.125171	 -0.046657
C	 1.286016	 -0.125031	 -0.046584
H	 0.000021	 0.481103	 -1.610604
F	 -1.966101	 -0.557269	 -1.079911
F	 -1.049046	 -1.148239	 0.734941
F	 -2.050336	 0.722470	 0.608071
F	 2.317750	 0.468717	 -0.594166
F	 1.336617	 -1.393765	 -0.365123
F	 1.414467	 -0.024806	 1.259108

	symmetry c1
}
set optking {
	frozen_dihedral = ("
		7 4 3 6
	")
}

ee,wfn = optimize('scf', return_wfn=True)
oeprop( wfn, 'DIPOLE', 'QUADRUPOLE', 'MULLIKEN_CHARGES')
f=open( 'psi4out.xyz', 'w' )
f.write( "12  " )
f.write( str(ee) + "\n" )
f.write( MOL.save_string_xyz() )
f.close()
--------------------------------------------------------------------------

    Molecular point group: c1
  Charge       = 0
  Multiplicity = 1
  Basis Set: CC-PVTZ
  Basis Set:
  @DF-RHF Final Energy:  -786.58240885632927
    Total Energy =                       -786.5824088563294936
    Molecular point group: c1
  Basis Set: CC-PVTZ
  Basis Set:
  Basis Set: CC-PVTZ
  Basis Set:
  @DF-RHF Final Energy:  -786.58296134710110
    Total Energy =                       -786.5829613471005359
  Basis Set: CC-PVTZ
  Basis Set:
  Basis Set: CC-PVTZ
  Basis Set:
  @DF-RHF Final Energy:  -786.58355185809216
    Total Energy =                       -786.5835518580921644
  Basis Set: CC-PVTZ
  Basis Set:
  Basis Set: CC-PVTZ
  Basis Set:
  @DF-RHF Final Energy:  -786.58357874591979
    Total Energy =                       -786.5835787459203630
  Basis Set: CC-PVTZ
  Basis Set:
  Basis Set: CC-PVTZ
  Basis Set:
  @DF-RHF Final Energy:  -786.58358417389866
    Total Energy =                       -786.5835841738986574
  Basis Set: CC-PVTZ
  Basis Set:
  Basis Set: CC-PVTZ
  Basis Set:
  @DF-RHF Final Energy:  -786.58358526963764
    Total Energy =                       -786.5835852696379789
  Basis Set: CC-PVTZ
  Basis Set:
  Charge       = 0
  Multiplicity = 1
  Basis Set: CC-PVTZ
  Basis Set:

    Orbital Energies (a.u.)
    -----------------------

    Doubly Occupied:

       1A    -26.358562     2A    -26.356817     3A    -26.356100
       4A    -26.355801     5A    -26.355648     6A    -26.351902
       7A    -20.608819     8A    -11.522543     9A    -11.517208
      10A    -11.351808    11A     -1.772120    12A     -1.765418
      13A     -1.665744    14A     -1.663963    15A     -1.663699
      16A     -1.658948    17A     -1.438776    18A     -1.100211
      19A     -1.000630    20A     -0.943930    21A     -0.872422
      22A     -0.865621    23A     -0.857768    24A     -0.853540
      25A     -0.841512    26A     -0.819724    27A     -0.739772
      28A     -0.736790    29A     -0.735738    30A     -0.730104
      31A     -0.694662    32A     -0.691388    33A     -0.688640
      34A     -0.684160    35A     -0.674695    36A     -0.668800
      37A     -0.662360    38A     -0.654467    39A     -0.622495
      40A     -0.552012    41A     -0.509040

  @DF-RHF Final Energy:  -786.58358541774021

   => Energetics <=

    Nuclear Repulsion Energy =            669.6116480992069455
    One-Electron Energy =               -2426.4617553404741557
    Two-Electron Energy =                 970.2665218235270004
    DFT Exchange-Correlation Energy =       0.0000000000000000
    Empirical Dispersion Energy =           0.0000000000000000
    PCM Polarization Energy =               0.0000000000000000
    EFP Energy =                            0.0000000000000000
    Total Energy =                       -786.5835854177403235
    Molecular point group: c1
  Basis Set: CC-PVTZ
  Basis Set:

  -Total Gradient:
     Atom            X                  Y                   Z
    ------   -----------------  -----------------  -----------------
       1       -0.000001910123     0.000003193796     0.000003503391
       2       -0.000000059537    -0.000023299664     0.000005769643
       3        0.000205270600    -0.000301829917     0.000020773324
       4       -0.000182252484     0.000336953852    -0.000002054216
       5       -0.000007722321    -0.000024564892     0.000004708851
       6       -0.000135414663     0.000230087010    -0.000021761397
       7        0.000083867720    -0.000219815887    -0.000030009387
       8       -0.000007858925     0.000003511767     0.000018985087
       9        0.000045168459    -0.000027298117    -0.000006335094
      10       -0.000009867081     0.000006863762    -0.000003194563
      11       -0.000000549844    -0.000001071851    -0.000012027915
      12        0.000011328198     0.000017270131     0.000021642276

  **** Optimization is complete! (in 7 steps) ****
    Final optimized geometry and variables:
    Molecular point group: c1

    Geometry (in Angstrom), charge = 0, multiplicity = 1:

    H           -0.055132161625     2.046938211912     0.729155698161
    O            0.038166832043     1.910585492494    -0.198831710986
    C            0.009683673655     0.573473484622    -0.521224459381
    C           -1.290316466124    -0.127792915661    -0.039447077324
    C            1.286483228466    -0.114606679423    -0.041614166216
    H            0.015575096211     0.507858692314    -1.597871734230
    F           -1.969337359217    -0.576146726657    -1.069755082852
    F           -1.066148213101    -1.146112557878     0.756603025075
    F           -2.057094994634     0.712413856134     0.612206547582
    F            2.327395713786     0.477867488309    -0.572192050819
    F            1.318926730157    -1.375467237426    -0.398702195955
    F            1.412528243530    -0.045736168024     1.265744324096

  Mulliken Charges: (a.u.)
   Center  Symbol    Alpha    Beta     Spin     Total
       1     H     0.38244  0.38244  0.00000  0.23511
       2     O     4.18349  4.18349  0.00000 -0.36698
       3     C     3.02240  3.02240  0.00000 -0.04479
       4     C     2.67381  2.67381  0.00000  0.65239
       5     C     2.67825  2.67825  0.00000  0.64350
       6     H     0.42835  0.42835  0.00000  0.14329
       7     F     4.60509  4.60509  0.00000 -0.21018
       8     F     4.60224  4.60224  0.00000 -0.20448
       9     F     4.60503  4.60503  0.00000 -0.21006
      10     F     4.60160  4.60160  0.00000 -0.20320
      11     F     4.60584  4.60584  0.00000 -0.21168
      12     F     4.61146  4.61146  0.00000 -0.22292

   Total alpha = 41.00000, Total beta = 41.00000, Total charge = -0.00000

*** Psi4 exiting successfully. Buy a developer a beer!
