  ==> Input File <==

--------------------------------------------------------------------------
set {
	reference rhf
	basis 6-31G*
}

set_num_threads( 4 )
memory 2 gb

molecule MOL {
0 1

H	 3.503935	 -0.364136	 0.837129
N	 3.092854	 -0.246221	 -0.068770
C	 1.865559	 0.531981	 0.018834
H	 2.901659	 -1.164805	 -0.421585
C	 0.645745	 -0.382037	 -0.029944
H	 1.841966	 1.207024	 -0.831236
H	 1.815756	 1.155410	 0.915079
C	 -0.679275	 0.379305	 0.025956
H	 0.698998	 -0.976915	 -0.937203
H	 0.693479	 -1.083846	 0.802235
C	 -1.903357	 -0.536963	 -0.023547
H	 -0.726309	 1.082987	 -0.803784
H	 -0.717680	 0.977832	 0.934877
C	 -3.225172	 0.228290	 0.028445
H	 -1.867824	 -1.134999	 -0.931459
H	 -1.860449	 -1.239604	 0.805977
H	 -3.313397	 0.915643	 -0.808262
H	 -4.073500	 -0.448134	 -0.008893
H	 -3.306061	 0.809945	 0.942516

	symmetry c1
}
set optking {
	frozen_dihedral = ("
		1 2 3 6
	")
}

ee = optimize('scf')
oeprop('DIPOLE', 'QUADRUPOLE', 'MULLIKEN_CHARGES')
f=open( 'psi4out.xyz', 'w' )
f.write( "19  " )
f.write( str(ee) + "\n" )
f.write( MOL.save_string_xyz() )
f.close()
--------------------------------------------------------------------------

    Molecular point group: c1
  Charge       = 0
  Multiplicity = 1
  Basis Set: 6-31G*
  Basis Set:
  @DF-RHF Final Energy:  -251.34689672616591
    Total Energy =                       -251.3468967261659373
    Molecular point group: c1
  Basis Set: 6-31G*
  Basis Set:
  Basis Set: 6-31G*
  Basis Set:
  @DF-RHF Final Energy:  -251.34863629725194
    Total Energy =                       -251.3486362972519714
  Basis Set: 6-31G*
  Basis Set:
  Basis Set: 6-31G*
  Basis Set:
  @DF-RHF Final Energy:  -251.34889543050727
    Total Energy =                       -251.3488954305072411
  Basis Set: 6-31G*
  Basis Set:
  Basis Set: 6-31G*
  Basis Set:
  @DF-RHF Final Energy:  -251.34890980661621
    Total Energy =                       -251.3489098066161205
  Basis Set: 6-31G*
  Basis Set:
  Basis Set: 6-31G*
  Basis Set:
  @DF-RHF Final Energy:  -251.34891727579443
    Total Energy =                       -251.3489172757945198
  Basis Set: 6-31G*
  Basis Set:
  Basis Set: 6-31G*
  Basis Set:
  @DF-RHF Final Energy:  -251.34891847795265
    Total Energy =                       -251.3489184779528500
  Basis Set: 6-31G*
  Basis Set:
  Charge       = 0
  Multiplicity = 1
  Basis Set: 6-31G*
  Basis Set:

    Orbital Energies (a.u.)
    -----------------------

    Doubly Occupied:

       1A    -15.529001     2A    -11.239252     3A    -11.216828
       4A    -11.215775     5A    -11.214575     6A    -11.209496
       7A     -1.173468     8A     -1.075564     9A     -1.000048
      10A     -0.901368    11A     -0.819149    12A     -0.793150
      13A     -0.673811    14A     -0.640104    15A     -0.600419
      16A     -0.593358    17A     -0.569718    18A     -0.556191
      19A     -0.525637    20A     -0.502050    21A     -0.483788
      22A     -0.468394    23A     -0.466070    24A     -0.461328
      25A     -0.370683

  @DF-RHF Final Energy:  -251.34891910598074

   => Energetics <=

    Nuclear Repulsion Energy =            245.4092146023360499
    One-Electron Energy =                -824.9178142295951375
    Two-Electron Energy =                 328.1596805212782897
    DFT Exchange-Correlation Energy =       0.0000000000000000
    Empirical Dispersion Energy =           0.0000000000000000
    PCM Polarization Energy =               0.0000000000000000
    EFP Energy =                            0.0000000000000000
    Total Energy =                       -251.3489191059807695
    Molecular point group: c1
  Basis Set: 6-31G*
  Basis Set:

  -Total Gradient:
     Atom            X                  Y                   Z
    ------   -----------------  -----------------  -----------------
       1        0.001684973751     0.003115982359    -0.000236658921
       2       -0.001817098761    -0.003326279782     0.000724168129
       3       -0.001170328587    -0.001961391085    -0.002374186017
       4       -0.000006138759     0.000001939848     0.000010246432
       5       -0.000051428805    -0.000017558024     0.000011965185
       6        0.001349727836     0.002230679718     0.001879241047
       7        0.000020760514    -0.000010618890    -0.000006766192
       8       -0.000041001782    -0.000012993853    -0.000013654545
       9       -0.000015016658     0.000002288429    -0.000007093227
      10       -0.000020843208    -0.000013959907     0.000011563962
      11        0.000002330083    -0.000019297614     0.000012055766
      12       -0.000002742806     0.000007188128    -0.000011152261
      13        0.000016446914    -0.000009130944     0.000005047556
      14        0.000031621349     0.000021010058    -0.000012420985
      15        0.000000140265    -0.000004276858     0.000000006227
      16        0.000004426537    -0.000002275624     0.000008813368
      17       -0.000003589936     0.000009164844    -0.000001014600
      18        0.000020981122    -0.000008494104    -0.000005485248
      19       -0.000003219071    -0.000001976697     0.000005324324

  **** Optimization is complete! (in 7 steps) ****
    Final optimized geometry and variables:
    Molecular point group: c1

    Geometry (in Angstrom), charge = 0, multiplicity = 1:

    H            3.534189708452    -0.334358911506     0.860575916939
    N            3.146267879231    -0.190570744691    -0.048605518071
    C            1.869667081100     0.509465679027     0.008982906491
    H            3.073373512810    -1.076604090776    -0.506963599057
    C            0.637778393086    -0.395288971619    -0.018912317552
    H            1.823230288446     1.228285210021    -0.805217087975
    H            1.856585370630     1.104301333006     0.918123518959
    C           -0.680229237001     0.379291999860     0.022385552288
    H            0.668028289854    -1.006087117140    -0.920822533671
    H            0.685355738661    -1.085487997229     0.821941308165
    C           -1.914763019358    -0.523185743419    -0.018724399767
    H           -0.716193692502     1.073914408616    -0.815094326047
    H           -0.712234127147     0.988556864300     0.924357707706
    C           -3.227263547770     0.258470964472     0.022989397049
    H           -1.885645583779    -1.131310234492    -0.920313322768
    H           -1.881371213336    -1.217228269941     0.818409212347
    H           -3.305716362810     0.938281032009    -0.820733814930
    H           -4.083419361500    -0.408270731077    -0.009024176835
    H           -3.302651802249     0.850131346613     0.931007558603

  Mulliken Charges: (a.u.)
   Center  Symbol    Alpha    Beta     Spin     Total
       1     H     0.33144  0.33144  0.00000  0.33712
       2     N     3.92969  3.92969  0.00000 -0.85938
       3     C     3.05116  3.05116  0.00000 -0.10232
       4     H     0.33226  0.33226  0.00000  0.33548
       5     C     3.16242  3.16242  0.00000 -0.32485
       6     H     0.41981  0.41981  0.00000  0.16038
       7     H     0.42432  0.42432  0.00000  0.15135
       8     C     3.15477  3.15477  0.00000 -0.30954
       9     H     0.42512  0.42512  0.00000  0.14976
      10     H     0.42504  0.42504  0.00000  0.14992
      11     C     3.15093  3.15093  0.00000 -0.30187
      12     H     0.42198  0.42198  0.00000  0.15604
      13     H     0.42362  0.42362  0.00000  0.15275
      14     C     3.23939  3.23939  0.00000 -0.47878
      15     H     0.42272  0.42272  0.00000  0.15455
      16     H     0.42311  0.42311  0.00000  0.15378
      17     H     0.42135  0.42135  0.00000  0.15729
      18     H     0.41915  0.41915  0.00000  0.16171
      19     H     0.42170  0.42170  0.00000  0.15659

   Total alpha = 25.00000, Total beta = 25.00000, Total charge =  0.00000
