  ==> Input File <==

--------------------------------------------------------------------------
set {
	reference rhf
	basis 6-31G*
}

set_num_threads( 1 )
memory 2 gb

molecule MOL {
0 1

H	 -3.420663	 1.227371	 -1.044276
O	 -3.452007	 0.283848	 -0.965577
C	 -3.181085	 -0.079926	 0.364119
C	 -1.765924	 0.277073	 0.805136
H	 -3.327791	 -1.152017	 0.410903
H	 -3.905698	 0.375695	 1.036898
C	 -1.689583	 0.816496	 2.234022
H	 -1.131907	 -0.605039	 0.710993
H	 -1.366067	 1.012947	 0.109561
C	 -0.262727	 1.150300	 2.674291
H	 -2.121996	 0.088475	 2.913517
H	 -2.308426	 1.709115	 2.309235
C	 -0.195018	 1.695227	 4.103471
H	 0.352081	 0.257606	 2.587537
H	 0.164973	 1.883116	 1.991167
C	 1.203201	 2.127723	 4.559637
H	 -0.580968	 0.945782	 4.792724
H	 -0.863079	 2.550448	 4.181632
C	 2.214569	 0.986112	 4.679074
H	 1.113892	 2.616138	 5.526985
H	 1.587946	 2.880828	 3.874796
H	 1.850737	 0.211256	 5.348673
H	 3.158609	 1.347343	 5.075482
H	 2.421109	 0.523914	 3.719451

	symmetry c1
}
set optking {
	frozen_dihedral = ("
		20 16 13 17,
		17 13 10 7,
		13 10 7 11,
		11 7 4 3,
		1 2 3 5
	")
}

ee = energy('scf')
oeprop('DIPOLE', 'QUADRUPOLE', 'MULLIKEN_CHARGES')
f=open( 'psi4out.xyz', 'w' )
f.write( "24  " )
f.write( str(ee) + "\n" )
f.write( MOL.save_string_xyz() )
f.close()
--------------------------------------------------------------------------

    Molecular point group: c1

    Geometry (in Angstrom), charge = 0, multiplicity = 1:

       Center              X                  Y                   Z               Mass
    ------------   -----------------  -----------------  -----------------  -----------------
           H         -2.492519229713     0.329909186706    -3.296071041922     1.007825032070
           O         -2.523863229713    -0.613613813294    -3.217372041922    15.994914619560
           C         -2.252941229713    -0.977387813294    -1.887676041922    12.000000000000
           C         -0.837780229713    -0.620388813294    -1.446659041922    12.000000000000
           H         -2.399647229713    -2.049478813294    -1.840892041922     1.007825032070
           H         -2.977554229713    -0.521766813294    -1.214897041922     1.007825032070
           C         -0.761439229713    -0.080965813294    -0.017773041922    12.000000000000
           H         -0.203763229713    -1.502500813294    -1.540802041922     1.007825032070
           H         -0.437923229713     0.115485186706    -2.142234041922     1.007825032070
           C          0.665416770287     0.252838186706     0.422495958078    12.000000000000
           H         -1.193852229713    -0.808986813294     0.661721958078     1.007825032070
           H         -1.380282229713     0.811653186706     0.057439958078     1.007825032070
           C          0.733125770287     0.797765186706     1.851675958078    12.000000000000
           H          1.280224770287    -0.639855813294     0.335741958078     1.007825032070
           H          1.093116770287     0.985654186706    -0.260628041922     1.007825032070
           C          2.131344770287     1.230261186706     2.307841958078    12.000000000000
           H          0.347175770287     0.048320186706     2.540928958078     1.007825032070
           H          0.065064770287     1.652986186706     1.929836958078     1.007825032070
           C          3.142712770287     0.088650186706     2.427278958078    12.000000000000
           H          2.042035770287     1.718676186706     3.275189958078     1.007825032070
           H          2.516089770287     1.983366186706     1.623000958078     1.007825032070
           H          2.778880770287    -0.686205813294     3.096877958078     1.007825032070
           H          4.086752770287     0.449881186706     2.823686958078     1.007825032070
           H          3.349252770287    -0.373547813294     1.467655958078     1.007825032070

  Charge       = 0
  Multiplicity = 1
  Basis Set: 6-31G*
  Basis Set:

    Orbital Energies (a.u.)
    -----------------------

    Doubly Occupied:

       1A    -20.551238     2A    -11.265952     3A    -11.219875
       4A    -11.216896     5A    -11.216607     6A    -11.215428
       7A    -11.215381     8A    -11.209383     9A     -1.358066
      10A     -1.093206    11A     -1.051670    12A     -0.986825
      13A     -0.915485    14A     -0.851462    15A     -0.804714
      16A     -0.779953    17A     -0.688273    18A     -0.656816
      19A     -0.623779    20A     -0.613197    21A     -0.599326
      22A     -0.585675    23A     -0.556809    24A     -0.540983
      25A     -0.530901    26A     -0.509187    27A     -0.491463
      28A     -0.484249    29A     -0.474580    30A     -0.462467
      31A     -0.456662    32A     -0.444414    33A     -0.421720

  @DF-RHF Final Energy:  -349.24223554835936

   => Energetics <=

    Nuclear Repulsion Energy =            380.3552247138370035
    One-Electron Energy =               -1227.0095641242742204
    Two-Electron Energy =                 497.4121038620779700
    DFT Exchange-Correlation Energy =       0.0000000000000000
    Empirical Dispersion Energy =           0.0000000000000000
    PCM Polarization Energy =               0.0000000000000000
    EFP Energy =                            0.0000000000000000
    Total Energy =                       -349.2422355483591900

  Mulliken Charges: (a.u.)
   Center  Symbol    Alpha    Beta     Spin     Total
       1     H     0.28388  0.28388  0.00000  0.43224
       2     O     4.37098  4.37098  0.00000 -0.74196
       3     C     2.99224  2.99224  0.00000  0.01553
       4     C     3.17064  3.17064  0.00000 -0.34129
       5     H     0.41469  0.41469  0.00000  0.17062
       6     H     0.42936  0.42936  0.00000  0.14127
       7     C     3.15935  3.15935  0.00000 -0.31869
       8     H     0.41668  0.41668  0.00000  0.16664
       9     H     0.42052  0.42052  0.00000  0.15895
      10     C     3.15371  3.15371  0.00000 -0.30742
      11     H     0.42137  0.42137  0.00000  0.15725
      12     H     0.42447  0.42447  0.00000  0.15106
      13     C     3.15246  3.15246  0.00000 -0.30491
      14     H     0.42029  0.42029  0.00000  0.15942
      15     H     0.42368  0.42368  0.00000  0.15264
      16     C     3.15241  3.15241  0.00000 -0.30481
      17     H     0.42401  0.42401  0.00000  0.15197
      18     H     0.42270  0.42270  0.00000  0.15459
      19     C     3.24132  3.24132  0.00000 -0.48263
      20     H     0.42080  0.42080  0.00000  0.15839
      21     H     0.42337  0.42337  0.00000  0.15326
      22     H     0.42220  0.42220  0.00000  0.15560
      23     H     0.41898  0.41898  0.00000  0.16204
      24     H     0.41989  0.41989  0.00000  0.16022

   Total alpha = 33.00000, Total beta = 33.00000, Total charge =  0.00000
