  ==> Input File <==

--------------------------------------------------------------------------
set {
	reference rhf
	basis cc-pvtz
}

set_num_threads( 4 )
memory 2 gb

molecule MOL {
0 1

H	 -2.535427	 0.209915	 0.858183
O	 -2.041679	 -0.058866	 0.103463
C	 -0.959304	 0.780994	 -0.094939
C	 0.354905	 0.037902	 -0.006215
H	 -0.985899	 1.279578	 -1.057596
H	 -0.969809	 1.529522	 0.682889
F	 0.412060	 -0.931028	 -0.902708
F	 1.359641	 0.856111	 -0.239961
F	 0.545380	 -0.506387	 1.171682

	symmetry c1
}
set optking {
	frozen_dihedral = ("
		1 2 3 5
	")
}

ee = optimize('scf')
oeprop('DIPOLE', 'QUADRUPOLE', 'MULLIKEN_CHARGES')
f=open( 'psi4out.xyz', 'w' )
f.write( "9  " )
f.write( str(ee) + "\n" )
f.write( MOL.save_string_xyz() )
f.close()
--------------------------------------------------------------------------

    Molecular point group: c1
  Charge       = 0
  Multiplicity = 1
  Basis Set: CC-PVTZ
  Basis Set:
  @DF-RHF Final Energy:  -450.84348336317089
    Total Energy =                       -450.8434833631706624
    Molecular point group: c1
  Basis Set: CC-PVTZ
  Basis Set:
  Basis Set: CC-PVTZ
  Basis Set:
  @DF-RHF Final Energy:  -450.84460480224783
    Total Energy =                       -450.8446048022479999
  Basis Set: CC-PVTZ
  Basis Set:
  Basis Set: CC-PVTZ
  Basis Set:
  @DF-RHF Final Energy:  -450.84481779651321
    Total Energy =                       -450.8448177965130412
  Basis Set: CC-PVTZ
  Basis Set:
  Basis Set: CC-PVTZ
  Basis Set:
  @DF-RHF Final Energy:  -450.84482707986751
    Total Energy =                       -450.8448270798676276
  Basis Set: CC-PVTZ
  Basis Set:
  Basis Set: CC-PVTZ
  Basis Set:
  @DF-RHF Final Energy:  -450.84482844888925
    Total Energy =                       -450.8448284488889612
  Basis Set: CC-PVTZ
  Basis Set:
  Charge       = 0
  Multiplicity = 1
  Basis Set: CC-PVTZ
  Basis Set:

    Orbital Energies (a.u.)
    -----------------------

    Doubly Occupied:

       1A    -26.334264     2A    -26.331923     3A    -26.330570
       4A    -20.582591     5A    -11.489503     6A    -11.310295
       7A     -1.742320     8A     -1.638791     9A     -1.637411
      10A     -1.405923    11A     -1.050137    12A     -0.924878
      13A     -0.833179    14A     -0.831723    15A     -0.794374
      16A     -0.742116    17A     -0.713644    18A     -0.704042
      19A     -0.669520    20A     -0.658933    21A     -0.643298
      22A     -0.638001    23A     -0.602063    24A     -0.535209
      25A     -0.483243

  @DF-RHF Final Energy:  -450.84482857700499

   => Energetics <=

    Nuclear Repulsion Energy =            277.4935038081496828
    One-Electron Energy =               -1177.4207668702688352
    Two-Electron Energy =                 449.0824344851141063
    DFT Exchange-Correlation Energy =       0.0000000000000000
    Empirical Dispersion Energy =           0.0000000000000000
    PCM Polarization Energy =               0.0000000000000000
    EFP Energy =                            0.0000000000000000
    Total Energy =                       -450.8448285770051029
    Molecular point group: c1
  Basis Set: CC-PVTZ
  Basis Set:

  -Total Gradient:
     Atom            X                  Y                   Z
    ------   -----------------  -----------------  -----------------
       1       -0.000760804455     0.000752386436    -0.000785252094
       2        0.000763474638    -0.000714956896     0.001123015163
       3        0.000604459911    -0.000905119783    -0.000797735757
       4       -0.000000657553    -0.000025100044     0.000000794790
       5       -0.000605273828     0.000870536685     0.000450801754
       6        0.000004903506    -0.000010451220     0.000000519341
       7       -0.000012586207     0.000005245112    -0.000000173561
       8        0.000004296177     0.000007195251     0.000014879601
       9        0.000002187811     0.000020264456    -0.000006849237

  **** Optimization is complete! (in 6 steps) ****
    Final optimized geometry and variables:
    Molecular point group: c1

    Geometry (in Angstrom), charge = 0, multiplicity = 1:

    H           -2.532690359604     0.175776819484     0.828291419167
    O           -2.018207223302    -0.080219647118     0.086900477428
    C           -0.950621759169     0.786416909182    -0.100903970210
    C            0.352797395272     0.025372826469    -0.027978400885
    H           -1.009590789301     1.255547056405    -1.074504157649
    H           -0.905878512857     1.565356814464     0.649803873190
    F            0.419477640087    -0.929355499094    -0.925230393550
    F            1.361765114226     0.848416479451    -0.241982423761
    F            0.531473252594    -0.523243347626     1.154047157595

  Mulliken Charges: (a.u.)
   Center  Symbol    Alpha    Beta     Spin     Total
       1     H     0.38566  0.38566  0.00000  0.22868
       2     O     4.19159  4.19159  0.00000 -0.38318
       3     C     2.99106  2.99106  0.00000  0.01788
       4     C     2.67707  2.67707  0.00000  0.64587
       5     H     0.45691  0.45691  0.00000  0.08618
       6     H     0.46279  0.46279  0.00000  0.07443
       7     F     4.60782  4.60782  0.00000 -0.21565
       8     F     4.61460  4.61460  0.00000 -0.22919
       9     F     4.61251  4.61251  0.00000 -0.22502

   Total alpha = 25.00000, Total beta = 25.00000, Total charge =  0.00000
