  ==> Input File <==

--------------------------------------------------------------------------
set {
	reference rhf
	basis 6-31G*
}

set_num_threads( 1 )
memory 2 gb

molecule MOL {
0 1

O	 3.225979	 0.970355	 -0.599647
C	 2.701189	 0.057885	 -0.047330
C	 1.245376	 -0.013843	 0.345420
O	 3.347903	 -1.046386	 0.304773
C	 0.344073	 0.852592	 -0.531541
H	 0.958702	 -1.059829	 0.315034
H	 1.177392	 0.282367	 1.389132
C	 -1.120514	 0.872920	 -0.080915
H	 0.407765	 0.509990	 -1.559980
H	 0.730460	 1.866062	 -0.529347
C	 -1.854257	 -0.464959	 -0.210568
H	 -1.645745	 1.616244	 -0.676169
H	 -1.177731	 1.217641	 0.950542
C	 -3.338703	 -0.366465	 0.146812
H	 -1.753758	 -0.830561	 -1.231378
H	 -1.388103	 -1.211419	 0.428549
C	 -4.080939	 -1.698604	 0.025889
H	 -3.815886	 0.369617	 -0.497946
H	 -3.440091	 0.009265	 1.163792
C	 -5.563542	 -1.590814	 0.380812
H	 -3.979796	 -2.075979	 -0.989493
H	 -3.608090	 -2.434480	 0.672944
H	 -6.062009	 -2.550543	 0.285635
H	 -6.072803	 -0.887550	 -0.272081
H	 -5.698123	 -1.248223	 1.402963
C	 4.728119	 -1.109107	 -0.004993
H	 4.882018	 -1.033965	 -1.071845
H	 5.068212	 -2.067527	 0.355250
H	 5.265056	 -0.311663	 0.488280

	symmetry c1
}
set optking {
	frozen_dihedral = ("
		21 17 14 11,
		17 14 11 15,
		15 11 8 5,
		6 3 5 9,
		11 8 5 9,
		2 4 26 27,
		1 2 4 26
	")
}

ee = energy('scf')
oeprop('DIPOLE', 'QUADRUPOLE', 'MULLIKEN_CHARGES')
f=open( 'psi4out.xyz', 'w' )
f.write( "29  " )
f.write( str(ee) + "\n" )
f.write( MOL.save_string_xyz() )
f.close()
--------------------------------------------------------------------------

    Molecular point group: c1

    Geometry (in Angstrom), charge = 0, multiplicity = 1:

       Center              X                  Y                   Z               Mass
    ------------   -----------------  -----------------  -----------------  -----------------
           O          3.216062637676     1.303360619513    -0.575586592739    15.994914619560
           C          2.691272637676     0.390890619513    -0.023269592739    12.000000000000
           C          1.235459637676     0.319162619513     0.369480407261    12.000000000000
           O          3.337986637676    -0.713380380487     0.328833407261    15.994914619560
           C          0.334156637676     1.185597619513    -0.507480592739    12.000000000000
           H          0.948785637676    -0.726823380487     0.339094407261     1.007825032070
           H          1.167475637676     0.615372619513     1.413192407261     1.007825032070
           C         -1.130430362324     1.205925619513    -0.056854592739    12.000000000000
           H          0.397848637676     0.842995619513    -1.535919592739     1.007825032070
           H          0.720543637676     2.199067619513    -0.505286592739     1.007825032070
           C         -1.864173362324    -0.131953380487    -0.186507592739    12.000000000000
           H         -1.655661362324     1.949249619513    -0.652108592739     1.007825032070
           H         -1.187647362324     1.550646619513     0.974602407261     1.007825032070
           C         -3.348619362324    -0.033459380487     0.170872407261    12.000000000000
           H         -1.763674362324    -0.497555380487    -1.207317592739     1.007825032070
           H         -1.398019362324    -0.878413380487     0.452609407261     1.007825032070
           C         -4.090855362324    -1.365598380487     0.049949407261    12.000000000000
           H         -3.825802362324     0.702622619513    -0.473885592739     1.007825032070
           H         -3.450007362324     0.342270619513     1.187852407261     1.007825032070
           C         -5.573458362323    -1.257808380487     0.404872407261    12.000000000000
           H         -3.989712362324    -1.742973380487    -0.965432592739     1.007825032070
           H         -3.618006362324    -2.101474380487     0.697004407261     1.007825032070
           H         -6.071925362324    -2.217537380487     0.309695407261     1.007825032070
           H         -6.082719362324    -0.554544380487    -0.248020592739     1.007825032070
           H         -5.708039362323    -0.915217380487     1.427023407261     1.007825032070
           C          4.718202637676    -0.776101380487     0.019067407261    12.000000000000
           H          4.872101637677    -0.700959380487    -1.047784592739     1.007825032070
           H          5.058295637676    -1.734521380487     0.379310407261     1.007825032070
           H          5.255139637676     0.021342619513     0.512340407261     1.007825032070

  Charge       = 0
  Multiplicity = 1
  Basis Set: 6-31G*
  Basis Set:

    Orbital Energies (a.u.)
    -----------------------

    Doubly Occupied:

       1A    -20.604238     2A    -20.544593     3A    -11.371962
       4A    -11.280582     5A    -11.234028     6A    -11.220688
       7A    -11.218298     8A    -11.216208     9A    -11.216034
      10A    -11.214667    11A    -11.209202    12A     -1.469232
      13A     -1.362397    14A     -1.098527    15A     -1.067076
      16A     -1.019611    17A     -0.977362    18A     -0.928752
      19A     -0.861987    20A     -0.799510    21A     -0.790608
      22A     -0.765674    23A     -0.700089    24A     -0.681484
      25A     -0.672269    26A     -0.650965    27A     -0.627501
      28A     -0.605389    29A     -0.595722    30A     -0.581073
      31A     -0.563866    32A     -0.554018    33A     -0.532583
      34A     -0.529788    35A     -0.515472    36A     -0.513410
      37A     -0.496254    38A     -0.478054    39A     -0.470683
      40A     -0.462905    41A     -0.459270    42A     -0.455453
      43A     -0.440523    44A     -0.435050

  @DF-RHF Final Energy:  -501.04349522802409

   => Energetics <=

    Nuclear Repulsion Energy =            610.5468627168800140
    One-Electron Energy =               -1892.1945037415521256
    Two-Electron Energy =                 780.6041457966497319
    DFT Exchange-Correlation Energy =       0.0000000000000000
    Empirical Dispersion Energy =           0.0000000000000000
    PCM Polarization Energy =               0.0000000000000000
    EFP Energy =                            0.0000000000000000
    Total Energy =                       -501.0434952280223797

  Mulliken Charges: (a.u.)
   Center  Symbol    Alpha    Beta     Spin     Total
       1     O     4.28600  4.28600  0.00000 -0.57201
       2     C     2.60331  2.60331  0.00000  0.79338
       3     C     3.21222  3.21222  0.00000 -0.42444
       4     O     4.30665  4.30665  0.00000 -0.61329
       5     C     3.15689  3.15689  0.00000 -0.31378
       6     H     0.39878  0.39878  0.00000  0.20243
       7     H     0.40036  0.40036  0.00000  0.19928
       8     C     3.15656  3.15656  0.00000 -0.31311
       9     H     0.41666  0.41666  0.00000  0.16668
      10     H     0.40365  0.40365  0.00000  0.19270
      11     C     3.15492  3.15492  0.00000 -0.30985
      12     H     0.41817  0.41817  0.00000  0.16366
      13     H     0.42320  0.42320  0.00000  0.15359
      14     C     3.15037  3.15037  0.00000 -0.30074
      15     H     0.42303  0.42303  0.00000  0.15394
      16     H     0.42301  0.42301  0.00000  0.15398
      17     C     3.15144  3.15144  0.00000 -0.30288
      18     H     0.42338  0.42338  0.00000  0.15324
      19     H     0.42391  0.42391  0.00000  0.15217
      20     C     3.23935  3.23935  0.00000 -0.47871
      21     H     0.42289  0.42289  0.00000  0.15423
      22     H     0.42333  0.42333  0.00000  0.15334
      23     H     0.41922  0.41922  0.00000  0.16157
      24     H     0.42156  0.42156  0.00000  0.15687
      25     H     0.42178  0.42178  0.00000  0.15644
      26     C     3.09293  3.09293  0.00000 -0.18586
      27     H     0.40883  0.40883  0.00000  0.18233
      28     H     0.40848  0.40848  0.00000  0.18303
      29     H     0.40910  0.40910  0.00000  0.18181

   Total alpha = 44.00000, Total beta = 44.00000, Total charge =  0.00000
