  ==> Input File <==

--------------------------------------------------------------------------
set {
	reference rhf
	basis cc-pvtz
}

set_num_threads( 4 )
memory 2 gb

molecule MOL {
0 1

H	 -3.144994	 -1.202467	 -0.018751
O	 -2.321472	 -0.864941	 -0.318626
C	 -2.021813	 0.336996	 0.342658
C	 -0.669613	 0.837286	 -0.127252
H	 -2.780861	 1.084746	 0.127159
H	 -2.006390	 0.184138	 1.420053
C	 0.490865	 -0.082543	 0.241244
H	 -0.708709	 0.967192	 -1.204587
H	 -0.507562	 1.822272	 0.303070
C	 1.839800	 0.429565	 -0.255472
H	 0.305636	 -1.070211	 -0.165276
H	 0.527397	 -0.195943	 1.322876
C	 2.160791	 1.838349	 0.232461
H	 2.622452	 -0.250307	 0.070002
H	 1.855482	 0.413168	 -1.342290
H	 2.187264	 1.879384	 1.316219
H	 3.124548	 2.172163	 -0.135024
H	 1.413938	 2.549333	 -0.105411

	symmetry c1
}
set optking {
	frozen_dihedral = ("
		14 10 7 11
	")
}

ee = optimize('scf')
oeprop('DIPOLE', 'QUADRUPOLE', 'MULLIKEN_CHARGES')
f=open( 'psi4out.xyz', 'w' )
f.write( "18  " )
f.write( str(ee) + "\n" )
f.write( MOL.save_string_xyz() )
f.close()
--------------------------------------------------------------------------

    Molecular point group: c1
  Charge       = 0
  Multiplicity = 1
  Basis Set: CC-PVTZ
  Basis Set:
  @DF-RHF Final Energy:  -271.28391515976284
    Total Energy =                       -271.2839151597634100
    Molecular point group: c1
  Basis Set: CC-PVTZ
  Basis Set:
  Basis Set: CC-PVTZ
  Basis Set:
  @DF-RHF Final Energy:  -271.28449490293724
    Total Energy =                       -271.2844949029372970
  Basis Set: CC-PVTZ
  Basis Set:
  Basis Set: CC-PVTZ
  Basis Set:
  @DF-RHF Final Energy:  -271.28496044933200
    Total Energy =                       -271.2849604493317202
  Basis Set: CC-PVTZ
  Basis Set:
  Basis Set: CC-PVTZ
  Basis Set:
  @DF-RHF Final Energy:  -271.28499006167954
    Total Energy =                       -271.2849900616795367
  Basis Set: CC-PVTZ
  Basis Set:
  Basis Set: CC-PVTZ
  Basis Set:
  @DF-RHF Final Energy:  -271.28499155804633
    Total Energy =                       -271.2849915580464426
  Basis Set: CC-PVTZ
  Basis Set:
  Charge       = 0
  Multiplicity = 1
  Basis Set: CC-PVTZ
  Basis Set:

    Orbital Energies (a.u.)
    -----------------------

    Doubly Occupied:

       1A    -20.546251     2A    -11.265921     3A    -11.209867
       4A    -11.209391     5A    -11.205122     6A    -11.203408
       7A     -1.364157     8A     -1.076263     9A     -1.007351
      10A     -0.916249    11A     -0.830676    12A     -0.771361
      13A     -0.708795    14A     -0.635964    15A     -0.621666
      16A     -0.606804    17A     -0.569015    18A     -0.552294
      19A     -0.525956    20A     -0.502800    21A     -0.495085
      22A     -0.462101    23A     -0.458570    24A     -0.449887
      25A     -0.429922

  @DF-RHF Final Energy:  -271.28499171966439

   => Energetics <=

    Nuclear Repulsion Energy =            251.9020518168972558
    One-Electron Energy =                -867.1243351770419849
    Two-Electron Energy =                 343.9372916404803391
    DFT Exchange-Correlation Energy =       0.0000000000000000
    Empirical Dispersion Energy =           0.0000000000000000
    PCM Polarization Energy =               0.0000000000000000
    EFP Energy =                            0.0000000000000000
    Total Energy =                       -271.2849917196643901
    Molecular point group: c1
  Basis Set: CC-PVTZ
  Basis Set:

  -Total Gradient:
     Atom            X                  Y                   Z
    ------   -----------------  -----------------  -----------------
       1       -0.000002110710     0.000001442176    -0.000003486952
       2       -0.000018844303     0.000015860910    -0.000005241527
       3        0.000017918917    -0.000020178669     0.000035027513
       4        0.000001839342     0.000005838367    -0.000033652891
       5        0.000002978090    -0.000010808413    -0.000007105389
       6       -0.000010017737     0.000003150455     0.000008799260
       7        0.001063418684    -0.000680476286     0.002044017950
       8        0.000007298965     0.000009283435    -0.000009236561
       9       -0.000004394075    -0.000001302382    -0.000001247112
      10       -0.000490456367    -0.001008753668    -0.002092085371
      11       -0.000809209437     0.000730567704    -0.001399633262
      12        0.000008416793    -0.000003241622    -0.000000272435
      13       -0.000005266992     0.000002832621    -0.000000839767
      14        0.000247670429     0.000952379785     0.001462583896
      15       -0.000007231529    -0.000001537301     0.000003550713
      16       -0.000001620273    -0.000000234011    -0.000001890726
      17        0.000000008454    -0.000001285778     0.000001650041
      18       -0.000000398248     0.000006462675    -0.000000937380

  **** Optimization is complete! (in 6 steps) ****
    Final optimized geometry and variables:
    Molecular point group: c1

    Geometry (in Angstrom), charge = 0, multiplicity = 1:

    H           -2.967562335485    -1.665729627593    -0.129017792923
    O           -2.153399864794    -1.283516407549    -0.399076008208
    C           -1.909125029118    -0.104809048989     0.323906431989
    C           -0.567052659942     0.466509718381    -0.092948432449
    H           -2.690651648561     0.624881670139     0.128014560938
    H           -1.908837143145    -0.308092671727     1.393118793956
    C            0.614112705159    -0.432011069154     0.271853574362
    H           -0.585842822461     0.632621913927    -1.166384862190
    H           -0.463522621450     1.439514876431     0.375954249248
    C            1.963827013984     0.042692358377    -0.269428263079
    H            0.413991930936    -1.422098703848    -0.118864580809
    H            0.671724775520    -0.523278408716     1.354385612518
    C            2.380067195726     1.442428980742     0.178697866643
    H            2.725581658966    -0.657653520201     0.059343659836
    H            1.951127143366     0.000884958024    -1.354831766938
    H            2.374588298640     1.523606629233     1.261385050074
    H            3.383143897501     1.671628328692    -0.162671748284
    H            1.721561990334     2.208139893605    -0.213385306713

  Mulliken Charges: (a.u.)
   Center  Symbol    Alpha    Beta     Spin     Total
       1     H     0.39563  0.39563  0.00000  0.20874
       2     O     4.19865  4.19865  0.00000 -0.39731
       3     C     2.97244  2.97244  0.00000  0.05513
       4     C     3.09387  3.09387  0.00000 -0.18775
       5     H     0.46491  0.46491  0.00000  0.07018
       6     H     0.47365  0.47365  0.00000  0.05270
       7     C     3.09588  3.09588  0.00000 -0.19176
       8     H     0.45205  0.45205  0.00000  0.09589
       9     H     0.45260  0.45260  0.00000  0.09480
      10     C     3.09074  3.09074  0.00000 -0.18149
      11     H     0.44011  0.44011  0.00000  0.11978
      12     H     0.45737  0.45737  0.00000  0.08526
      13     C     3.15445  3.15445  0.00000 -0.30890
      14     H     0.44965  0.44965  0.00000  0.10070
      15     H     0.45268  0.45268  0.00000  0.09464
      16     H     0.45549  0.45549  0.00000  0.08901
      17     H     0.44627  0.44627  0.00000  0.10745
      18     H     0.45354  0.45354  0.00000  0.09293

   Total alpha = 25.00000, Total beta = 25.00000, Total charge =  0.00000
