                              Psi4 1.0.54 Driver

  ==> Input File <==

--------------------------------------------------------------------------
set {
	reference rhf
	basis cc-pvtz
}

set_num_threads( 4 )
memory 2 gb

molecule MOL {
0 1

O	 -0.909866	 1.106407	 -2.495308
C	 -1.372685	 0.787621	 -1.448596
C	 -0.881910	 -0.448129	 -0.720509
C	 -2.455379	 1.601513	 -0.780675
C	 0.376695	 -0.140025	 0.100361
H	 -0.654311	 -1.199146	 -1.466353
H	 -1.659730	 -0.836263	 -0.071499
C	 1.630207	 -0.772146	 -0.501001
H	 0.486632	 0.935267	 0.162725
H	 0.248225	 -0.501310	 1.117842
C	 2.907848	 -0.545876	 0.309149
H	 1.772784	 -0.391628	 -1.509394
H	 1.468529	 -1.842059	 -0.599744
C	 3.373802	 0.906639	 0.372125
H	 3.699140	 -1.146831	 -0.127906
H	 2.764321	 -0.923458	 1.318191
H	 3.519798	 1.311927	 -0.623875
H	 4.316899	 0.983758	 0.900700
H	 2.661122	 1.540651	 0.885346
H	 -3.377511	 1.029162	 -0.771399
H	 -2.610298	 2.525397	 -1.316407
H	 -2.196841	 1.808765	 0.251698

	symmetry c1
}
set optking {
	frozen_dihedral = ("
		6 3 5 8
	")
}

ee,wfn = optimize('scf', return_wfn=True)
oeprop( wfn, 'DIPOLE', 'QUADRUPOLE', 'MULLIKEN_CHARGES')
f=open( 'psi4out.xyz', 'w' )
f.write( "22  " )
f.write( str(ee) + "\n" )
f.write( MOL.save_string_xyz() )
f.close()
--------------------------------------------------------------------------

    Molecular point group: c1
  Charge       = 0
  Multiplicity = 1
  Basis Set: CC-PVTZ
  Basis Set:
  @DF-RHF Final Energy:  -348.21825313829333
    Total Energy =                       -348.2182531382934485
    Molecular point group: c1
  Basis Set: CC-PVTZ
  Basis Set:
  Basis Set: CC-PVTZ
  Basis Set:
  @DF-RHF Final Energy:  -348.21838685945045
    Total Energy =                       -348.2183868594507317
  Basis Set: CC-PVTZ
  Basis Set:
  Basis Set: CC-PVTZ
  Basis Set:
  @DF-RHF Final Energy:  -348.21868640912089
    Total Energy =                       -348.2186864091212328
  Basis Set: CC-PVTZ
  Basis Set:
  Basis Set: CC-PVTZ
  Basis Set:
  @DF-RHF Final Energy:  -348.21876049742588
    Total Energy =                       -348.2187604974259898
  Basis Set: CC-PVTZ
  Basis Set:
  @DF-RHF Final Energy:  -348.21877470394600
    Total Energy =                       -348.2187747039454280
  Basis Set: CC-PVTZ
  Basis Set:
  @DF-RHF Final Energy:  -348.21877924675925
    Total Energy =                       -348.2187792467593681
  Basis Set: CC-PVTZ
  Basis Set:
  Basis Set: CC-PVTZ
  Basis Set:
  @DF-RHF Final Energy:  -348.21878797125390
    Total Energy =                       -348.2187879712537324
  Basis Set: CC-PVTZ
  Basis Set:
  Basis Set: CC-PVTZ
  Basis Set:
  @DF-RHF Final Energy:  -348.21878968552790
    Total Energy =                       -348.2187896855278950
  Basis Set: CC-PVTZ
  Basis Set:
  Charge       = 0
  Multiplicity = 1
  Basis Set: CC-PVTZ
  Basis Set:

    Orbital Energies (a.u.)
    -----------------------

    Doubly Occupied:

       1A    -20.536496     2A    -11.319027     3A    -11.229621
       4A    -11.227355     5A    -11.226648     6A    -11.217340
       7A    -11.216703     8A    -11.208559     9A     -1.396448
      10A     -1.095126    11A     -1.044515    12A     -0.998366
      13A     -0.937743    14A     -0.859881    15A     -0.786634
      16A     -0.735546    17A     -0.661530    18A     -0.642643
      19A     -0.628976    20A     -0.612301    21A     -0.603162
      22A     -0.588283    23A     -0.553979    24A     -0.548927
      25A     -0.533955    26A     -0.521673    27A     -0.503762
      28A     -0.487656    29A     -0.468850    30A     -0.463374
      31A     -0.456449    32A     -0.398340

  @DF-RHF Final Energy:  -348.21879007295223

   => Energetics <=

    Nuclear Repulsion Energy =            377.9508656368207653
    One-Electron Energy =               -1220.9195741230610111
    Two-Electron Energy =                 494.7499184132879009
    DFT Exchange-Correlation Energy =       0.0000000000000000
    Empirical Dispersion Energy =           0.0000000000000000
    PCM Polarization Energy =               0.0000000000000000
    EFP Energy =                            0.0000000000000000
    Total Energy =                       -348.2187900729524017
    Molecular point group: c1
  Basis Set: CC-PVTZ
  Basis Set:

  -Total Gradient:
     Atom            X                  Y                   Z
    ------   -----------------  -----------------  -----------------
       1        0.000001829980     0.000001416115    -0.000015676626
       2        0.000027831338    -0.000026318435    -0.000024027358
       3       -0.000722441642    -0.002384953269     0.001997261207
       4       -0.000039377378    -0.000004521810    -0.000012255275
       5        0.000434135941     0.002129111487    -0.001448009779
       6        0.000530531039     0.001575631345    -0.001346536126
       7       -0.000027109495    -0.000010362373    -0.000008739577
       8       -0.000231496477    -0.001290107045     0.000820497477
       9        0.000014135384    -0.000001196931    -0.000003023865
      10        0.000011657146     0.000001380955    -0.000005811726
      11        0.000027376067    -0.000001523151    -0.000006411428
      12       -0.000010715072    -0.000000000467     0.000013398071
      13       -0.000003228499     0.000005589593    -0.000000817811
      14       -0.000006973411    -0.000009671908     0.000011544367
      15       -0.000003662368     0.000010626767     0.000006406611
      16        0.000006169945     0.000011441564    -0.000012178597
      17       -0.000001025707    -0.000006676225     0.000002528244
      18       -0.000009054177    -0.000002043419    -0.000000450098
      19        0.000004170143    -0.000005539428    -0.000004918210
      20       -0.000015647377     0.000006031657     0.000008092227
      21        0.000001718773    -0.000009481299    -0.000000046532
      22        0.000011175847     0.000011166276     0.000029174805

  **** Optimization is complete! (in 9 steps) ****
    Final optimized geometry and variables:
    Molecular point group: c1

    Geometry (in Angstrom), charge = 0, multiplicity = 1:

    O           -1.322189094019     0.663821552181    -1.963027446502
    C           -1.700654723142     0.407513023351    -0.866132349098
    C           -1.214389590066    -0.824152930227    -0.130394653716
    C           -2.674137363043     1.304413226172    -0.137054100104
    C            0.014566396554    -0.493693025397     0.754449711701
    H           -0.947816237751    -1.551631457723    -0.884159018619
    H           -2.017738876090    -1.228876803088     0.472940547699
    C            1.312628016714    -1.075267147264     0.195514335787
    H            0.109866303410     0.580027177903     0.867115945220
    H           -0.144965989556    -0.887274623908     1.752565131621
    C            2.552343695068    -0.800192304893     1.047381918658
    H            1.470239484032    -0.693186260767    -0.809205988741
    H            1.189858394385    -2.149920973947     0.097768129052
    C            2.974965575347     0.665888645801     1.106309286675
    H            3.375606899828    -1.382465980956     0.645781486391
    H            2.385575749553    -1.169478890462     2.056142577487
    H            3.139249044605     1.063460148675     0.110316803456
    H            3.898605686241     0.776317732065     1.662646862798
    H            2.230033869334     1.285947393831     1.590615364455
    H           -3.633306041631     0.800662906117    -0.070212120844
    H           -2.795332763831     2.234105382114    -0.671487975440
    H           -2.341747483677     1.496890318614     0.876506968303

  Mulliken Charges: (a.u.)
   Center  Symbol    Alpha    Beta     Spin     Total
       1     O     4.17830  4.17830  0.00000 -0.35660
       2     C     2.85763  2.85763  0.00000  0.28475
       3     C     3.10779  3.10779  0.00000 -0.21557
       4     C     3.15560  3.15560  0.00000 -0.31119
       5     C     3.10360  3.10360  0.00000 -0.20720
       6     H     0.44034  0.44034  0.00000  0.11932
       7     H     0.43919  0.43919  0.00000  0.12162
       8     C     3.09306  3.09306  0.00000 -0.18612
       9     H     0.45075  0.45075  0.00000  0.09850
      10     H     0.44699  0.44699  0.00000  0.10602
      11     C     3.09255  3.09255  0.00000 -0.18510
      12     H     0.44388  0.44388  0.00000  0.11223
      13     H     0.44798  0.44798  0.00000  0.10403
      14     C     3.15208  3.15208  0.00000 -0.30416
      15     H     0.44721  0.44721  0.00000  0.10559
      16     H     0.45544  0.45544  0.00000  0.08912
      17     H     0.45131  0.45131  0.00000  0.09737
      18     H     0.44619  0.44619  0.00000  0.10761
      19     H     0.45595  0.45595  0.00000  0.08811
      20     H     0.44769  0.44769  0.00000  0.10463
      21     H     0.43615  0.43615  0.00000  0.12771
      22     H     0.45033  0.45033  0.00000  0.09934

   Total alpha = 32.00000, Total beta = 32.00000, Total charge =  0.00000

*** Psi4 exiting successfully. Buy a developer a beer!
