  ==> Input File <==

--------------------------------------------------------------------------
set {
	reference rhf
	basis 6-31G*
}

set_num_threads( 1 )
memory 2 gb

molecule MOL {
0 1

H	 2.591676	 2.013956	 0.335017
O	 3.341076	 1.666752	 -0.126416
C	 3.569581	 0.339145	 0.272707
C	 3.137577	 0.060135	 1.708065
H	 2.995050	 -0.275850	 -0.408005
H	 4.618268	 0.076168	 0.138992
C	 3.924183	 0.847395	 2.758941
H	 2.078469	 0.286575	 1.799617
H	 3.251329	 -1.006369	 1.895137
C	 3.504126	 0.505035	 4.191128
H	 3.786897	 1.911004	 2.585000
H	 4.988839	 0.645072	 2.640982
C	 4.319819	 1.202878	 5.285660
H	 2.449851	 0.742468	 4.321424
H	 3.591486	 -0.570549	 4.329652
C	 4.146051	 2.722846	 5.348746
H	 4.033258	 0.781044	 6.246782
H	 5.374459	 0.965484	 5.154453
C	 4.895472	 3.360385	 6.520645
H	 3.086181	 2.959963	 5.429752
H	 4.490111	 3.177643	 4.422957
C	 4.728917	 4.878324	 6.582180
H	 4.546300	 2.921312	 7.452730
H	 5.953251	 3.116410	 6.446719
H	 3.683559	 5.154006	 6.689179
H	 5.269698	 5.299980	 7.423843
H	 5.103350	 5.351201	 5.678548

	symmetry c1
}
set optking {
	frozen_dihedral = ("
		14 10 7 4,
		14 10 13 16,
		10 7 4 8,
		8 4 3 2,
		10 13 16 20,
		20 16 19 22
	")
}

ee = energy('scf')
oeprop('DIPOLE', 'QUADRUPOLE', 'MULLIKEN_CHARGES')
f=open( 'psi4out.xyz', 'w' )
f.write( "27  " )
f.write( str(ee) + "\n" )
f.write( MOL.save_string_xyz() )
f.close()
--------------------------------------------------------------------------

    Molecular point group: c1

    Geometry (in Angstrom), charge = 0, multiplicity = 1:

       Center              X                  Y                   Z               Mass
    ------------   -----------------  -----------------  -----------------  -----------------
           H         -1.347314376997     0.266048223516    -3.223924631045     1.007825032070
           O         -0.597914376997    -0.081155776484    -3.685357631045    15.994914619560
           C         -0.369409376997    -1.408762776484    -3.286234631045    12.000000000000
           C         -0.801413376997    -1.687772776484    -1.850876631045    12.000000000000
           H         -0.943940376997    -2.023757776484    -3.966946631045     1.007825032070
           H          0.679277623003    -1.671739776484    -3.419949631045     1.007825032070
           C         -0.014807376997    -0.900512776484    -0.800000631045    12.000000000000
           H         -1.860521376997    -1.461332776484    -1.759324631045     1.007825032070
           H         -0.687661376997    -2.754276776484    -1.663804631045     1.007825032070
           C         -0.434864376997    -1.242872776484     0.632186368955    12.000000000000
           H         -0.152093376997     0.163096223516    -0.973941631045     1.007825032070
           H          1.049848623003    -1.102835776484    -0.917959631045     1.007825032070
           C          0.380828623003    -0.545029776484     1.726718368955    12.000000000000
           H         -1.489139376997    -1.005439776484     0.762482368955     1.007825032070
           H         -0.347504376997    -2.318456776484     0.770710368955     1.007825032070
           C          0.207060623003     0.974938223516     1.789804368955    12.000000000000
           H          0.094267623003    -0.966863776484     2.687840368955     1.007825032070
           H          1.435468623003    -0.782423776484     1.595511368955     1.007825032070
           C          0.956481623003     1.612477223516     2.961703368955    12.000000000000
           H         -0.852809376997     1.212055223516     1.870810368955     1.007825032070
           H          0.551120623003     1.429735223516     0.864015368955     1.007825032070
           C          0.789926623003     3.130416223516     3.023238368955    12.000000000000
           H          0.607309623003     1.173404223516     3.893788368955     1.007825032070
           H          2.014260623003     1.368502223516     2.887777368955     1.007825032070
           H         -0.255431376997     3.406098223516     3.130237368955     1.007825032070
           H          1.330707623003     3.552072223516     3.864901368955     1.007825032070
           H          1.164359623003     3.603293223516     2.119606368955     1.007825032070

  Charge       = 0
  Multiplicity = 1
  Basis Set: 6-31G*
  Basis Set:

    Orbital Energies (a.u.)
    -----------------------

    Doubly Occupied:

       1A    -20.549914     2A    -11.266841     3A    -11.222831
       4A    -11.217793     5A    -11.216877     6A    -11.215093
       7A    -11.215004     8A    -11.213255     9A    -11.208361
      10A     -1.358277    11A     -1.094999    12A     -1.061879
      13A     -1.011906    14A     -0.947487    15A     -0.887068
      16A     -0.824603    17A     -0.803688    18A     -0.777978
      19A     -0.664265    20A     -0.655403    21A     -0.645560
      22A     -0.626681    23A     -0.607119    24A     -0.585366
      25A     -0.573464    26A     -0.562217    27A     -0.538810
      28A     -0.522760    29A     -0.512286    30A     -0.489116
      31A     -0.482771    32A     -0.478609    33A     -0.465832
      34A     -0.459412    35A     -0.449534    36A     -0.444425
      37A     -0.420978

  @DF-RHF Final Energy:  -388.27924272425935

   => Energetics <=

    Nuclear Repulsion Energy =            459.6840441904705585
    One-Electron Energy =               -1437.3696404206114039
    Two-Electron Energy =                 589.4063535058810430
    DFT Exchange-Correlation Energy =       0.0000000000000000
    Empirical Dispersion Energy =           0.0000000000000000
    PCM Polarization Energy =               0.0000000000000000
    EFP Energy =                            0.0000000000000000
    Total Energy =                       -388.2792427242598023

  Mulliken Charges: (a.u.)
   Center  Symbol    Alpha    Beta     Spin     Total
       1     H     0.28129  0.28129  0.00000  0.43741
       2     O     4.37387  4.37387  0.00000 -0.74774
       3     C     2.98227  2.98227  0.00000  0.03546
       4     C     3.18322  3.18322  0.00000 -0.36644
       5     H     0.42655  0.42655  0.00000  0.14690
       6     H     0.41972  0.41972  0.00000  0.16055
       7     C     3.15291  3.15291  0.00000 -0.30581
       8     H     0.42548  0.42548  0.00000  0.14903
       9     H     0.41854  0.41854  0.00000  0.16292
      10     C     3.15294  3.15294  0.00000 -0.30588
      11     H     0.41763  0.41763  0.00000  0.16473
      12     H     0.42138  0.42138  0.00000  0.15724
      13     C     3.15300  3.15300  0.00000 -0.30600
      14     H     0.42487  0.42487  0.00000  0.15027
      15     H     0.42235  0.42235  0.00000  0.15531
      16     C     3.15339  3.15339  0.00000 -0.30678
      17     H     0.42171  0.42171  0.00000  0.15659
      18     H     0.42326  0.42326  0.00000  0.15347
      19     C     3.15117  3.15117  0.00000 -0.30234
      20     H     0.42539  0.42539  0.00000  0.14922
      21     H     0.42084  0.42084  0.00000  0.15832
      22     C     3.23931  3.23931  0.00000 -0.47861
      23     H     0.42334  0.42334  0.00000  0.15331
      24     H     0.42273  0.42273  0.00000  0.15454
      25     H     0.42216  0.42216  0.00000  0.15567
      26     H     0.41933  0.41933  0.00000  0.16135
      27     H     0.42135  0.42135  0.00000  0.15729

   Total alpha = 37.00000, Total beta = 37.00000, Total charge = -0.00000
