  ==> Input File <==

--------------------------------------------------------------------------
set {
	reference rhf
	basis cc-pvtz
}

set_num_threads( 4 )
memory 2 gb

molecule MOL {
0 1

H	 -0.001000	 1.944000	 0.766000
O	 -0.000000	 1.854000	 -0.180000
C	 0.000000	 0.518000	 -0.536000
C	 -1.279000	 -0.150000	 -0.043000
C	 1.279000	 -0.150000	 -0.043000
H	 0.000000	 0.465000	 -1.615000
F	 -2.324000	 0.440000	 -0.583000
F	 -1.326000	 -1.428000	 -0.354000
F	 -1.389000	 -0.042000	 1.272000
F	 2.324000	 0.440000	 -0.583000
F	 1.326000	 -1.428000	 -0.354000
F	 1.389000	 -0.042000	 1.272000

	symmetry c1
}
ee = optimize('scf')
oeprop('DIPOLE', 'QUADRUPOLE', 'MULLIKEN_CHARGES')
f=open( 'psi4out.xyz', 'w' )
f.write( "12  " )
f.write( str(ee) + "\n" )
f.write( MOL.save_string_xyz() )
f.close()
--------------------------------------------------------------------------

    Molecular point group: c1
  Charge       = 0
  Multiplicity = 1
  Basis Set: CC-PVTZ
  Basis Set:
  @DF-RHF Final Energy:  -786.58898082409223
    Total Energy =                       -786.5889808240917773
    Molecular point group: c1
  Basis Set: CC-PVTZ
  Basis Set:
  Basis Set: CC-PVTZ
  Basis Set:
  @DF-RHF Final Energy:  -786.58945847177733
    Total Energy =                       -786.5894584717768794
  Basis Set: CC-PVTZ
  Basis Set:
  Basis Set: CC-PVTZ
  Basis Set:
  @DF-RHF Final Energy:  -786.58950185840195
    Total Energy =                       -786.5895018584019454
  Basis Set: CC-PVTZ
  Basis Set:
  Basis Set: CC-PVTZ
  Basis Set:
  @DF-RHF Final Energy:  -786.58951295013480
    Total Energy =                       -786.5895129501349174
  Basis Set: CC-PVTZ
  Basis Set:
  Basis Set: CC-PVTZ
  Basis Set:
  @DF-RHF Final Energy:  -786.58951645726324
    Total Energy =                       -786.5895164572625617
  Basis Set: CC-PVTZ
  Basis Set:
  Charge       = 0
  Multiplicity = 1
  Basis Set: CC-PVTZ
  Basis Set:

    Orbital Energies (a.u.)
    -----------------------

    Doubly Occupied:

       1A    -26.358448     2A    -26.358446     3A    -26.357258
       4A    -26.357254     5A    -26.353749     6A    -26.353748
       7A    -20.610000     8A    -11.519767     9A    -11.519757
      10A    -11.351634    11A     -1.771976    12A     -1.766484
      13A     -1.667730    14A     -1.663336    15A     -1.663042
      16A     -1.660973    17A     -1.439953    18A     -1.103126
      19A     -1.001908    20A     -0.945378    21A     -0.870841
      22A     -0.869071    23A     -0.859410    24A     -0.852223
      25A     -0.839896    26A     -0.822223    27A     -0.749701
      28A     -0.733966    29A     -0.731509    30A     -0.725480
      31A     -0.696272    32A     -0.691747    33A     -0.690246
      34A     -0.681641    35A     -0.677603    36A     -0.669301
      37A     -0.663404    38A     -0.657992    39A     -0.625465
      40A     -0.554079    41A     -0.510344

  @DF-RHF Final Energy:  -786.58951682666839

   => Energetics <=

    Nuclear Repulsion Energy =            670.8233714828370466
    One-Electron Energy =               -2428.8330064366373335
    Two-Electron Energy =                 971.4201181271319001
    DFT Exchange-Correlation Energy =       0.0000000000000000
    Empirical Dispersion Energy =           0.0000000000000000
    PCM Polarization Energy =               0.0000000000000000
    EFP Energy =                            0.0000000000000000
    Total Energy =                       -786.5895168266683868
    Molecular point group: c1
  Basis Set: CC-PVTZ
  Basis Set:

  -Total Gradient:
     Atom            X                  Y                   Z
    ------   -----------------  -----------------  -----------------
       1        0.000000230001     0.000002522047    -0.000000765206
       2       -0.000000431571    -0.000083510966    -0.000020231919
       3        0.000000434855     0.000074794553     0.000026815243
       4        0.000008055060     0.000016582774     0.000036183729
       5       -0.000008566648     0.000016639482     0.000036190996
       6        0.000000093398    -0.000004008147     0.000013406774
       7       -0.000061361621     0.000030393707    -0.000040929485
       8       -0.000016165384     0.000000241131     0.000034449749
       9        0.000031752615    -0.000042178654    -0.000039363106
      10        0.000061389684     0.000030288511    -0.000040924974
      11        0.000016117723     0.000000333921     0.000034252619
      12       -0.000031548121    -0.000042098361    -0.000039084423

  **** Optimization is complete! (in 6 steps) ****
    Final optimized geometry and variables:
    Molecular point group: c1

    Geometry (in Angstrom), charge = 0, multiplicity = 1:

    H           -0.000104919210     1.988528873439     0.748933261034
    O           -0.000098017009     1.879786444046    -0.188206055137
    C           -0.000014060917     0.545690802235    -0.532416406282
    C           -1.286000331576    -0.125170874593    -0.046657275092
    C            1.286016195069    -0.125031478862    -0.046583767050
    H            0.000020922425     0.481103129863    -1.610604257932
    F           -2.317766905673     0.468477518116    -0.594286299462
    F           -1.336453353809    -1.393906308297    -0.365213376231
    F           -1.414527509794    -0.024974276207     1.259028626171
    F            2.317749857183     0.468717360100    -0.594166429579
    F            1.336616619380    -1.393764946571    -0.365123045578
    F            1.414467131341    -0.024805994406     1.259107881912

  Mulliken Charges: (a.u.)
   Center  Symbol    Alpha    Beta     Spin     Total
       1     H     0.38122  0.38122  0.00000  0.23756
       2     O     4.18995  4.18995  0.00000 -0.37989
       3     C     3.00495  3.00495  0.00000 -0.00990
       4     C     2.68545  2.68545  0.00000  0.62910
       5     C     2.68545  2.68545  0.00000  0.62910
       6     H     0.42416  0.42416  0.00000  0.15168
       7     F     4.60197  4.60197  0.00000 -0.20395
       8     F     4.60234  4.60234  0.00000 -0.20468
       9     F     4.61010  4.61010  0.00000 -0.22021
      10     F     4.60197  4.60197  0.00000 -0.20395
      11     F     4.60234  4.60234  0.00000 -0.20467
      12     F     4.61010  4.61010  0.00000 -0.22021

   Total alpha = 41.00000, Total beta = 41.00000, Total charge = -0.00000
