                              Psi4 1.0.54 Driver

  ==> Input File <==

--------------------------------------------------------------------------
set {
	reference rhf
	basis cc-pvtz
}

set_num_threads( 4 )
memory 2 gb

molecule MOL {
0 1

O	 -2.374409	 1.338660	 -0.336961
C	 -2.104891	 0.204655	 -0.107126
C	 -0.881910	 -0.448129	 -0.720509
C	 -2.949910	 -0.638219	 0.818225
C	 0.191886	 -0.713514	 0.342212
H	 -0.491295	 0.227675	 -1.470722
H	 -1.156122	 -1.377672	 -1.207975
C	 1.444567	 -1.357981	 -0.247669
H	 0.437680	 0.227032	 0.818853
H	 -0.211305	 -1.361315	 1.116866
C	 2.527413	 -1.698800	 0.777609
H	 1.862075	 -0.698659	 -1.004610
H	 1.157799	 -2.270193	 -0.763652
C	 3.170245	 -0.489178	 1.451745
H	 3.302159	 -2.271198	 0.277173
H	 2.109263	 -2.355449	 1.536093
H	 3.591818	 0.187913	 0.715937
H	 3.972236	 -0.799628	 2.111443
H	 2.458972	 0.070875	 2.046481
H	 -3.440322	 -1.417144	 0.243099
H	 -3.694377	 -0.025850	 1.303346
H	 -2.331085	 -1.129829	 1.560495

	symmetry c1
}
set optking {
	frozen_dihedral = ("
		6 3 2 1
	")
}

ee,wfn = optimize('scf', return_wfn=True)
oeprop( wfn, 'DIPOLE', 'QUADRUPOLE', 'MULLIKEN_CHARGES')
f=open( 'psi4out.xyz', 'w' )
f.write( "22  " )
f.write( str(ee) + "\n" )
f.write( MOL.save_string_xyz() )
f.close()
--------------------------------------------------------------------------

    Molecular point group: c1
  Charge       = 0
  Multiplicity = 1
  Basis Set: CC-PVTZ
  Basis Set:
  @DF-RHF Final Energy:  -348.22235335877104
    Total Energy =                       -348.2223533587706470
    Molecular point group: c1
  Basis Set: CC-PVTZ
  Basis Set:
  Basis Set: CC-PVTZ
  Basis Set:
  @DF-RHF Final Energy:  -348.22053430764845
    Total Energy =                       -348.2205343076487907
  Basis Set: CC-PVTZ
  Basis Set:
  Basis Set: CC-PVTZ
  Basis Set:
  @DF-RHF Final Energy:  -348.22266168528353
    Total Energy =                       -348.2226616852836401
  Basis Set: CC-PVTZ
  Basis Set:
  Basis Set: CC-PVTZ
  Basis Set:
  @DF-RHF Final Energy:  -348.22284998251598
    Total Energy =                       -348.2228499825159815
  Basis Set: CC-PVTZ
  Basis Set:
  @DF-RHF Final Energy:  -348.22285883854005
    Total Energy =                       -348.2228588385398780
  @DF-RHF Final Energy:  -348.22292108697610
    Total Energy =                       -348.2229210869753047
  @DF-RHF Final Energy:  -348.22292965970809
    Total Energy =                       -348.2229296597085408
  @DF-RHF Final Energy:  -348.22293618326728
    Total Energy =                       -348.2229361832676773
  @DF-RHF Final Energy:  -348.22294184493830
    Total Energy =                       -348.2229418449374521
  @DF-RHF Final Energy:  -348.22294699768395
    Total Energy =                       -348.2229469976843461
  @DF-RHF Final Energy:  -348.22295915067144
    Total Energy =                       -348.2229591506711586
  Basis Set: CC-PVTZ
  Basis Set:
  @DF-RHF Final Energy:  -348.22296903804420
    Total Energy =                       -348.2229690380443685
  Basis Set: CC-PVTZ
  Basis Set:
  Basis Set: CC-PVTZ
  Basis Set:
  @DF-RHF Final Energy:  -348.22294018031045
    Total Energy =                       -348.2229401803107294
  Basis Set: CC-PVTZ
  Basis Set:
  Basis Set: CC-PVTZ
  Basis Set:
  @DF-RHF Final Energy:  -348.22298025696239
    Total Energy =                       -348.2229802569619892
  Basis Set: CC-PVTZ
  Basis Set:
  Charge       = 0
  Multiplicity = 1
  Basis Set: CC-PVTZ
  Basis Set:

    Orbital Energies (a.u.)
    -----------------------

    Doubly Occupied:

       1A    -20.537368     2A    -11.319012     3A    -11.229977
       4A    -11.227836     5A    -11.225957     6A    -11.222152
       7A    -11.220621     8A    -11.211483     9A     -1.396822
      10A     -1.099336    11A     -1.046623    12A     -0.998347
      13A     -0.940525    14A     -0.861796    15A     -0.789089
      16A     -0.734244    17A     -0.664485    18A     -0.646515
      19A     -0.632334    20A     -0.620092    21A     -0.601660
      22A     -0.586415    23A     -0.561187    24A     -0.539307
      25A     -0.534756    26A     -0.526585    27A     -0.495965
      28A     -0.494113    29A     -0.473145    30A     -0.468045
      31A     -0.464774    32A     -0.398800

  @DF-RHF Final Energy:  -348.22298099436688

   => Energetics <=

    Nuclear Repulsion Energy =            373.4146900315958533
    One-Electron Energy =               -1211.7366045909752756
    Two-Electron Energy =                 490.0989335650125440
    DFT Exchange-Correlation Energy =       0.0000000000000000
    Empirical Dispersion Energy =           0.0000000000000000
    PCM Polarization Energy =               0.0000000000000000
    EFP Energy =                            0.0000000000000000
    Total Energy =                       -348.2229809943668215
    Molecular point group: c1
  Basis Set: CC-PVTZ
  Basis Set:

  -Total Gradient:
     Atom            X                  Y                   Z
    ------   -----------------  -----------------  -----------------
       1       -0.000134997368    -0.000048020772    -0.000190688136
       2        0.000165149923     0.000078836773     0.000311504041
       3       -0.000153023309    -0.000152440749    -0.000257010356
       4       -0.000016552023     0.000039513540    -0.000026847663
       5       -0.000040099600    -0.000015086794    -0.000017596295
       6        0.000144720435     0.000109009905     0.000138772239
       7       -0.000005089907    -0.000013226608     0.000004369501
       8        0.000027196140     0.000029559597    -0.000010848674
       9       -0.000033805664    -0.000012027008    -0.000020113357
      10       -0.000004373331    -0.000019910373     0.000035162299
      11       -0.000026689616     0.000001093806     0.000019054564
      12        0.000009437112     0.000019283777    -0.000004590753
      13        0.000016148764    -0.000003059415    -0.000009422997
      14        0.000019362743    -0.000005018659    -0.000007136407
      15        0.000004570125    -0.000017768336    -0.000003994435
      16       -0.000013063425     0.000003531325     0.000014084147
      17        0.000001847586     0.000016118826    -0.000009145950
      18        0.000010287006    -0.000005116352    -0.000005788823
      19        0.000012697583    -0.000009591421     0.000010982032
      20        0.000024471046     0.000055207672     0.000032979852
      21       -0.000005128902    -0.000030058556     0.000007138004
      22       -0.000003065317    -0.000020830178    -0.000010862834

  **** Optimization is complete! (in 15 steps) ****
    Final optimized geometry and variables:
    Molecular point group: c1

    Geometry (in Angstrom), charge = 0, multiplicity = 1:

    O           -2.263867309188     1.799497587669    -0.656729467174
    C           -1.995210005649     0.676966569482    -0.374532566303
    C           -0.765713032013    -0.002128125647    -0.944377309255
    C           -2.867753113117    -0.121354935267     0.568231001952
    C            0.316738751721    -0.275209958504     0.106790338864
    H           -0.375066469178     0.645930173550    -1.717162479142
    H           -1.064566999286    -0.938475079233    -1.407308419390
    C            1.582248426739    -0.863476627376    -0.514856819794
    H            0.548630520471     0.652899403004     0.617517233508
    H           -0.059700609269    -0.961501065180     0.859297269978
    C            2.674608341888    -1.231916940761     0.490367738530
    H            1.984068233837    -0.160500633056    -1.239977974685
    H            1.311785203321    -1.755159752252    -1.073754960691
    C            3.296794919153    -0.044032128476     1.220277907690
    H            3.458426130905    -1.764352870423    -0.039092719286
    H            2.272002140121    -1.932395900837     1.217406846082
    H            3.700525708692     0.677000397296     0.516937006943
    H            4.108464830198    -0.370085870335     1.860244294803
    H            2.577899594321     0.471451679870     1.845640439649
    H           -3.130724748063    -1.076689614611     0.128540789412
    H           -3.762027432161     0.438397362812     0.794797365486
    H           -2.332207052690    -0.325431046895     1.488306304652

  Mulliken Charges: (a.u.)
   Center  Symbol    Alpha    Beta     Spin     Total
       1     O     4.17323  4.17323  0.00000 -0.34647
       2     C     2.85860  2.85860  0.00000  0.28280
       3     C     3.09349  3.09349  0.00000 -0.18698
       4     C     3.16075  3.16075  0.00000 -0.32150
       5     C     3.11155  3.11155  0.00000 -0.22310
       6     H     0.43879  0.43879  0.00000  0.12241
       7     H     0.44792  0.44792  0.00000  0.10416
       8     C     3.09586  3.09586  0.00000 -0.19172
       9     H     0.44206  0.44206  0.00000  0.11587
      10     H     0.45086  0.45086  0.00000  0.09829
      11     C     3.09059  3.09059  0.00000 -0.18117
      12     H     0.44931  0.44931  0.00000  0.10137
      13     H     0.44855  0.44855  0.00000  0.10291
      14     C     3.15175  3.15175  0.00000 -0.30350
      15     H     0.44717  0.44717  0.00000  0.10566
      16     H     0.45466  0.45466  0.00000  0.09068
      17     H     0.45334  0.45334  0.00000  0.09332
      18     H     0.44577  0.44577  0.00000  0.10846
      19     H     0.45360  0.45360  0.00000  0.09281
      20     H     0.44999  0.44999  0.00000  0.10002
      21     H     0.43343  0.43343  0.00000  0.13314
      22     H     0.44873  0.44873  0.00000  0.10254

   Total alpha = 32.00000, Total beta = 32.00000, Total charge = -0.00000

*** Psi4 exiting successfully. Buy a developer a beer!
