                              Psi4 1.0.54 Driver

  ==> Input File <==

--------------------------------------------------------------------------
set {
	reference rhf
	basis cc-pvtz
}

set_num_threads( 4 )
memory 2 gb

molecule MOL {
0 1

O	 -2.071633	 -1.227563	 -0.223463
C	 -1.652164	 -0.152425	 0.058082
C	 -0.327811	 0.006324	 0.778296
C	 -2.402515	 1.108629	 -0.298924
C	 0.819368	 -0.605691	 -0.034626
H	 -0.126079	 1.055590	 0.966630
H	 -0.409985	 -0.501427	 1.730805
C	 2.169212	 -0.482144	 0.666006
H	 0.877050	 -0.125912	 -1.008371
H	 0.596398	 -1.651374	 -0.216828
C	 3.311203	 -1.100637	 -0.133047
H	 2.384439	 0.566585	 0.851397
H	 2.110025	 -0.959000	 1.639990
H	 3.418233	 -0.620353	 -1.099953
H	 3.139117	 -2.157310	 -0.306819
H	 4.254164	 -1.000745	 0.391593
H	 -3.240910	 0.874416	 -0.936711
H	 -1.747554	 1.818823	 -0.790984
H	 -2.760419	 1.579708	 0.610998

	symmetry c1
}
set optking {
	frozen_dihedral = ("
		5 3 2 4
	")
}

ee,wfn = optimize('scf', return_wfn=True)
oeprop( wfn, 'DIPOLE', 'QUADRUPOLE', 'MULLIKEN_CHARGES')
f=open( 'psi4out.xyz', 'w' )
f.write( "19  " )
f.write( str(ee) + "\n" )
f.write( MOL.save_string_xyz() )
f.close()
--------------------------------------------------------------------------

    Molecular point group: c1
  Charge       = 0
  Multiplicity = 1
  Basis Set: CC-PVTZ
  Basis Set:
  @DF-RHF Final Energy:  -309.17700864576682
    Total Energy =                       -309.1770086457667617
    Molecular point group: c1
  Basis Set: CC-PVTZ
  Basis Set:
  Basis Set: CC-PVTZ
  Basis Set:
  @DF-RHF Final Energy:  -309.17587889743027
    Total Energy =                       -309.1758788974302661
  Basis Set: CC-PVTZ
  Basis Set:
  Basis Set: CC-PVTZ
  Basis Set:
  @DF-RHF Final Energy:  -309.17712901598230
    Total Energy =                       -309.1771290159825298
  Basis Set: CC-PVTZ
  Basis Set:
  Basis Set: CC-PVTZ
  Basis Set:
  @DF-RHF Final Energy:  -309.17719715633058
    Total Energy =                       -309.1771971563305783
  Basis Set: CC-PVTZ
  Basis Set:
  Basis Set: CC-PVTZ
  Basis Set:
  @DF-RHF Final Energy:  -309.17723531669327
    Total Energy =                       -309.1772353166931566
  Basis Set: CC-PVTZ
  Basis Set:
  Basis Set: CC-PVTZ
  Basis Set:
  @DF-RHF Final Energy:  -309.17724549684732
    Total Energy =                       -309.1772454968473767
  Basis Set: CC-PVTZ
  Basis Set:
  Basis Set: CC-PVTZ
  Basis Set:
  @DF-RHF Final Energy:  -309.17724729501629
    Total Energy =                       -309.1772472950161159
  Basis Set: CC-PVTZ
  Basis Set:
  Charge       = 0
  Multiplicity = 1
  Basis Set: CC-PVTZ
  Basis Set:

    Orbital Energies (a.u.)
    -----------------------

    Doubly Occupied:

       1A    -20.537075     2A    -11.320305     3A    -11.228465
       4A    -11.227633     5A    -11.223491     6A    -11.220478
       7A    -11.210910     8A     -1.397771     9A     -1.089696
      10A     -1.030068    11A     -0.985414    12A     -0.888557
      13A     -0.804560    14A     -0.733780    15A     -0.663168
      16A     -0.648542    17A     -0.624798    18A     -0.613809
      19A     -0.583277    20A     -0.573900    21A     -0.553956
      22A     -0.536043    23A     -0.516181    24A     -0.495429
      25A     -0.479248    26A     -0.474938    27A     -0.468888
      28A     -0.399692

  @DF-RHF Final Energy:  -309.17724761656473

   => Energetics <=

    Nuclear Repulsion Energy =            301.5677716115108069
    One-Electron Energy =               -1016.4298926995895727
    Two-Electron Energy =                 405.6848734715143792
    DFT Exchange-Correlation Energy =       0.0000000000000000
    Empirical Dispersion Energy =           0.0000000000000000
    PCM Polarization Energy =               0.0000000000000000
    EFP Energy =                            0.0000000000000000
    Total Energy =                       -309.1772476165643866
    Molecular point group: c1
  Basis Set: CC-PVTZ
  Basis Set:

  -Total Gradient:
     Atom            X                  Y                   Z
    ------   -----------------  -----------------  -----------------
       1        0.000028656458     0.000072768650     0.000006047876
       2       -0.000154984895    -0.000019232549     0.000168241295
       3        0.000075237149    -0.000214176570    -0.000018837854
       4        0.000122252974    -0.000058313038    -0.000149241301
       5       -0.000003913883     0.000196943935    -0.000089316149
       6        0.000013442969     0.000002788488     0.000010685357
       7       -0.000036334581    -0.000019784799     0.000045536622
       8        0.000013456554     0.000010371507     0.000013107710
       9       -0.000017181129     0.000005790431    -0.000077932594
      10       -0.000028307885    -0.000032674095     0.000024465516
      11       -0.000035239245     0.000005482343     0.000016213516
      12        0.000018848301     0.000040615574     0.000017456216
      13        0.000030142194    -0.000028533930     0.000041565886
      14       -0.000005123364     0.000022201794    -0.000028100648
      15       -0.000007274801    -0.000042489923    -0.000008907478
      16        0.000018380871     0.000009818636     0.000025628129
      17       -0.000083487648    -0.000025429932    -0.000027763781
      18        0.000056625873     0.000044154246    -0.000049927626
      19       -0.000005195919     0.000029699232     0.000081079309

  **** Optimization is complete! (in 8 steps) ****
    Final optimized geometry and variables:
    Molecular point group: c1

    Geometry (in Angstrom), charge = 0, multiplicity = 1:

    O           -2.062538791401    -0.875725043931    -0.324059472765
    C           -1.640938296755     0.201814274917    -0.055756263808
    C           -0.308677449904     0.362509311484     0.655905523428
    C           -2.397155595504     1.459025614348    -0.407440691556
    C            0.844267393631    -0.240732492691    -0.149447619302
    H           -0.114713860609     1.408338985989     0.865569431359
    H           -0.395179345660    -0.150372553386     1.608480075041
    C            2.184732361190    -0.141111150495     0.572278547408
    H            0.915297487543     0.262597967963    -1.110802523924
    H            0.613774884958    -1.277887318038    -0.360358770870
    C            3.335443430982    -0.738579812284    -0.230311143688
    H            2.401821302887     0.900678660146     0.792784291248
    H            2.112642747911    -0.647379262933     1.530889918149
    H            3.455502459549    -0.229662496522    -1.180929133395
    H            3.162357120252    -1.788922689773    -0.438312170554
    H            4.272200765680    -0.657384583326     0.308730090755
    H           -3.314896743382     1.212729676041    -0.919133035744
    H           -1.781925697646     2.094881410779    -1.036000751959
    H           -2.616966736562     2.019791985133     0.495293579733

  Mulliken Charges: (a.u.)
   Center  Symbol    Alpha    Beta     Spin     Total
       1     O     4.17667  4.17667  0.00000 -0.35333
       2     C     2.85832  2.85832  0.00000  0.28335
       3     C     3.10235  3.10235  0.00000 -0.20469
       4     C     3.15338  3.15338  0.00000 -0.30676
       5     C     3.09094  3.09094  0.00000 -0.18188
       6     H     0.44821  0.44821  0.00000  0.10359
       7     H     0.44215  0.44215  0.00000  0.11570
       8     C     3.08558  3.08558  0.00000 -0.17116
       9     H     0.45444  0.45444  0.00000  0.09112
      10     H     0.43890  0.43890  0.00000  0.12220
      11     C     3.14943  3.14943  0.00000 -0.29886
      12     H     0.45495  0.45495  0.00000  0.09010
      13     H     0.45288  0.45288  0.00000  0.09424
      14     H     0.45506  0.45506  0.00000  0.08987
      15     H     0.45274  0.45274  0.00000  0.09451
      16     H     0.44800  0.44800  0.00000  0.10400
      17     H     0.43641  0.43641  0.00000  0.12717
      18     H     0.45056  0.45056  0.00000  0.09888
      19     H     0.44903  0.44903  0.00000  0.10195

   Total alpha = 28.00000, Total beta = 28.00000, Total charge =  0.00000

*** Psi4 exiting successfully. Buy a developer a beer!
