  ==> Input File <==

--------------------------------------------------------------------------
set {
	reference rhf
	basis cc-pvtz
}

set_num_threads( 4 )
memory 2 gb

molecule MOL {
0 1

O	 -1.278239	 1.034789	 -0.784693
C	 -1.204115	 0.062668	 -0.112312
C	 -2.386398	 -0.667698	 0.460323
O	 -0.068058	 -0.518372	 0.226882
H	 -2.382952	 -1.693172	 0.114333
H	 -3.296656	 -0.175702	 0.158400
H	 -2.312537	 -0.685191	 1.540100
C	 1.169086	 0.037484	 -0.230612
C	 1.753518	 0.795806	 0.944335
C	 0.921870	 0.918308	 -1.442074
H	 1.818620	 -0.779989	 -0.504348
H	 1.909087	 0.134644	 1.787195
H	 2.707258	 1.229478	 0.668618
H	 1.090340	 1.594672	 1.254084
H	 1.855958	 1.349771	 -1.782397
H	 0.499352	 0.343973	 -2.254643
H	 0.243480	 1.726190	 -1.192280

	symmetry c1
}
set optking {
	frozen_dihedral = ("
		11 8 4 2
	")
}

ee = optimize('scf')
oeprop('DIPOLE', 'QUADRUPOLE', 'MULLIKEN_CHARGES')
f=open( 'psi4out.xyz', 'w' )
f.write( "17  " )
f.write( str(ee) + "\n" )
f.write( MOL.save_string_xyz() )
f.close()
--------------------------------------------------------------------------

    Molecular point group: c1
  Charge       = 0
  Multiplicity = 1
  Basis Set: CC-PVTZ
  Basis Set:
  @DF-RHF Final Energy:  -345.00200081674126
    Total Energy =                       -345.0020008167415426
    Molecular point group: c1
  Basis Set: CC-PVTZ
  Basis Set:
  Basis Set: CC-PVTZ
  Basis Set:
  @DF-RHF Final Energy:  -345.02573016943313
    Total Energy =                       -345.0257301694335865
  Basis Set: CC-PVTZ
  Basis Set:
  Basis Set: CC-PVTZ
  Basis Set:
  @DF-RHF Final Energy:  -345.03122548378184
    Total Energy =                       -345.0312254837816681
  Basis Set: CC-PVTZ
  Basis Set:
  Basis Set: CC-PVTZ
  Basis Set:
  @DF-RHF Final Energy:  -345.02947757463664
    Total Energy =                       -345.0294775746365303
  Basis Set: CC-PVTZ
  Basis Set:
  @DF-RHF Final Energy:  -345.03321257364848
    Total Energy =                       -345.0332125736489388
  @DF-RHF Final Energy:  -345.03345990536803
    Total Energy =                       -345.0334599053682609
  @DF-RHF Final Energy:  -345.03349008125781
    Total Energy =                       -345.0334900812575256
  @DF-RHF Final Energy:  -345.03349719631694
    Total Energy =                       -345.0334971963167163
  @DF-RHF Final Energy:  -345.03349936258627
    Total Energy =                       -345.0334993625865536
  @DF-RHF Final Energy:  -345.03350038565821
    Total Energy =                       -345.0335003856582716
  @DF-RHF Final Energy:  -345.03349479258878
    Total Energy =                       -345.0334947925881579
  @DF-RHF Final Energy:  -345.03350091817310
    Total Energy =                       -345.0335009181735586
  @DF-RHF Final Energy:  -345.03336396381286
    Total Energy =                       -345.0333639638130308
  @DF-RHF Final Energy:  -345.03099186804491
    Total Energy =                       -345.0309918680448504
  @DF-RHF Final Energy:  -345.03084619008712
    Total Energy =                       -345.0308461900870043
  @DF-RHF Final Energy:  -345.03305591806861
    Total Energy =                       -345.0330559180686123
  @DF-RHF Final Energy:  -345.02741281414740
    Total Energy =                       -345.0274128141472829
  @DF-RHF Final Energy:  -345.03336012712759
    Total Energy =                       -345.0333601271276507
  Basis Set: CC-PVTZ
  Basis Set:
  @DF-RHF Final Energy:  -345.03349431029034
    Total Energy =                       -345.0334943102906777
  Basis Set: CC-PVTZ
  Basis Set:
  Basis Set: CC-PVTZ
  Basis Set:
  @DF-RHF Final Energy:  -345.03349962317520
    Total Energy =                       -345.0334996231753166
  Basis Set: CC-PVTZ
  Basis Set:
  Basis Set: CC-PVTZ
  Basis Set:
  @DF-RHF Final Energy:  -345.03350174184510
    Total Energy =                       -345.0335017418448160
  Basis Set: CC-PVTZ
  Basis Set:
  Charge       = 0
  Multiplicity = 1
  Basis Set: CC-PVTZ
  Basis Set:

    Orbital Energies (a.u.)
    -----------------------

    Doubly Occupied:

       1A    -20.587686     2A    -20.527806     3A    -11.366467
       4A    -11.294494     5A    -11.228003     6A    -11.217118
       7A    -11.211313     8A     -1.462103     9A     -1.363095
      10A     -1.079385    11A     -1.002884    12A     -0.947104
      13A     -0.868108    14A     -0.735938    15A     -0.693075
      16A     -0.675087    17A     -0.661389    18A     -0.618065
      19A     -0.583990    20A     -0.580365    21A     -0.567989
      22A     -0.550873    23A     -0.531231    24A     -0.518411
      25A     -0.506615    26A     -0.481880    27A     -0.444403
      28A     -0.430862

  @DF-RHF Final Energy:  -345.03350187091047

   => Energetics <=

    Nuclear Repulsion Energy =            325.3443007935457558
    One-Electron Energy =               -1115.2841316631174777
    Two-Electron Energy =                 444.9063289986611380
    DFT Exchange-Correlation Energy =       0.0000000000000000
    Empirical Dispersion Energy =           0.0000000000000000
    PCM Polarization Energy =               0.0000000000000000
    EFP Energy =                            0.0000000000000000
    Total Energy =                       -345.0335018709106407
    Molecular point group: c1
  Basis Set: CC-PVTZ
  Basis Set:

  -Total Gradient:
     Atom            X                  Y                   Z
    ------   -----------------  -----------------  -----------------
       1       -0.000036921673    -0.000033785327    -0.000014408774
       2       -0.000308529410    -0.002655036822    -0.003711440619
       3        0.000001960020    -0.000009510920    -0.000034248710
       4        0.000222790014     0.004184045426     0.005112577668
       5        0.000004966457    -0.000001420070     0.000006121076
       6       -0.000001918474    -0.000001285357     0.000004878443
       7       -0.000000946540     0.000005402596     0.000001876669
       8        0.001827283843    -0.001539990871     0.003009794297
       9       -0.000035206457    -0.000016921179     0.000010664743
      10       -0.000008592992    -0.000038756399     0.000041295042
      11       -0.001686161845     0.000084774709    -0.004410257642
      12       -0.000007568169     0.000001758815     0.000003802864
      13        0.000007668923    -0.000003092143     0.000008817688
      14        0.000014662428     0.000012296669    -0.000013734367
      15        0.000005556306     0.000005489001    -0.000008328282
      16        0.000001346449    -0.000000870778    -0.000006590943
      17       -0.000000388880     0.000006902652    -0.000000819153

  **** Optimization is complete! (in 22 steps) ****
    Final optimized geometry and variables:
    Molecular point group: c1

    Geometry (in Angstrom), charge = 0, multiplicity = 1:

    O           -1.326151867613     0.875776887752    -0.435172489611
    C           -1.124138281236    -0.170132344630     0.080221978616
    C           -2.211853231494    -1.100734598789     0.545415157238
    O            0.064633133246    -0.674129512311     0.348672725163
    H           -2.149831457582    -2.031121116511    -0.004883129395
    H           -3.173627836228    -0.640762593491     0.386188082069
    H           -2.074272253103    -1.330151103390     1.593798236927
    C            1.326314613634    -0.171447709270    -0.123827411575
    C            1.998139189047     0.576077811411     1.011271187780
    C            1.285014136004     0.626862204396    -1.419534075926
    H            1.864014466589    -1.082754176411    -0.347007120054
    H            2.046973490463    -0.041042266192     1.899110561968
    H            3.007022786671     0.854205662574     0.730021023176
    H            1.448010049199     1.479295099885     1.246730441348
    H            2.306296698618     0.716039892611    -1.774076245345
    H            0.712545237608     0.113142449721    -2.180480004779
    H            0.871020957195     1.613050763642    -1.290433964533

  Mulliken Charges: (a.u.)
   Center  Symbol    Alpha    Beta     Spin     Total
       1     O     4.19899  4.19899  0.00000 -0.39798
       2     C     2.80468  2.80468  0.00000  0.39064
       3     C     3.13775  3.13775  0.00000 -0.27551
       4     O     4.16417  4.16417  0.00000 -0.32834
       5     H     0.44763  0.44763  0.00000  0.10473
       6     H     0.43926  0.43926  0.00000  0.12147
       7     H     0.44532  0.44532  0.00000  0.10935
       8     C     2.93779  2.93779  0.00000  0.12442
       9     C     3.14681  3.14681  0.00000 -0.29362
      10     C     3.15739  3.15739  0.00000 -0.31478
      11     H     0.44242  0.44242  0.00000  0.11516
      12     H     0.44631  0.44631  0.00000  0.10738
      13     H     0.45204  0.45204  0.00000  0.09591
      14     H     0.44721  0.44721  0.00000  0.10558
      15     H     0.45111  0.45111  0.00000  0.09778
      16     H     0.44552  0.44552  0.00000  0.10896
      17     H     0.43558  0.43558  0.00000  0.12883

   Total alpha = 28.00000, Total beta = 28.00000, Total charge =  0.00000
