  ==> Input File <==

--------------------------------------------------------------------------
set {
	reference rhf
	basis 6-31G*
}

set_num_threads( 4 )
memory 2 gb

molecule MOL {
0 1

H	 -3.261111	 -0.295142	 1.469456
C	 -3.306842	 -0.277400	 0.373456
C	 -2.660244	 0.921717	 -0.272021
O	 -3.838538	 -1.161155	 -0.216482
C	 -2.886560	 0.966836	 -1.789585
H	 -3.034994	 1.815275	 0.213597
H	 -1.591626	 0.855718	 -0.071135
C	 -4.348101	 1.197240	 -2.182154
H	 -2.272023	 1.759708	 -2.205499
H	 -2.528155	 0.040538	 -2.235986
C	 -4.556930	 1.251360	 -3.696841
H	 -4.694684	 2.126296	 -1.734290
H	 -4.971525	 0.410117	 -1.762252
C	 -6.017057	 1.497936	 -4.085658
H	 -3.924309	 2.031965	 -4.111786
H	 -4.220182	 0.315501	 -4.140859
C	 -6.289266	 1.478118	 -5.594161
H	 -6.342945	 2.452236	 -3.674803
H	 -6.635908	 0.737817	 -3.613475
C	 -5.629185	 2.616299	 -6.374198
H	 -7.364164	 1.527667	 -5.749364
H	 -5.967658	 0.523594	 -6.005710
H	 -5.920235	 3.583880	 -5.973767
H	 -4.546414	 2.556888	 -6.341777
H	 -5.924827	 2.589280	 -7.418641

	symmetry c1
}
set optking {
	frozen_dihedral = ("
		6 3 2 4
	")
}

ee = optimize('scf')
oeprop('DIPOLE', 'QUADRUPOLE', 'MULLIKEN_CHARGES')
f=open( 'psi4out.xyz', 'w' )
f.write( "25  " )
f.write( str(ee) + "\n" )
f.write( MOL.save_string_xyz() )
f.close()
--------------------------------------------------------------------------

    Molecular point group: c1
  Charge       = 0
  Multiplicity = 1
  Basis Set: 6-31G*
  Basis Set:
  @DF-RHF Final Energy:  -387.12230543731698
    Total Energy =                       -387.1223054373170953
    Molecular point group: c1
  Basis Set: 6-31G*
  Basis Set:
  Basis Set: 6-31G*
  Basis Set:
  @DF-RHF Final Energy:  -387.12302025220515
    Total Energy =                       -387.1230202522051513
  Basis Set: 6-31G*
  Basis Set:
  Basis Set: 6-31G*
  Basis Set:
  @DF-RHF Final Energy:  -387.12112586356704
    Total Energy =                       -387.1211258635672721
  Basis Set: 6-31G*
  Basis Set:
  Basis Set: 6-31G*
  Basis Set:
  @DF-RHF Final Energy:  -387.12333290708222
    Total Energy =                       -387.1233329070821583
  Basis Set: 6-31G*
  Basis Set:
  Basis Set: 6-31G*
  Basis Set:
  @DF-RHF Final Energy:  -387.12335780383637
    Total Energy =                       -387.1233578038363703
  Basis Set: 6-31G*
  Basis Set:
  Basis Set: 6-31G*
  Basis Set:
  @DF-RHF Final Energy:  -387.12337305895130
    Total Energy =                       -387.1233730589510742
  Basis Set: 6-31G*
  Basis Set:
  Basis Set: 6-31G*
  Basis Set:
  @DF-RHF Final Energy:  -387.12337523780604
    Total Energy =                       -387.1233752378063855
  Basis Set: 6-31G*
  Basis Set:
  Charge       = 0
  Multiplicity = 1
  Basis Set: 6-31G*
  Basis Set:

    Orbital Energies (a.u.)
    -----------------------

    Doubly Occupied:

       1A    -20.564586     2A    -11.329279     3A    -11.237676
       4A    -11.221926     5A    -11.212988     6A    -11.212746
       7A    -11.211381     8A    -11.210768     9A    -11.206562
      10A     -1.404813    11A     -1.094907    12A     -1.063705
      13A     -1.009523    14A     -0.941426    15A     -0.875932
      16A     -0.816007    17A     -0.776246    18A     -0.764051
      19A     -0.687136    20A     -0.647287    21A     -0.628768
      22A     -0.622801    23A     -0.605479    24A     -0.588724
      25A     -0.561947    26A     -0.546093    27A     -0.533166
      28A     -0.517457    29A     -0.501314    30A     -0.497005
      31A     -0.479879    32A     -0.471981    33A     -0.457814
      34A     -0.452411    35A     -0.435918    36A     -0.411336

  @DF-RHF Final Energy:  -387.12337527218511

   => Energetics <=

    Nuclear Repulsion Energy =            443.6915131540942525
    One-Electron Energy =               -1404.0276929601902793
    Two-Electron Energy =                 573.2128045339112532
    DFT Exchange-Correlation Energy =       0.0000000000000000
    Empirical Dispersion Energy =           0.0000000000000000
    PCM Polarization Energy =               0.0000000000000000
    EFP Energy =                            0.0000000000000000
    Total Energy =                       -387.1233752721847168
    Molecular point group: c1
  Basis Set: 6-31G*
  Basis Set:

  -Total Gradient:
     Atom            X                  Y                   Z
    ------   -----------------  -----------------  -----------------
       1       -0.000013741181    -0.000003618445     0.000004296540
       2        0.000123567753    -0.000056879226    -0.000052243034
       3        0.000020387001     0.000008195145     0.000036356769
       4       -0.000086762099     0.000048704404     0.000012556852
       5       -0.000023356874     0.000011785226     0.000027886519
       6       -0.000064893086     0.000000923871    -0.000058203238
       7        0.000023508244     0.000020065338    -0.000002390139
       8       -0.000017808809    -0.000029683840     0.000040422204
       9        0.000014627086     0.000002882635     0.000014943818
      10       -0.000008729047    -0.000014206623    -0.000000819107
      11        0.000013185273    -0.000014196555    -0.000000640242
      12       -0.000000119156     0.000018622635     0.000009984057
      13        0.000028156264     0.000018185180    -0.000024508801
      14       -0.000004730466     0.000000983318    -0.000001619260
      15       -0.000001738670    -0.000002785761    -0.000017386486
      16        0.000004068664    -0.000011886267    -0.000002915034
      17       -0.000008981618     0.000014853204     0.000003064572
      18       -0.000008816720    -0.000004927607     0.000007603269
      19        0.000003354723    -0.000004304223    -0.000011077566
      20        0.000000951392    -0.000003106660     0.000003713991
      21       -0.000000331363     0.000004681820    -0.000002343041
      22       -0.000002217951    -0.000000127563     0.000004883126
      23       -0.000000255553    -0.000001339787    -0.000000151533
      24        0.000009337291    -0.000002991506     0.000009835585
      25        0.000001338896     0.000000171291    -0.000001249833

  **** Optimization is complete! (in 8 steps) ****
    Final optimized geometry and variables:
    Molecular point group: c1

    Geometry (in Angstrom), charge = 0, multiplicity = 1:

    H            1.266576908199    -1.253205826593     4.152603839610
    C            1.167381698295    -1.256380708740     3.060926713265
    C            1.688016497321    -0.016784468080     2.376526748256
    O            0.696247049995    -2.198095029702     2.509606401016
    C            1.462397724518     0.028925629485     0.865738961458
    H            1.242621329613     0.846229254491     2.869764473150
    H            2.751461483230     0.034759440849     2.610841575597
    C            0.006422116753     0.283952694130     0.468519054502
    H            2.088701389915     0.814396905306     0.450209626588
    H            1.801118343661    -0.905546563829     0.430329616618
    C           -0.193472820654     0.333578077540    -1.047569880706
    H           -0.322946116182     1.226733101518     0.904211775362
    H           -0.624002973990    -0.492780149186     0.889080531574
    C           -1.647143703412     0.603074490355    -1.445387372101
    H            0.455346559653     1.098910501989    -1.466717171499
    H            0.126842938098    -0.612382731852    -1.480946531924
    C           -1.915153950457     0.570162428038    -2.954392019550
    H           -1.956621231638     1.568850206690    -1.048200757450
    H           -2.281636621637    -0.139367565912    -0.966138768939
    C           -1.226492141286     1.682777245728    -3.746977324064
    H           -2.988187173482     0.641160556728    -3.114951088999
    H           -1.612948717697    -0.396655621562    -3.351632939822
    H           -1.500384994758     2.662114701643    -3.363357818913
    H           -0.145358644993     1.601808038528    -3.705736646713
    H           -1.515304347982     1.646381646836    -4.792971287093

  Mulliken Charges: (a.u.)
   Center  Symbol    Alpha    Beta     Spin     Total
       1     H     0.42783  0.42783  0.00000  0.14433
       2     C     2.83445  2.83445  0.00000  0.33110
       3     C     3.21542  3.21542  0.00000 -0.43083
       4     O     4.23848  4.23848  0.00000 -0.47697
       5     C     3.15195  3.15195  0.00000 -0.30390
       6     H     0.40848  0.40848  0.00000  0.18303
       7     H     0.40451  0.40451  0.00000  0.19098
       8     C     3.15663  3.15663  0.00000 -0.31326
       9     H     0.41977  0.41977  0.00000  0.16046
      10     H     0.40851  0.40851  0.00000  0.18298
      11     C     3.15468  3.15468  0.00000 -0.30936
      12     H     0.42748  0.42748  0.00000  0.14503
      13     H     0.40844  0.40844  0.00000  0.18312
      14     C     3.15277  3.15277  0.00000 -0.30553
      15     H     0.42339  0.42339  0.00000  0.15322
      16     H     0.42112  0.42112  0.00000  0.15776
      17     C     3.15241  3.15241  0.00000 -0.30482
      18     H     0.42551  0.42551  0.00000  0.14898
      19     H     0.42046  0.42046  0.00000  0.15908
      20     C     3.24106  3.24106  0.00000 -0.48213
      21     H     0.42125  0.42125  0.00000  0.15751
      22     H     0.42264  0.42264  0.00000  0.15472
      23     H     0.42294  0.42294  0.00000  0.15411
      24     H     0.42032  0.42032  0.00000  0.15937
      25     H     0.41949  0.41949  0.00000  0.16102

   Total alpha = 36.00000, Total beta = 36.00000, Total charge =  0.00000
