  ==> Input File <==

--------------------------------------------------------------------------
set {
	reference rhf
	basis 6-31G*
}

set_num_threads( 4 )
memory 2 gb

molecule MOL {
0 1

H	 -3.261111	 -0.295142	 1.469456
C	 -3.306842	 -0.277400	 0.373456
C	 -2.660244	 0.921717	 -0.272021
O	 -3.838538	 -1.161155	 -0.216482
C	 -1.139743	 0.953813	 -0.063929
H	 -2.918635	 0.924527	 -1.324606
H	 -3.102688	 1.807196	 0.182760
C	 -0.401248	 -0.177896	 -0.783067
H	 -0.764597	 1.910204	 -0.415874
H	 -0.920123	 0.916409	 1.001962
C	 1.113829	 -0.126726	 -0.576335
H	 -0.624539	 -0.129023	 -1.846834
H	 -0.777439	 -1.140106	 -0.440765
C	 1.850670	 -1.250448	 -1.310001
H	 1.482261	 0.839982	 -0.910199
H	 1.334657	 -0.187869	 0.488504
C	 3.363562	 -1.289279	 -1.065624
H	 1.661989	 -1.166815	 -2.379159
H	 1.426843	 -2.203784	 -1.001399
C	 4.128311	 -0.086867	 -1.621486
H	 3.761041	 -2.194056	 -1.518766
H	 3.553839	 -1.376693	 0.002119
H	 3.943749	 0.034930	 -2.685615
H	 3.846081	 0.837548	 -1.128761
H	 5.197931	 -0.214309	 -1.484857

	symmetry c1
}
set optking {
	frozen_dihedral = ("
		6 3 2 4
	")
}

ee = optimize('scf')
oeprop('DIPOLE', 'QUADRUPOLE', 'MULLIKEN_CHARGES')
f=open( 'psi4out.xyz', 'w' )
f.write( "25  " )
f.write( str(ee) + "\n" )
f.write( MOL.save_string_xyz() )
f.close()
--------------------------------------------------------------------------

    Molecular point group: c1
  Charge       = 0
  Multiplicity = 1
  Basis Set: 6-31G*
  Basis Set:
  @DF-RHF Final Energy:  -387.12181698284763
    Total Energy =                       -387.1218169828478040
    Molecular point group: c1
  Basis Set: 6-31G*
  Basis Set:
  Basis Set: 6-31G*
  Basis Set:
  @DF-RHF Final Energy:  -387.12113203631992
    Total Energy =                       -387.1211320363202049
  Basis Set: 6-31G*
  Basis Set:
  Basis Set: 6-31G*
  Basis Set:
  @DF-RHF Final Energy:  -387.12179899042343
    Total Energy =                       -387.1217989904237129
  Basis Set: 6-31G*
  Basis Set:
  Basis Set: 6-31G*
  Basis Set:
  @DF-RHF Final Energy:  -387.12178880734632
    Total Energy =                       -387.1217888073458653
  Basis Set: 6-31G*
  Basis Set:
  Basis Set: 6-31G*
  Basis Set:
  @DF-RHF Final Energy:  -387.12185601902007
    Total Energy =                       -387.1218560190196740
  Basis Set: 6-31G*
  Basis Set:
  Basis Set: 6-31G*
  Basis Set:
  @DF-RHF Final Energy:  -387.12186278590167
    Total Energy =                       -387.1218627859016124
  Basis Set: 6-31G*
  Basis Set:
  Charge       = 0
  Multiplicity = 1
  Basis Set: 6-31G*
  Basis Set:

    Orbital Energies (a.u.)
    -----------------------

    Doubly Occupied:

       1A    -20.562424     2A    -11.326156     3A    -11.235742
       4A    -11.234645     5A    -11.221769     6A    -11.218615
       7A    -11.217141     8A    -11.215819     9A    -11.210012
      10A     -1.402139    11A     -1.102699    12A     -1.068752
      13A     -1.012653    14A     -0.942102    15A     -0.874821
      16A     -0.818974    17A     -0.787260    18A     -0.779994
      19A     -0.667760    20A     -0.662086    21A     -0.632241
      22A     -0.622811    23A     -0.598454    24A     -0.591789
      25A     -0.577785    26A     -0.549797    27A     -0.535748
      28A     -0.522114    29A     -0.509029    30A     -0.494481
      31A     -0.490630    32A     -0.478262    33A     -0.463535
      34A     -0.457911    35A     -0.440327    36A     -0.409471

  @DF-RHF Final Energy:  -387.12186298109901

   => Energetics <=

    Nuclear Repulsion Energy =            440.1743644404521660
    One-Electron Energy =               -1396.7205545392762360
    Two-Electron Energy =                 569.4243271177244878
    DFT Exchange-Correlation Energy =       0.0000000000000000
    Empirical Dispersion Energy =           0.0000000000000000
    PCM Polarization Energy =               0.0000000000000000
    EFP Energy =                            0.0000000000000000
    Total Energy =                       -387.1218629810996390
    Molecular point group: c1
  Basis Set: 6-31G*
  Basis Set:

  -Total Gradient:
     Atom            X                  Y                   Z
    ------   -----------------  -----------------  -----------------
       1       -0.000049266687     0.000006112580    -0.000002109495
       2       -0.001088000098     0.000656185373     0.000043363283
       3        0.001147273679    -0.000668287575    -0.000230868097
       4        0.000678860515    -0.000426628766     0.000001263198
       5        0.000003622811    -0.000046905650     0.000037329912
       6       -0.000692959847     0.000428479139     0.000166916140
       7        0.000021756411     0.000064254310    -0.000046641468
       8       -0.000023757731    -0.000137955724     0.000127680242
       9       -0.000049115590     0.000031282690     0.000015344852
      10        0.000016660637    -0.000034828800    -0.000014545508
      11        0.000003955752     0.000093730749    -0.000122545262
      12        0.000014356934     0.000011366153     0.000039147533
      13       -0.000036474594    -0.000008240405    -0.000024547795
      14       -0.000001923471     0.000009467453     0.000049381848
      15        0.000008607175     0.000004984725     0.000016534608
      16       -0.000000096295    -0.000020569883    -0.000028386063
      17       -0.000013488011     0.000000872426    -0.000002508716
      18        0.000030221732     0.000055914460     0.000023515373
      19       -0.000007951086    -0.000025544500    -0.000041111129
      20        0.000040102410     0.000019502350    -0.000010705874
      21       -0.000026286538    -0.000038923748     0.000031816213
      22       -0.000016302741     0.000034242529     0.000000352952
      23        0.000005803552     0.000006130445    -0.000003729690
      24        0.000043784085    -0.000013968740    -0.000013703983
      25       -0.000009383005    -0.000000671586    -0.000011243074

  **** Optimization is complete! (in 7 steps) ****
    Final optimized geometry and variables:
    Molecular point group: c1

    Geometry (in Angstrom), charge = 0, multiplicity = 1:

    H           -3.151432894881     0.011791875005     2.104915401264
    C           -3.211994797921     0.014929229322     1.009592002600
    C           -2.573024470814     1.203670170368     0.339109839494
    O           -3.735637380895    -0.886419678405     0.438696443344
    C           -1.049826977148     1.230296428901     0.548445866315
    H           -2.827243886549     1.182952986937    -0.714302647216
    H           -3.007133604190     2.102371159956     0.773525490351
    C           -0.310275886639     0.102550363074    -0.175480899450
    H           -0.675443518232     2.189030840162     0.201484944246
    H           -0.831249786766     1.188323258210     1.614281099581
    C            1.204833616342     0.157993748673     0.031297542428
    H           -0.532899723418     0.158480026313    -1.238947311973
    H           -0.685509616054    -0.861479619441     0.159942589592
    C            1.944690747947    -0.960624188385    -0.707175969099
    H            1.571858176634     1.127365272022    -0.296589576219
    H            1.425435688237     0.091004544293     1.095752926876
    C            3.455401564962    -1.006453949941    -0.451059793344
    H            1.765553160259    -0.865069584648    -1.776849313844
    H            1.515224284578    -1.915735970800    -0.412463785470
    C            4.229778381577     0.195309555121    -0.995678644497
    H            3.852951409198    -1.911364362185    -0.903809527172
    H            3.636049795322    -1.098512874168     0.618045704251
    H            4.058286736394     0.319344109292    -2.061618797905
    H            3.944334671209     1.119854354426    -0.504780552831
    H            5.297272316797     0.065075328828    -0.846973931365

  Mulliken Charges: (a.u.)
   Center  Symbol    Alpha    Beta     Spin     Total
       1     H     0.43216  0.43216  0.00000  0.13568
       2     C     2.83261  2.83261  0.00000  0.33478
       3     C     3.20598  3.20598  0.00000 -0.41196
       4     O     4.23696  4.23696  0.00000 -0.47393
       5     C     3.16677  3.16677  0.00000 -0.33353
       6     H     0.40009  0.40009  0.00000  0.19982
       7     H     0.40979  0.40979  0.00000  0.18043
       8     C     3.15460  3.15460  0.00000 -0.30919
       9     H     0.41279  0.41279  0.00000  0.17443
      10     H     0.41935  0.41935  0.00000  0.16129
      11     C     3.15443  3.15443  0.00000 -0.30886
      12     H     0.41839  0.41839  0.00000  0.16322
      13     H     0.41530  0.41530  0.00000  0.16940
      14     C     3.15306  3.15306  0.00000 -0.30612
      15     H     0.42132  0.42132  0.00000  0.15737
      16     H     0.42407  0.42407  0.00000  0.15186
      17     C     3.15275  3.15275  0.00000 -0.30550
      18     H     0.42310  0.42310  0.00000  0.15380
      19     H     0.42029  0.42029  0.00000  0.15941
      20     C     3.24126  3.24126  0.00000 -0.48252
      21     H     0.42005  0.42005  0.00000  0.15990
      22     H     0.42336  0.42336  0.00000  0.15329
      23     H     0.42195  0.42195  0.00000  0.15610
      24     H     0.42076  0.42076  0.00000  0.15848
      25     H     0.41881  0.41881  0.00000  0.16237

   Total alpha = 36.00000, Total beta = 36.00000, Total charge =  0.00000
