  ==> Input File <==

--------------------------------------------------------------------------
set {
	reference rhf
	basis 6-31G*
}

set_num_threads( 4 )
memory 2 gb

molecule MOL {
0 1

H	 2.591676	 2.013956	 0.335017
O	 3.341076	 1.666752	 -0.126416
C	 3.569581	 0.339145	 0.272707
C	 2.539767	 -0.640285	 -0.279495
H	 4.553106	 0.084646	 -0.100901
H	 3.608576	 0.269204	 1.359154
C	 1.115811	 -0.397273	 0.226630
H	 2.556196	 -0.582511	 -1.364741
H	 2.852081	 -1.648031	 -0.010655
C	 0.894264	 -0.927254	 1.646086
H	 0.410402	 -0.869723	 -0.451275
H	 0.902024	 0.671488	 0.207024
C	 -0.490849	 -0.633886	 2.234081
H	 1.070422	 -2.001338	 1.658738
H	 1.645572	 -0.489620	 2.300084
C	 -1.651824	 -1.346744	 1.535190
H	 -0.485785	 -0.925327	 3.282343
H	 -0.666764	 0.440688	 2.220612
C	 -2.998321	 -1.106990	 2.221412
H	 -1.450411	 -2.416628	 1.505352
H	 -1.722389	 -1.021024	 0.500187
C	 -4.159876	 -1.812231	 1.522064
H	 -2.941039	 -1.444172	 3.254134
H	 -3.196739	 -0.037896	 2.260838
H	 -4.006790	 -2.887440	 1.495325
H	 -5.099317	 -1.624793	 2.032900
H	 -4.267180	 -1.469294	 0.496762

	symmetry c1
}
set optking {
	frozen_dihedral = ("
		10 7 4 8
	")
}

ee = optimize('scf')
oeprop('DIPOLE', 'QUADRUPOLE', 'MULLIKEN_CHARGES')
f=open( 'psi4out.xyz', 'w' )
f.write( "27  " )
f.write( str(ee) + "\n" )
f.write( MOL.save_string_xyz() )
f.close()
--------------------------------------------------------------------------

    Molecular point group: c1
  Charge       = 0
  Multiplicity = 1
  Basis Set: 6-31G*
  Basis Set:
  @DF-RHF Final Energy:  -388.27907227211006
    Total Energy =                       -388.2790722721100565
    Molecular point group: c1
  Basis Set: 6-31G*
  Basis Set:
  Basis Set: 6-31G*
  Basis Set:
  @DF-RHF Final Energy:  -388.27937119626603
    Total Energy =                       -388.2793711962660836
  Basis Set: 6-31G*
  Basis Set:
  Basis Set: 6-31G*
  Basis Set:
  @DF-RHF Final Energy:  -388.27946695710546
    Total Energy =                       -388.2794669571054555
  Basis Set: 6-31G*
  Basis Set:
  Basis Set: 6-31G*
  Basis Set:
  @DF-RHF Final Energy:  -388.27947324566696
    Total Energy =                       -388.2794732456676456
  Basis Set: 6-31G*
  Basis Set:
  Basis Set: 6-31G*
  Basis Set:
  @DF-RHF Final Energy:  -388.27946964818852
    Total Energy =                       -388.2794696481882966
  Basis Set: 6-31G*
  Basis Set:
  Basis Set: 6-31G*
  Basis Set:
  @DF-RHF Final Energy:  -388.27947594575653
    Total Energy =                       -388.2794759457563032
  Basis Set: 6-31G*
  Basis Set:
  Charge       = 0
  Multiplicity = 1
  Basis Set: 6-31G*
  Basis Set:

    Orbital Energies (a.u.)
    -----------------------

    Doubly Occupied:

       1A    -20.551901     2A    -11.266723     3A    -11.220128
       4A    -11.219041     5A    -11.217410     6A    -11.216693
       7A    -11.215543     8A    -11.214997     9A    -11.209783
      10A     -1.358681    11A     -1.095941    12A     -1.061247
      13A     -1.010995    14A     -0.947455    15A     -0.892420
      16A     -0.825655    17A     -0.799513    18A     -0.774749
      19A     -0.695938    20A     -0.647367    21A     -0.641396
      22A     -0.608420    23A     -0.605759    24A     -0.586493
      25A     -0.573168    26A     -0.562491    27A     -0.543172
      28A     -0.525891    29A     -0.509908    30A     -0.495204
      31A     -0.488874    32A     -0.472984    33A     -0.468713
      34A     -0.461439    35A     -0.449999    36A     -0.440169
      37A     -0.424557

  @DF-RHF Final Energy:  -388.27947588922171

   => Energetics <=

    Nuclear Repulsion Energy =            461.3050898628611662
    One-Electron Energy =               -1440.5675035286719776
    Two-Electron Energy =                 590.9829377765888694
    DFT Exchange-Correlation Energy =       0.0000000000000000
    Empirical Dispersion Energy =           0.0000000000000000
    PCM Polarization Energy =               0.0000000000000000
    EFP Energy =                            0.0000000000000000
    Total Energy =                       -388.2794758892218852
    Molecular point group: c1
  Basis Set: 6-31G*
  Basis Set:

  -Total Gradient:
     Atom            X                  Y                   Z
    ------   -----------------  -----------------  -----------------
       1       -0.000011710156     0.000044051010    -0.000013064698
       2       -0.000065695037     0.000000666923     0.000059248155
       3        0.000105498802    -0.000032068821    -0.000099069966
       4        0.000236770449     0.001732488945    -0.000070858117
       5        0.000020795289    -0.000026130749     0.000022544827
       6       -0.000007410131     0.000013726287    -0.000029400936
       7        0.000398333609     0.001279868902     0.000648380169
       8       -0.000264826329    -0.001817705285    -0.000082939001
       9        0.000015860457     0.000003182747    -0.000008381356
      10       -0.000391268670    -0.001205417367    -0.000462308547
      11        0.000003534474     0.000033203946     0.000005783625
      12       -0.000017788520    -0.000006397010    -0.000004840688
      13        0.000007946906    -0.000018588342     0.000013223845
      14       -0.000000357340     0.000000747654    -0.000000619192
      15       -0.000029953982    -0.000018025850     0.000019220521
      16        0.000003230969     0.000017718814    -0.000007159052
      17       -0.000012908576     0.000006794668     0.000004433618
      18        0.000003900320     0.000001422616    -0.000013101797
      19        0.000005996361    -0.000013519725     0.000013663211
      20        0.000007357659     0.000004455516    -0.000003538824
      21       -0.000005498382     0.000003130645     0.000005328194
      22        0.000000132864    -0.000001069930     0.000001192747
      23       -0.000003171719     0.000001365498     0.000005488437
      24        0.000001262703    -0.000004298782    -0.000003149528
      25       -0.000001122526     0.000000216963     0.000001306304
      26       -0.000000493472     0.000000849721    -0.000000905778
      27        0.000001583977    -0.000000668992    -0.000000476175

  **** Optimization is complete! (in 7 steps) ****
    Final optimized geometry and variables:
    Molecular point group: c1

    Geometry (in Angstrom), charge = 0, multiplicity = 1:

    H            2.345878132235     2.543296303692    -0.719191168351
    O            3.087555304636     2.179492349142    -1.180036793630
    C            3.310544552703     0.858599132337    -0.756013869061
    C            2.268100975122    -0.122727226523    -1.284015224863
    H            4.285090179369     0.587715735291    -1.141374176442
    H            3.372937720229     0.813326559157     0.329358327494
    C            0.839868238965     0.090584438635    -0.760436634087
    H            2.268439266757    -0.064775251216    -2.368409986225
    H            2.591174476884    -1.131855402389    -1.032587065185
    C            0.615874366431    -0.434560217298     0.662096100831
    H            0.152960261293    -0.408569826399    -1.436432995042
    H            0.579177667502     1.146801953398    -0.810075400664
    C           -0.772671821861    -0.140009334663     1.242409038013
    H            0.788830632212    -1.509226535290     0.672304830810
    H            1.359515301203    -0.004955938788     1.329729807598
    C           -1.931687999311    -0.840118684600     0.527663788608
    H           -0.777366757760    -0.440557234799     2.288087203893
    H           -0.943910696087     0.935516362146     1.237045606806
    C           -3.280696950470    -0.607052588273     1.211311988111
    H           -1.732437852116    -1.910044602727     0.484098087369
    H           -1.996417546662    -0.499371412884    -0.502623408166
    C           -4.440357123006    -1.300297727350     0.497026729982
    H           -3.228859951353    -0.958321267712     2.239645856739
    H           -3.477274735942     0.461787800394     1.264152305730
    H           -4.289559325670    -2.375433133023     0.456925931450
    H           -5.381794380664    -1.117476782847     1.005816286911
    H           -4.541762856368    -0.943512711938    -0.524079339263

  Mulliken Charges: (a.u.)
   Center  Symbol    Alpha    Beta     Spin     Total
       1     H     0.28018  0.28018  0.00000  0.43963
       2     O     4.37096  4.37096  0.00000 -0.74193
       3     C     2.99817  2.99817  0.00000  0.00366
       4     C     3.16435  3.16435  0.00000 -0.32871
       5     H     0.41425  0.41425  0.00000  0.17149
       6     H     0.43048  0.43048  0.00000  0.13904
       7     C     3.16286  3.16286  0.00000 -0.32572
       8     H     0.41265  0.41265  0.00000  0.17471
       9     H     0.42413  0.42413  0.00000  0.15174
      10     C     3.15529  3.15529  0.00000 -0.31058
      11     H     0.41462  0.41462  0.00000  0.17077
      12     H     0.43001  0.43001  0.00000  0.13997
      13     C     3.15266  3.15266  0.00000 -0.30533
      14     H     0.42199  0.42199  0.00000  0.15602
      15     H     0.42281  0.42281  0.00000  0.15438
      16     C     3.15296  3.15296  0.00000 -0.30591
      17     H     0.42122  0.42122  0.00000  0.15756
      18     H     0.42523  0.42523  0.00000  0.14953
      19     C     3.15125  3.15125  0.00000 -0.30251
      20     H     0.42424  0.42424  0.00000  0.15151
      21     H     0.42167  0.42167  0.00000  0.15666
      22     C     3.23926  3.23926  0.00000 -0.47851
      23     H     0.42302  0.42302  0.00000  0.15396
      24     H     0.42312  0.42312  0.00000  0.15376
      25     H     0.42172  0.42172  0.00000  0.15656
      26     H     0.41914  0.41914  0.00000  0.16172
      27     H     0.42173  0.42173  0.00000  0.15653

   Total alpha = 37.00000, Total beta = 37.00000, Total charge =  0.00000
