  ==> Input File <==

--------------------------------------------------------------------------
set {
	reference rhf
	basis 6-31G*
}

set_num_threads( 1 )
memory 2 gb

molecule MOL {
0 1

H	 -0.000158	 1.970498	 0.756846
O	 -0.000074	 1.880206	 -0.189275
C	 -0.000015	 0.544847	 -0.545111
C	 -1.278788	 -0.123820	 -0.051541
C	 1.278802	 -0.123718	 -0.051505
H	 -0.000001	 0.490777	 -1.623619
F	 -2.312698	 0.363926	 -0.703215
F	 -1.261659	 -1.427501	 -0.231768
F	 -1.465779	 0.112226	 1.237224
F	 2.323327	 0.466644	 -0.591854
F	 1.326242	 -1.401483	 -0.363667
F	 1.388946	 -0.015632	 1.262939

	symmetry c1
}
set optking {
	frozen_dihedral = ("
		6 3 2 1
	")
}

ee = energy('scf')
oeprop('DIPOLE', 'QUADRUPOLE', 'MULLIKEN_CHARGES')
f=open( 'psi4out.xyz', 'w' )
f.write( "12  " )
f.write( str(ee) + "\n" )
f.write( MOL.save_string_xyz() )
f.close()
--------------------------------------------------------------------------

    Molecular point group: c1

    Geometry (in Angstrom), charge = 0, multiplicity = 1:

       Center              X                  Y                   Z               Mass
    ------------   -----------------  -----------------  -----------------  -----------------
           H          0.000033381495     1.970554941491     0.757419386403     1.007825032070
           O          0.000117381495     1.880262941491    -0.188701613597    15.994914619560
           C          0.000176381495     0.544903941491    -0.544537613597    12.000000000000
           C         -1.278596618505    -0.123763058509    -0.050967613597    12.000000000000
           C          1.278993381495    -0.123661058509    -0.050931613597    12.000000000000
           H          0.000190381495     0.490833941491    -1.623045613597     1.007825032070
           F         -2.312506618505     0.363982941491    -0.702641613597    18.998403224000
           F         -1.261467618505    -1.427444058509    -0.231194613597    18.998403224000
           F         -1.465587618505     0.112282941491     1.237797386403    18.998403224000
           F          2.323518381495     0.466700941491    -0.591280613597    18.998403224000
           F          1.326433381495    -1.401426058509    -0.363093613597    18.998403224000
           F          1.389137381495    -0.015575058509     1.263512386403    18.998403224000

  Charge       = 0
  Multiplicity = 1
  Basis Set: 6-31G*
  Basis Set:

    Orbital Energies (a.u.)
    -----------------------

    Doubly Occupied:

       1A    -26.363250     2A    -26.363219     3A    -26.361890
       4A    -26.360979     5A    -26.358493     6A    -26.358036
       7A    -20.616890     8A    -11.526088     9A    -11.525550
      10A    -11.349203    11A     -1.764856    12A     -1.758818
      13A     -1.662280    14A     -1.658024    15A     -1.657088
      16A     -1.655195    17A     -1.435276    18A     -1.101850
      19A     -0.997013    20A     -0.938544    21A     -0.863799
      22A     -0.862879    23A     -0.852094    24A     -0.844492
      25A     -0.832124    26A     -0.816522    27A     -0.743661
      28A     -0.727103    29A     -0.724415    30A     -0.717766
      31A     -0.689040    32A     -0.686697    33A     -0.683306
      34A     -0.674735    35A     -0.669802    36A     -0.662929
      37A     -0.656461    38A     -0.652720    39A     -0.620961
      40A     -0.551769    41A     -0.505688

  @DF-RHF Final Energy:  -786.27778533007699

   => Energetics <=

    Nuclear Repulsion Energy =            670.5531061168458109
    One-Electron Energy =               -2427.9589659407774889
    Two-Electron Energy =                 971.1280744938562748
    DFT Exchange-Correlation Energy =       0.0000000000000000
    Empirical Dispersion Energy =           0.0000000000000000
    PCM Polarization Energy =               0.0000000000000000
    EFP Energy =                            0.0000000000000000
    Total Energy =                       -786.2777853300754032

  Mulliken Charges: (a.u.)
   Center  Symbol    Alpha    Beta     Spin     Total
       1     H     0.26518  0.26518  0.00000  0.46964
       2     O     4.36328  4.36328  0.00000 -0.72656
       3     C     3.04771  3.04771  0.00000 -0.09543
       4     C     2.44332  2.44332  0.00000  1.11336
       5     C     2.44604  2.44604  0.00000  1.10792
       6     H     0.37482  0.37482  0.00000  0.25035
       7     F     4.67528  4.67528  0.00000 -0.35056
       8     F     4.67368  4.67368  0.00000 -0.34736
       9     F     4.68101  4.68101  0.00000 -0.36202
      10     F     4.67492  4.67492  0.00000 -0.34984
      11     F     4.67370  4.67370  0.00000 -0.34741
      12     F     4.68105  4.68105  0.00000 -0.36209

   Total alpha = 41.00000, Total beta = 41.00000, Total charge = -0.00000
