  ==> Input File <==

--------------------------------------------------------------------------
set {
	reference rhf
	basis 6-31G*
}

set_num_threads( 1 )
memory 2 gb

molecule MOL {
0 1

H	 1.830125	 -0.846418	 -0.905352
O	 1.586534	 -0.678666	 -0.000226
C	 0.489431	 0.077273	 0.000046
C	 -0.764129	 -0.759190	 0.000191
O	 0.537743	 1.263962	 0.000257
C	 -2.038368	 0.075731	 -0.000248
H	 -0.717284	 -1.412404	 -0.866059
H	 -0.717458	 -1.411724	 0.866967
H	 -2.086483	 0.712501	 -0.875098
H	 -2.908485	 -0.571682	 -0.000042
H	 -2.086576	 0.713280	 0.874068

	symmetry c1
}
set optking {
	frozen_dihedral = ("
		2 3 4 7
	")
}

ee = energy('scf')
oeprop('DIPOLE', 'QUADRUPOLE', 'MULLIKEN_CHARGES')
f=open( 'psi4out.xyz', 'w' )
f.write( "11  " )
f.write( str(ee) + "\n" )
f.write( MOL.save_string_xyz() )
f.close()
--------------------------------------------------------------------------

    Molecular point group: c1

    Geometry (in Angstrom), charge = 0, multiplicity = 1:

       Center              X                  Y                   Z               Mass
    ------------   -----------------  -----------------  -----------------  -----------------
           H          1.837116703109    -0.836274956952    -0.893030585476     1.007825032070
           O          1.593525703109    -0.668522956952     0.012095414524    15.994914619560
           C          0.496422703109     0.087416043048     0.012367414524    12.000000000000
           C         -0.757137296891    -0.749046956952     0.012512414524    12.000000000000
           O          0.544734703109     1.274105043048     0.012578414524    15.994914619560
           C         -2.031376296891     0.085874043048     0.012073414524    12.000000000000
           H         -0.710292296891    -1.402260956952    -0.853737585476     1.007825032070
           H         -0.710466296891    -1.401580956952     0.879288414524     1.007825032070
           H         -2.079491296891     0.722644043048    -0.862776585476     1.007825032070
           H         -2.901493296891    -0.561538956952     0.012279414524     1.007825032070
           H         -2.079584296891     0.723423043048     0.886389414524     1.007825032070

  Charge       = 0
  Multiplicity = 1
  Basis Set: 6-31G*
  Basis Set:

    Orbital Energies (a.u.)
    -----------------------

    Doubly Occupied:

       1A    -20.599072     2A    -20.561395     3A    -11.380785
       4A    -11.245508     5A    -11.220967     6A     -1.469947
       7A     -1.370215     8A     -1.064706     9A     -0.909900
      10A     -0.811191    11A     -0.713517    12A     -0.679162
      13A     -0.661750    14A     -0.617790    15A     -0.569174
      16A     -0.528651    17A     -0.519320    18A     -0.496384
      19A     -0.492493    20A     -0.446377

  @DF-RHF Final Energy:  -266.82299000127006

   => Energetics <=

    Nuclear Repulsion Energy =            179.8145106067369738
    One-Electron Energy =                -720.5584133997509753
    Two-Electron Energy =                 273.9209127917442856
    DFT Exchange-Correlation Energy =       0.0000000000000000
    Empirical Dispersion Energy =           0.0000000000000000
    PCM Polarization Energy =               0.0000000000000000
    EFP Energy =                            0.0000000000000000
    Total Energy =                       -266.8229900012697726

  Mulliken Charges: (a.u.)
   Center  Symbol    Alpha    Beta     Spin     Total
       1     H     0.26514  0.26514  0.00000  0.46971
       2     O     4.35622  4.35622  0.00000 -0.71243
       3     C     2.63828  2.63828  0.00000  0.72345
       4     C     3.20715  3.20715  0.00000 -0.41431
       5     O     4.25093  4.25093  0.00000 -0.50187
       6     C     3.24008  3.24008  0.00000 -0.48016
       7     H     0.40991  0.40991  0.00000  0.18018
       8     H     0.39639  0.39639  0.00000  0.20723
       9     H     0.41077  0.41077  0.00000  0.17846
      10     H     0.41749  0.41749  0.00000  0.16502
      11     H     0.40764  0.40764  0.00000  0.18472

   Total alpha = 20.00000, Total beta = 20.00000, Total charge =  0.00000
