                              Psi4 1.0.54 Driver

  ==> Input File <==

--------------------------------------------------------------------------
set {
	reference rhf
	basis cc-pvtz
}

set_num_threads( 4 )
memory 2 gb

molecule MOL {
0 1

H	 1.416631	 1.045361	 -2.418719
C	 0.687796	 0.867447	 -1.638703
C	 1.322304	 0.099773	 -0.484271
H	 0.310123	 1.829677	 -1.311831
H	 -0.136190	 0.313900	 -2.074564
C	 0.308557	 -0.162619	 0.622645
H	 2.152262	 0.661705	 -0.074228
H	 1.711316	 -0.847876	 -0.835797
N	 -1.069352	 -0.004081	 0.085342
H	 0.371632	 -1.172932	 0.991288
H	 0.400391	 0.548875	 1.426218
O	 -1.584901	 -0.965470	 -0.377818
O	 -1.548033	 1.079343	 0.130056

	symmetry c1
}
set optking {
	frozen_dihedral = ("
		7 3 6 9
	")
}

ee,wfn = optimize('scf', return_wfn=True)
oeprop( wfn, 'DIPOLE', 'QUADRUPOLE', 'MULLIKEN_CHARGES')
f=open( 'psi4out.xyz', 'w' )
f.write( "13  " )
f.write( str(ee) + "\n" )
f.write( MOL.save_string_xyz() )
f.close()
--------------------------------------------------------------------------

    Molecular point group: c1
  Charge       = 0
  Multiplicity = 1
  Basis Set: CC-PVTZ
  Basis Set:
  @DF-RHF Final Energy:  -321.85079481149427
    Total Energy =                       -321.8507948114942678
    Molecular point group: c1
  Basis Set: CC-PVTZ
  Basis Set:
  Basis Set: CC-PVTZ
  Basis Set:
  @DF-RHF Final Energy:  -321.84455306017162
    Total Energy =                       -321.8445530601715063
  Basis Set: CC-PVTZ
  Basis Set:
  Basis Set: CC-PVTZ
  Basis Set:
  @DF-RHF Final Energy:  -321.85328284017078
    Total Energy =                       -321.8532828401706070
  Basis Set: CC-PVTZ
  Basis Set:
  Basis Set: CC-PVTZ
  Basis Set:
  @DF-RHF Final Energy:  -321.85213189629678
    Total Energy =                       -321.8521318962967825
  Basis Set: CC-PVTZ
  Basis Set:
  @DF-RHF Final Energy:  -321.85484862280225
    Total Energy =                       -321.8548486228023080
  @DF-RHF Final Energy:  -321.85495631247323
    Total Energy =                       -321.8549563124729502
  @DF-RHF Final Energy:  -321.85499380320334
    Total Energy =                       -321.8549938032031719
  Basis Set: CC-PVTZ
  Basis Set:
  @DF-RHF Final Energy:  -321.85501399484531
    Total Energy =                       -321.8550139948455922
  Basis Set: CC-PVTZ
  Basis Set:
  Basis Set: CC-PVTZ
  Basis Set:
  @DF-RHF Final Energy:  -321.85503219439437
    Total Energy =                       -321.8550321943945391
  Basis Set: CC-PVTZ
  Basis Set:
  Basis Set: CC-PVTZ
  Basis Set:
  @DF-RHF Final Energy:  -321.85503485819794
    Total Energy =                       -321.8550348581979961
  Basis Set: CC-PVTZ
  Basis Set:
  Charge       = 0
  Multiplicity = 1
  Basis Set: CC-PVTZ
  Basis Set:

    Orbital Energies (a.u.)
    -----------------------

    Doubly Occupied:

       1A    -20.592354     2A    -20.589198     3A    -15.836843
       4A    -11.297347     5A    -11.255143     6A    -11.227080
       7A     -1.636388     8A     -1.420495     9A     -1.129096
      10A     -1.021737    11A     -0.895532    12A     -0.822376
      13A     -0.754735    14A     -0.738911    15A     -0.729429
      16A     -0.667915    17A     -0.606576    18A     -0.590285
      19A     -0.535284    20A     -0.517827    21A     -0.512598
      22A     -0.481978    23A     -0.475193    24A     -0.453813

  @DF-RHF Final Energy:  -321.85503498124979

   => Energetics <=

    Nuclear Repulsion Energy =            254.9440788215841565
    One-Electron Energy =                -944.0219622657256195
    Two-Electron Energy =                 367.2228484628915339
    DFT Exchange-Correlation Energy =       0.0000000000000000
    Empirical Dispersion Energy =           0.0000000000000000
    PCM Polarization Energy =               0.0000000000000000
    EFP Energy =                            0.0000000000000000
    Total Energy =                       -321.8550349812499007
    Molecular point group: c1
  Basis Set: CC-PVTZ
  Basis Set:

  -Total Gradient:
     Atom            X                  Y                   Z
    ------   -----------------  -----------------  -----------------
       1        0.000000411675    -0.000002916925     0.000010845736
       2       -0.000017000568    -0.000006131235     0.000001358448
       3        0.003316023400    -0.003979126075     0.000764405651
       4       -0.000004406628     0.000001930446    -0.000000088864
       5        0.000006372701     0.000007841524    -0.000013733582
       6       -0.000689137627    -0.004130917390    -0.001972430621
       7       -0.002724541092     0.004435508754    -0.000192949041
       8        0.000001393642    -0.000005660939     0.000005320505
       9        0.000050753983     0.003748223323     0.001419581362
      10        0.000015943684    -0.000001562265    -0.000001006159
      11        0.000012961406    -0.000004662148    -0.000000829586
      12        0.000001717431     0.000023538451     0.000021753373
      13        0.000029507992    -0.000086065520    -0.000042227223

  **** Optimization is complete! (in 11 steps) ****
    Final optimized geometry and variables:
    Molecular point group: c1

    Geometry (in Angstrom), charge = 0, multiplicity = 1:

    H            1.554786529870     1.267429172844    -2.302215534193
    C            0.876269397230     0.981140390478    -1.508887531696
    C            1.606232786990     0.059752061015    -0.530675098973
    H            0.530742545644     1.884287005183    -1.022120715656
    H            0.023817346323     0.492943264988    -1.962090187008
    C            0.797279771220    -0.382386872685     0.705995876930
    H            2.463544596609     0.603869839036    -0.155201430517
    H            1.963333714299    -0.815187097884    -1.054997646214
    N           -0.670017335745    -0.254357295805     0.494835946140
    H            0.969222303336    -1.417625044611     0.946324177069
    H            1.007631557152     0.240821503963     1.557306895992
    O           -1.203284108915    -1.114968252596    -0.123550705134
    O           -1.207155443382     0.701431875755     0.942424499240

  Mulliken Charges: (a.u.)
   Center  Symbol    Alpha    Beta     Spin     Total
       1     H     0.44597  0.44597  0.00000  0.10806
       2     C     3.15356  3.15356  0.00000 -0.30713
       3     C     3.09365  3.09365  0.00000 -0.18731
       4     H     0.44411  0.44411  0.00000  0.11178
       5     H     0.44262  0.44262  0.00000  0.11476
       6     C     3.04154  3.04154  0.00000 -0.08309
       7     H     0.44658  0.44658  0.00000  0.10684
       8     H     0.44255  0.44255  0.00000  0.11490
       9     N     3.27608  3.27608  0.00000  0.44784
      10     H     0.43103  0.43103  0.00000  0.13794
      11     H     0.43420  0.43420  0.00000  0.13161
      12     O     4.17496  4.17496  0.00000 -0.34993
      13     O     4.17315  4.17315  0.00000 -0.34629

   Total alpha = 24.00000, Total beta = 24.00000, Total charge =  0.00000

*** Psi4 exiting successfully. Buy a developer a beer!
