  ==> Input File <==

--------------------------------------------------------------------------
set {
	reference rhf
	basis 6-31G*
}

set_num_threads( 4 )
memory 2 gb

molecule MOL {
0 1

O	 -2.042549	 -1.228399	 -0.269030
C	 -1.653912	 -0.146171	 0.050137
C	 -0.332303	 0.024011	 0.778412
C	 -2.438579	 1.106236	 -0.272369
C	 0.845713	 -0.001731	 -0.208243
H	 -0.323783	 0.953829	 1.340327
H	 -0.235459	 -0.796807	 1.480410
C	 2.200309	 0.136118	 0.488247
H	 0.733710	 0.800019	 -0.936072
H	 0.811185	 -0.933796	 -0.764304
C	 3.354297	 -0.413496	 -0.349274
H	 2.384988	 1.183756	 0.715789
H	 2.166234	 -0.383660	 1.442835
H	 3.435611	 0.110150	 -1.297554
H	 3.213536	 -1.468461	 -0.565325
H	 4.301076	 -0.305312	 0.170276
H	 -3.277823	 0.863061	 -0.908988
H	 -1.806773	 1.843019	 -0.759671
H	 -2.802853	 1.554979	 0.648059

	symmetry c1
}
set optking {
	frozen_dihedral = ("
		11 8 5 9
	")
}

ee = optimize('scf')
oeprop('DIPOLE', 'QUADRUPOLE', 'MULLIKEN_CHARGES')
f=open( 'psi4out.xyz', 'w' )
f.write( "19  " )
f.write( str(ee) + "\n" )
f.write( MOL.save_string_xyz() )
f.close()
--------------------------------------------------------------------------

    Molecular point group: c1
  Charge       = 0
  Multiplicity = 1
  Basis Set: 6-31G*
  Basis Set:
  @DF-RHF Final Energy:  -309.06342090862051
    Total Energy =                       -309.0634209086204010
    Molecular point group: c1
  Basis Set: 6-31G*
  Basis Set:
  Basis Set: 6-31G*
  Basis Set:
  @DF-RHF Final Energy:  -309.06338016287594
    Total Energy =                       -309.0633801628763422
  Basis Set: 6-31G*
  Basis Set:
  Basis Set: 6-31G*
  Basis Set:
  @DF-RHF Final Energy:  -309.06344079429556
    Total Energy =                       -309.0634407942954454
  Basis Set: 6-31G*
  Basis Set:
  Basis Set: 6-31G*
  Basis Set:
  @DF-RHF Final Energy:  -309.06359082187066
    Total Energy =                       -309.0635908218707186
  Basis Set: 6-31G*
  Basis Set:
  Basis Set: 6-31G*
  Basis Set:
  @DF-RHF Final Energy:  -309.06345849092816
    Total Energy =                       -309.0634584909277010
  Basis Set: 6-31G*
  Basis Set:
  Basis Set: 6-31G*
  Basis Set:
  @DF-RHF Final Energy:  -309.06360959247547
    Total Energy =                       -309.0636095924755864
  Basis Set: 6-31G*
  Basis Set:
  Basis Set: 6-31G*
  Basis Set:
  @DF-RHF Final Energy:  -309.06361329496997
    Total Energy =                       -309.0636132949696275
  Basis Set: 6-31G*
  Basis Set:
  Charge       = 0
  Multiplicity = 1
  Basis Set: 6-31G*
  Basis Set:

    Orbital Energies (a.u.)
    -----------------------

    Doubly Occupied:

       1A    -20.547498     2A    -11.324460     3A    -11.230649
       4A    -11.229300     5A    -11.228306     6A    -11.224837
       7A    -11.214573     8A     -1.393192     9A     -1.090714
      10A     -1.028918    11A     -0.983692    12A     -0.889618
      13A     -0.806727    14A     -0.733460    15A     -0.661751
      16A     -0.647224    17A     -0.620580    18A     -0.613143
      19A     -0.582332    20A     -0.576574    21A     -0.549088
      22A     -0.536510    23A     -0.517342    24A     -0.496459
      25A     -0.481923    26A     -0.475960    27A     -0.466095
      28A     -0.396662

  @DF-RHF Final Energy:  -309.06361368688829

   => Energetics <=

    Nuclear Repulsion Energy =            301.2244054139285936
    One-Electron Energy =               -1015.4808639075104111
    Two-Electron Energy =                 405.1928448066936426
    DFT Exchange-Correlation Energy =       0.0000000000000000
    Empirical Dispersion Energy =           0.0000000000000000
    PCM Polarization Energy =               0.0000000000000000
    EFP Energy =                            0.0000000000000000
    Total Energy =                       -309.0636136868881749
    Molecular point group: c1
  Basis Set: 6-31G*
  Basis Set:

  -Total Gradient:
     Atom            X                  Y                   Z
    ------   -----------------  -----------------  -----------------
       1       -0.000004223695     0.000005647251     0.000011297233
       2        0.000019026465    -0.000006866544    -0.000017189930
       3        0.000007687927    -0.000013192049     0.000015609613
       4        0.000000091803     0.000004080369     0.000007487289
       5        0.001934689870    -0.003670526241    -0.002833195736
       6       -0.000006787416     0.000003490385    -0.000003654839
       7       -0.000002373550     0.000000383780     0.000005226904
       8        0.000006215768     0.004035974741    -0.001024239040
       9       -0.001632657403     0.002190998946     0.002671691475
      10        0.000001429480    -0.000009014694     0.000000715928
      11       -0.000293004532    -0.002537850719     0.001169728702
      12       -0.000014587111     0.000006575435     0.000013523767
      13       -0.000016051354    -0.000005890469    -0.000013007961
      14       -0.000000546720    -0.000000510210     0.000000209566
      15        0.000010150181    -0.000005428773    -0.000005690124
      16       -0.000007154936     0.000003096144     0.000002687354
      17        0.000001334195    -0.000001275037    -0.000000907005
      18       -0.000001217600    -0.000001985882     0.000000880191
      19       -0.000002021370     0.000002293568    -0.000001173387

  **** Optimization is complete! (in 8 steps) ****
    Final optimized geometry and variables:
    Molecular point group: c1

    Geometry (in Angstrom), charge = 0, multiplicity = 1:

    O           -2.062146703572    -1.138549235800    -0.292686065602
    C           -1.655015379119    -0.063790526177     0.028941722611
    C           -0.330154685646     0.081420396309     0.756222559844
    C           -2.419024609155     1.202373095297    -0.289614075004
    C            0.847362111540     0.035921990432    -0.232884479560
    H           -0.303681597533     1.010593096906     1.319164615479
    H           -0.247064510114    -0.741533849977     1.457218405944
    C            2.201625505583     0.210658225414     0.464820873015
    H            0.716845147351     0.831298150990    -0.964019442152
    H            0.813323507055    -0.907688532482    -0.767224585128
    C            3.371631005617    -0.313561012499    -0.367255778195
    H            2.353983344363     1.259123007522     0.707708542283
    H            2.186589721999    -0.322214108179     1.412904387380
    H            3.427114175465     0.183782893288    -1.331805838884
    H            3.268166652188    -1.378607869172    -0.550489926759
    H            4.317065587198    -0.153408776705     0.141368367332
    H           -3.261103034680     0.975315611667    -0.928447752886
    H           -1.775096659467     1.931373700520    -0.772729612564
    H           -2.777592197441     1.652731840471     0.632286405490

  Mulliken Charges: (a.u.)
   Center  Symbol    Alpha    Beta     Spin     Total
       1     O     4.26224  4.26224  0.00000 -0.52447
       2     C     2.73713  2.73713  0.00000  0.52573
       3     C     3.20114  3.20114  0.00000 -0.40228
       4     C     3.28954  3.28954  0.00000 -0.57908
       5     C     3.16139  3.16139  0.00000 -0.32278
       6     H     0.41691  0.41691  0.00000  0.16619
       7     H     0.40103  0.40103  0.00000  0.19793
       8     C     3.15270  3.15270  0.00000 -0.30540
       9     H     0.42007  0.42007  0.00000  0.15985
      10     H     0.40569  0.40569  0.00000  0.18861
      11     C     3.24037  3.24037  0.00000 -0.48074
      12     H     0.42063  0.42063  0.00000  0.15874
      13     H     0.42018  0.42018  0.00000  0.15965
      14     H     0.42084  0.42084  0.00000  0.15832
      15     H     0.41834  0.41834  0.00000  0.16332
      16     H     0.41805  0.41805  0.00000  0.16389
      17     H     0.39701  0.39701  0.00000  0.20598
      18     H     0.41004  0.41004  0.00000  0.17992
      19     H     0.40669  0.40669  0.00000  0.18662

   Total alpha = 28.00000, Total beta = 28.00000, Total charge =  0.00000
