  ==> Input File <==

--------------------------------------------------------------------------
set {
	reference rhf
	basis 6-31G*
}

set_num_threads( 4 )
memory 2 gb

molecule MOL {
0 1

H	 0.829770	 1.394026	 -0.702604
O	 0.055946	 1.300438	 -0.164479
C	 0.004957	 -0.004114	 0.366649
C	 1.201664	 -0.828089	 -0.095740
C	 -1.317755	 -0.601827	 -0.081511
H	 0.013527	 0.048298	 1.454924
H	 1.216388	 -0.895289	 -1.178704
H	 2.135132	 -0.372895	 0.226467
H	 1.166770	 -1.832878	 0.313827
H	 -1.355732	 -0.658248	 -1.164429
H	 -2.141614	 0.017037	 0.254547
H	 -1.447303	 -1.600817	 0.322594

	symmetry c1
}
set optking {
	frozen_dihedral = ("
		1 2 3 4
	")
}

ee = optimize('scf')
oeprop('DIPOLE', 'QUADRUPOLE', 'MULLIKEN_CHARGES')
f=open( 'psi4out.xyz', 'w' )
f.write( "12  " )
f.write( str(ee) + "\n" )
f.write( MOL.save_string_xyz() )
f.close()
--------------------------------------------------------------------------

    Molecular point group: c1
  Charge       = 0
  Multiplicity = 1
  Basis Set: 6-31G*
  Basis Set:
  @DF-RHF Final Energy:  -193.11218760542246
    Total Energy =                       -193.1121876054225197
    Molecular point group: c1
  Basis Set: 6-31G*
  Basis Set:
  Basis Set: 6-31G*
  Basis Set:
  @DF-RHF Final Energy:  -193.11255879141035
    Total Energy =                       -193.1125587914103789
  Basis Set: 6-31G*
  Basis Set:
  Basis Set: 6-31G*
  Basis Set:
  @DF-RHF Final Energy:  -193.11274684903560
    Total Energy =                       -193.1127468490356023
  Basis Set: 6-31G*
  Basis Set:
  Basis Set: 6-31G*
  Basis Set:
  @DF-RHF Final Energy:  -193.11274795701371
    Total Energy =                       -193.1127479570137666
  Basis Set: 6-31G*
  Basis Set:
  Charge       = 0
  Multiplicity = 1
  Basis Set: 6-31G*
  Basis Set:

    Orbital Energies (a.u.)
    -----------------------

    Doubly Occupied:

       1A    -20.548445     2A    -11.275449     3A    -11.220769
       4A    -11.206013     5A     -1.357898     6A     -1.042914
       7A     -0.943340     8A     -0.811703     9A     -0.669822
      10A     -0.647304    11A     -0.606935    12A     -0.553302
      13A     -0.545704    14A     -0.518352    15A     -0.513795
      16A     -0.466771    17A     -0.427065

  @DF-RHF Final Energy:  -193.11274805060313

   => Energetics <=

    Nuclear Repulsion Energy =            135.4315327583339297
    One-Electron Energy =                -530.3774008796601720
    Two-Electron Energy =                 201.8331200707231119
    DFT Exchange-Correlation Energy =       0.0000000000000000
    Empirical Dispersion Energy =           0.0000000000000000
    PCM Polarization Energy =               0.0000000000000000
    EFP Energy =                            0.0000000000000000
    Total Energy =                       -193.1127480506031588
    Molecular point group: c1
  Basis Set: 6-31G*
  Basis Set:

  -Total Gradient:
     Atom            X                  Y                   Z
    ------   -----------------  -----------------  -----------------
       1       -0.000164916316    -0.000100436874    -0.000270690431
       2        0.000233236571     0.000140326072     0.000408174591
       3       -0.000175114592    -0.000097373659    -0.000318333655
       4        0.000108792054     0.000058947915     0.000162043556
       5       -0.000005465204     0.000006419491     0.000005657873
       6       -0.000005673072     0.000000592275    -0.000002543696
       7        0.000004194586     0.000002769154     0.000006617970
       8       -0.000000303972    -0.000002882625    -0.000001078046
       9        0.000000365314    -0.000007740445     0.000002667980
      10        0.000005699652     0.000003250384     0.000007887331
      11       -0.000000488939     0.000000093384    -0.000000863270
      12       -0.000000326081    -0.000003965075     0.000000459797

  **** Optimization is complete! (in 5 steps) ****
    Final optimized geometry and variables:
    Molecular point group: c1

    Geometry (in Angstrom), charge = 0, multiplicity = 1:

    H            0.847475164577     1.441654763986    -0.651494817150
    O            0.068162872329     1.322197881039    -0.129682917181
    C            0.001247942007     0.000055313827     0.364067673679
    C            1.197978551843    -0.825879236236    -0.091793069415
    C           -1.323579505881    -0.610638214963    -0.069067749704
    H            0.018941328861     0.060531342985     1.448855915833
    H            1.217059398879    -0.908304002705    -1.175910406521
    H            2.128843106559    -0.370093391006     0.234691945466
    H            1.157503596293    -1.828912658590     0.318954955374
    H           -1.363362975445    -0.704691330464    -1.150006039652
    H           -2.145089406548     0.023705599681     0.243677532428
    H           -1.462514451057    -1.594421611032     0.369843713845

  Mulliken Charges: (a.u.)
   Center  Symbol    Alpha    Beta     Spin     Total
       1     H     0.27937  0.27937  0.00000  0.44127
       2     O     4.38000  4.38000  0.00000 -0.76000
       3     C     2.90396  2.90396  0.00000  0.19208
       4     C     3.26740  3.26740  0.00000 -0.53479
       5     C     3.23864  3.23864  0.00000 -0.47728
       6     H     0.42379  0.42379  0.00000  0.15242
       7     H     0.41904  0.41904  0.00000  0.16192
       8     H     0.41653  0.41653  0.00000  0.16693
       9     H     0.41360  0.41360  0.00000  0.17279
      10     H     0.42130  0.42130  0.00000  0.15740
      11     H     0.41081  0.41081  0.00000  0.17838
      12     H     0.42556  0.42556  0.00000  0.14888

   Total alpha = 17.00000, Total beta = 17.00000, Total charge =  0.00000
