  ==> Input File <==

--------------------------------------------------------------------------
set {
	reference rhf
	basis 6-31G*
}

set_num_threads( 4 )
memory 2 gb

molecule MOL {
0 1

H	 1.136379	 0.211822	 1.465562
C	 1.135357	 0.094285	 0.374742
C	 0.065331	 0.871482	 -0.349150
O	 1.941633	 -0.601957	 -0.151457
C	 0.362165	 2.377340	 -0.391108
H	 -0.886675	 0.668202	 0.127584
H	 0.020013	 0.486187	 -1.366821
C	 0.309800	 3.042321	 0.984930
H	 -0.357991	 2.851878	 -1.050046
H	 1.338902	 2.540738	 -0.841584
H	 -0.669249	 2.920830	 1.437952
H	 0.512141	 4.105537	 0.907812
H	 1.040494	 2.616409	 1.666160

	symmetry c1
}
set optking {
	frozen_dihedral = ("
		6 3 2 4
	")
}

ee = optimize('scf')
oeprop('DIPOLE', 'QUADRUPOLE', 'MULLIKEN_CHARGES')
f=open( 'psi4out.xyz', 'w' )
f.write( "13  " )
f.write( str(ee) + "\n" )
f.write( MOL.save_string_xyz() )
f.close()
--------------------------------------------------------------------------

    Molecular point group: c1
  Charge       = 0
  Multiplicity = 1
  Basis Set: 6-31G*
  Basis Set:
  @DF-RHF Final Energy:  -230.98258662859394
    Total Energy =                       -230.9825866285940492
    Molecular point group: c1
  Basis Set: 6-31G*
  Basis Set:
  Basis Set: 6-31G*
  Basis Set:
  @DF-RHF Final Energy:  -230.98287419888604
    Total Energy =                       -230.9828741988859804
  Basis Set: 6-31G*
  Basis Set:
  Basis Set: 6-31G*
  Basis Set:
  @DF-RHF Final Energy:  -230.98234658727000
    Total Energy =                       -230.9823465872699444
  Basis Set: 6-31G*
  Basis Set:
  Basis Set: 6-31G*
  Basis Set:
  @DF-RHF Final Energy:  -230.98285142158051
    Total Energy =                       -230.9828514215805626
  Basis Set: 6-31G*
  Basis Set:
  Basis Set: 6-31G*
  Basis Set:
  @DF-RHF Final Energy:  -230.98299064885595
    Total Energy =                       -230.9829906488558322
  Basis Set: 6-31G*
  Basis Set:
  Basis Set: 6-31G*
  Basis Set:
  @DF-RHF Final Energy:  -230.98300669967099
    Total Energy =                       -230.9830066996706250
  Basis Set: 6-31G*
  Basis Set:
  Basis Set: 6-31G*
  Basis Set:
  @DF-RHF Final Energy:  -230.98300895596634
    Total Energy =                       -230.9830089559663406
  Basis Set: 6-31G*
  Basis Set:
  Charge       = 0
  Multiplicity = 1
  Basis Set: 6-31G*
  Basis Set:

    Orbital Energies (a.u.)
    -----------------------

    Doubly Occupied:

       1A    -20.562666     2A    -11.326026     3A    -11.239155
       4A    -11.235319     5A    -11.225580     6A     -1.402086
       7A     -1.085406     8A     -0.973612     9A     -0.854562
      10A     -0.780646    11A     -0.679986    12A     -0.646114
      13A     -0.605747    14A     -0.601326    15A     -0.570884
      16A     -0.532498    17A     -0.506923    18A     -0.495077
      19A     -0.481260    20A     -0.408785

  @DF-RHF Final Energy:  -230.98300895615048

   => Energetics <=

    Nuclear Repulsion Energy =            172.9653262650977865
    One-Electron Energy =                -655.4693545832158179
    Two-Electron Energy =                 251.5210193619675749
    DFT Exchange-Correlation Energy =       0.0000000000000000
    Empirical Dispersion Energy =           0.0000000000000000
    PCM Polarization Energy =               0.0000000000000000
    EFP Energy =                            0.0000000000000000
    Total Energy =                       -230.9830089561504280
    Molecular point group: c1
  Basis Set: 6-31G*
  Basis Set:

  -Total Gradient:
     Atom            X                  Y                   Z
    ------   -----------------  -----------------  -----------------
       1       -0.000000409776     0.000004714399    -0.000003110622
       2       -0.000012431097    -0.000019599139    -0.000013039628
       3       -0.000016665994     0.000010080130     0.000028017241
       4        0.000009441021     0.000005067282     0.000003020907
       5        0.000010241288    -0.000004655092    -0.000004846134
       6       -0.000003884327    -0.000006621021    -0.000000985475
       7        0.000006137362    -0.000002102533     0.000000867938
       8       -0.000002236079    -0.000001280607    -0.000005886306
       9        0.000004442087     0.000007777173     0.000003898404
      10        0.000004369287     0.000009454488    -0.000003038493
      11        0.000004950486    -0.000008221009    -0.000001294556
      12       -0.000004013157     0.000001138835    -0.000002124213
      13        0.000000058899     0.000004247097    -0.000001479063

  **** Optimization is complete! (in 8 steps) ****
    Final optimized geometry and variables:
    Molecular point group: c1

    Geometry (in Angstrom), charge = 0, multiplicity = 1:

    H            0.377958200840    -0.958046035008     1.361091190315
    C            0.358866455105    -1.075517178577     0.272848426762
    C           -0.691061103018    -0.282056063307    -0.464139245674
    O            1.144304691650    -1.792232382213    -0.259594720465
    C           -0.396749165687     1.229374650810    -0.481554627169
    H           -1.654725602794    -0.456756603521     0.010790298500
    H           -0.735952971728    -0.663865913905    -1.477085360054
    C           -0.461108636515     1.906118259366     0.889390678533
    H           -1.119302026872     1.698754888851    -1.141798973108
    H            0.579286256271     1.394844724864    -0.929043672415
    H           -1.426567304572     1.745631771847     1.360820706249
    H           -0.315790785325     2.976778624584     0.791604043144
    H            0.303899024375     1.537302135292     1.565211379316

  Mulliken Charges: (a.u.)
   Center  Symbol    Alpha    Beta     Spin     Total
       1     H     0.42974  0.42974  0.00000  0.14051
       2     C     2.83409  2.83409  0.00000  0.33182
       3     C     3.20661  3.20661  0.00000 -0.41323
       4     O     4.23699  4.23699  0.00000 -0.47397
       5     C     3.16313  3.16313  0.00000 -0.32627
       6     H     0.41310  0.41310  0.00000  0.17380
       7     H     0.39839  0.39839  0.00000  0.20323
       8     C     3.24515  3.24515  0.00000 -0.49030
       9     H     0.41180  0.41180  0.00000  0.17641
      10     H     0.41044  0.41044  0.00000  0.17912
      11     H     0.41904  0.41904  0.00000  0.16191
      12     H     0.41301  0.41301  0.00000  0.17398
      13     H     0.41851  0.41851  0.00000  0.16297

   Total alpha = 20.00000, Total beta = 20.00000, Total charge = -0.00000
