                              Psi4 1.0.54 Driver

  ==> Input File <==

--------------------------------------------------------------------------
set {
	reference rhf
	basis cc-pvtz
}

set_num_threads( 4 )
memory 2 gb

molecule MOL {
0 1

H	 -0.623130	 2.579853	 -2.819305
O	 -1.091920	 1.834949	 -2.490285
C	 -0.600709	 1.471607	 -1.230589
C	 0.753933	 0.799428	 -1.335059
H	 -0.531684	 2.327804	 -0.567044
H	 -1.312711	 0.781247	 -0.801475
O	 1.172093	 0.457955	 -0.054438
H	 1.470197	 1.476458	 -1.803559
H	 0.674787	 -0.081272	 -1.968841
C	 2.395478	 -0.199028	 -0.000366
H	 2.505946	 -0.901710	 -0.823354
H	 3.174616	 0.545641	 -0.071768
H	 2.513730	 -0.742241	 0.934223

	symmetry c1
}
set optking {
	frozen_dihedral = ("
		4 7 10 13
	")
}

ee,wfn = optimize('scf', return_wfn=True)
oeprop( wfn, 'DIPOLE', 'QUADRUPOLE', 'MULLIKEN_CHARGES')
f=open( 'psi4out.xyz', 'w' )
f.write( "13  " )
f.write( str(ee) + "\n" )
f.write( MOL.save_string_xyz() )
f.close()
--------------------------------------------------------------------------

    Molecular point group: c1
  Charge       = 0
  Multiplicity = 1
  Basis Set: CC-PVTZ
  Basis Set:
  @DF-RHF Final Energy:  -268.06045456712934
    Total Energy =                       -268.0604545671294545
    Molecular point group: c1
  Basis Set: CC-PVTZ
  Basis Set:
  Basis Set: CC-PVTZ
  Basis Set:
  @DF-RHF Final Energy:  -268.06125275131581
    Total Energy =                       -268.0612527513159762
  Basis Set: CC-PVTZ
  Basis Set:
  Basis Set: CC-PVTZ
  Basis Set:
  @DF-RHF Final Energy:  -268.06143954925494
    Total Energy =                       -268.0614395492548852
  Basis Set: CC-PVTZ
  Basis Set:
  Charge       = 0
  Multiplicity = 1
  Basis Set: CC-PVTZ
  Basis Set:

    Orbital Energies (a.u.)
    -----------------------

    Doubly Occupied:

       1A    -20.555258     2A    -20.552802     3A    -11.269431
       4A    -11.267657     5A    -11.267360     6A     -1.391060
       7A     -1.369090     8A     -1.019712     9A     -0.914064
      10A     -0.842781    11A     -0.712018    12A     -0.675745
      13A     -0.662358    14A     -0.639578    15A     -0.597235
      16A     -0.572212    17A     -0.546794    18A     -0.491984
      19A     -0.482589    20A     -0.441590    21A     -0.423724

  @DF-RHF Final Energy:  -268.06144007157138

   => Energetics <=

    Nuclear Repulsion Energy =            190.4311404698216563
    One-Electron Energy =                -743.5950727268539140
    Two-Electron Energy =                 285.1024921854608465
    DFT Exchange-Correlation Energy =       0.0000000000000000
    Empirical Dispersion Energy =           0.0000000000000000
    PCM Polarization Energy =               0.0000000000000000
    EFP Energy =                            0.0000000000000000
    Total Energy =                       -268.0614400715713828
    Molecular point group: c1
  Basis Set: CC-PVTZ
  Basis Set:

  -Total Gradient:
     Atom            X                  Y                   Z
    ------   -----------------  -----------------  -----------------
       1        0.000001185036     0.000006545241    -0.000009091754
       2        0.000069476409    -0.000013565194     0.000034901295
       3       -0.000021156718    -0.000021014503     0.000077879644
       4       -0.000892370573    -0.001784832279    -0.000240342644
       5       -0.000013955899     0.000021285795    -0.000006645552
       6        0.000003837113    -0.000002279219     0.000007517648
       7        0.001079105738     0.001985129545     0.000003297926
       8        0.000011962153    -0.000003680833     0.000046933844
       9       -0.000000228582    -0.000001611168    -0.000019654282
      10        0.000856504123     0.001687448736     0.001058391224
      11       -0.000029809399     0.000005165590    -0.000009780866
      12       -0.000015250804     0.000016677311     0.000006068749
      13       -0.001049298592    -0.001895269023    -0.000949475233

  **** Optimization is complete! (in 4 steps) ****
    Final optimized geometry and variables:
    Molecular point group: c1

    Geometry (in Angstrom), charge = 0, multiplicity = 1:

    H           -1.158200599038     1.678723626611    -1.781629346883
    O           -1.630551729408     0.946351228827    -1.430273999167
    C           -1.118284101864     0.597332533043    -0.174915159648
    C            0.224758530295    -0.094804766754    -0.296361546983
    H           -1.024779440152     1.463396478914     0.472604988996
    H           -1.829796563103    -0.076710487314     0.280235899641
    O            0.659327555044    -0.428373964779     0.980998959211
    H            0.940002319252     0.567842483883    -0.787031650984
    H            0.122392508799    -0.981962087513    -0.916895602863
    C            1.880268897478    -1.092793181156     1.033533994970
    H            1.957863784270    -1.840568093726     0.248257912623
    H            2.713807365128    -0.402228862504     0.935065092819
    H            1.943759335640    -1.600978952893     1.985012413216

  Mulliken Charges: (a.u.)
   Center  Symbol    Alpha    Beta     Spin     Total
       1     H     0.39417  0.39417  0.00000  0.21167
       2     O     4.20209  4.20209  0.00000 -0.40418
       3     C     2.97385  2.97385  0.00000  0.05231
       4     C     2.96533  2.96533  0.00000  0.06933
       5     H     0.46658  0.46658  0.00000  0.06685
       6     H     0.45284  0.45284  0.00000  0.09431
       7     O     4.17668  4.17668  0.00000 -0.35336
       8     H     0.48311  0.48311  0.00000  0.03379
       9     H     0.46813  0.46813  0.00000  0.06374
      10     C     3.03078  3.03078  0.00000 -0.06157
      11     H     0.47258  0.47258  0.00000  0.05484
      12     H     0.46643  0.46643  0.00000  0.06715
      13     H     0.44743  0.44743  0.00000  0.10513

   Total alpha = 21.00000, Total beta = 21.00000, Total charge = -0.00000

*** Psi4 exiting successfully. Buy a developer a beer!
