                              Psi4 1.0.54 Driver

  ==> Input File <==

--------------------------------------------------------------------------
set {
	reference rhf
	basis cc-pvtz
}

set_num_threads( 4 )
memory 2 gb

molecule MOL {
0 1

O	 -0.616166	 -0.033383	 0.383406
C	 0.485107	 0.171416	 -0.000134
C	 1.606966	 -0.836201	 0.000174
O	 0.881807	 1.333644	 -0.488437
C	 2.988788	 -0.202529	 -0.000115
H	 1.465110	 -1.474645	 -0.864821
H	 1.465209	 -1.474077	 0.865596
H	 3.131767	 0.419673	 -0.873407
H	 3.750876	 -0.972315	 0.000098
H	 3.131883	 0.420264	 0.872742
C	 -0.070696	 2.385762	 -0.552258
C	 0.617349	 3.596552	 -1.137979
H	 -0.444659	 2.584181	 0.442291
H	 -0.905409	 2.069873	 -1.162006
H	 1.451737	 3.902947	 -0.519683
H	 -0.083544	 4.420587	 -1.200806
H	 0.988309	 3.385756	 -2.133129

	symmetry c1
}
set optking {
	frozen_dihedral = ("
		4 2 3 6
	")
}

ee,wfn = optimize('scf', return_wfn=True)
oeprop( wfn, 'DIPOLE', 'QUADRUPOLE', 'MULLIKEN_CHARGES')
f=open( 'psi4out.xyz', 'w' )
f.write( "17  " )
f.write( str(ee) + "\n" )
f.write( MOL.save_string_xyz() )
f.close()
--------------------------------------------------------------------------

    Molecular point group: c1
  Charge       = 0
  Multiplicity = 1
  Basis Set: CC-PVTZ
  Basis Set:
  @DF-RHF Final Energy:  -345.03726335640317
    Total Energy =                       -345.0372633564032867
    Molecular point group: c1
  Basis Set: CC-PVTZ
  Basis Set:
  Basis Set: CC-PVTZ
  Basis Set:
  @DF-RHF Final Energy:  -345.03738071336113
    Total Energy =                       -345.0373807133611876
  Basis Set: CC-PVTZ
  Basis Set:
  Basis Set: CC-PVTZ
  Basis Set:
  @DF-RHF Final Energy:  -345.03822710955001
    Total Energy =                       -345.0382271095497799
  Basis Set: CC-PVTZ
  Basis Set:
  Basis Set: CC-PVTZ
  Basis Set:
  @DF-RHF Final Energy:  -345.03809453193622
    Total Energy =                       -345.0380945319361103
  Basis Set: CC-PVTZ
  Basis Set:
  Basis Set: CC-PVTZ
  Basis Set:
  @DF-RHF Final Energy:  -345.03828719468902
    Total Energy =                       -345.0382871946885643
  Basis Set: CC-PVTZ
  Basis Set:
  Charge       = 0
  Multiplicity = 1
  Basis Set: CC-PVTZ
  Basis Set:

    Orbital Energies (a.u.)
    -----------------------

    Doubly Occupied:

       1A    -20.595937     2A    -20.528876     3A    -11.363626
       4A    -11.283365     5A    -11.235995     6A    -11.221166
       7A    -11.219331     8A     -1.471340     9A     -1.363201
      10A     -1.073082    11A     -1.031203    12A     -0.906592
      13A     -0.861408    14A     -0.780299    15A     -0.693367
      16A     -0.680085    17A     -0.675457    18A     -0.629274
      19A     -0.579549    20A     -0.573778    21A     -0.553919
      22A     -0.550037    23A     -0.523864    24A     -0.514482
      25A     -0.507396    26A     -0.491661    27A     -0.454653
      28A     -0.433985

  @DF-RHF Final Energy:  -345.03828768425899

   => Energetics <=

    Nuclear Repulsion Energy =            318.0120650964983042
    One-Electron Energy =               -1100.5068447301305241
    Two-Electron Energy =                 437.4564919493731168
    DFT Exchange-Correlation Energy =       0.0000000000000000
    Empirical Dispersion Energy =           0.0000000000000000
    PCM Polarization Energy =               0.0000000000000000
    EFP Energy =                            0.0000000000000000
    Total Energy =                       -345.0382876842591031
    Molecular point group: c1
  Basis Set: CC-PVTZ
  Basis Set:

  -Total Gradient:
     Atom            X                  Y                   Z
    ------   -----------------  -----------------  -----------------
       1        0.000028993856     0.000009717800    -0.000017756581
       2       -0.000352684105    -0.000334152048    -0.000489940391
       3        0.000458556693     0.000543521237    -0.000322084047
       4        0.000182769055     0.000247809579     0.000446699613
       5       -0.000029306647    -0.000037148037     0.000029781870
       6       -0.000293548541    -0.000383788330     0.000376811325
       7        0.000032454296    -0.000010543189    -0.000002766608
       8       -0.000026738529    -0.000007321580    -0.000001208863
       9        0.000011796588    -0.000006722993    -0.000004509822
      10       -0.000012171265    -0.000001285777    -0.000000687894
      11        0.000004628706    -0.000047961781    -0.000061035524
      12       -0.000001402032     0.000000759317     0.000016191278
      13       -0.000005660066     0.000015279681     0.000018163167
      14        0.000003504706     0.000021049574     0.000003205664
      15        0.000005333874     0.000003002619     0.000002404785
      16       -0.000002809869    -0.000001702065     0.000004085561
      17       -0.000003716722    -0.000010514003     0.000002646466

  **** Optimization is complete! (in 6 steps) ****
    Final optimized geometry and variables:
    Molecular point group: c1

    Geometry (in Angstrom), charge = 0, multiplicity = 1:

    O           -1.361064712749    -0.969897917869     0.779247281563
    C           -0.296888846950    -0.733717956320     0.314810238947
    C            0.830397016873    -1.739367986115     0.275047824101
    O            0.010474833583     0.422930543401    -0.240213627425
    C            2.238913380489    -1.175075748071     0.141147415606
    H            0.606571130544    -2.402646644514    -0.555027982801
    H            0.730062877538    -2.337193448290     1.170604691292
    H            2.361182568785    -0.627213427243    -0.782533377272
    H            2.959398295625    -1.983734224984     0.154680430155
    H            2.473795677972    -0.505069522712     0.959136403207
    C           -0.997097675276     1.424492008062    -0.283088481205
    C           -0.408794172256     2.643212051107    -0.954547076295
    H           -1.319348814923     1.642532674220     0.725100629924
    H           -1.849549491646     1.043212172755    -0.827053098444
    H            0.444673731127     3.014821240980    -0.401463073314
    H           -1.153899776582     3.428478749416    -1.003012293003
    H           -0.089079780520     2.412162478382    -1.962930033181

  Mulliken Charges: (a.u.)
   Center  Symbol    Alpha    Beta     Spin     Total
       1     O     4.20312  4.20312  0.00000 -0.40624
       2     C     2.81153  2.81153  0.00000  0.37695
       3     C     3.08861  3.08861  0.00000 -0.17723
       4     O     4.14846  4.14846  0.00000 -0.29691
       5     C     3.14241  3.14241  0.00000 -0.28482
       6     H     0.44451  0.44451  0.00000  0.11099
       7     H     0.43599  0.43599  0.00000  0.12801
       8     H     0.44800  0.44800  0.00000  0.10399
       9     H     0.44910  0.44910  0.00000  0.10181
      10     H     0.45162  0.45162  0.00000  0.09676
      11     C     2.97916  2.97916  0.00000  0.04168
      12     C     3.13384  3.13384  0.00000 -0.26767
      13     H     0.45359  0.45359  0.00000  0.09282
      14     H     0.45355  0.45355  0.00000  0.09290
      15     H     0.45124  0.45124  0.00000  0.09753
      16     H     0.45369  0.45369  0.00000  0.09262
      17     H     0.45159  0.45159  0.00000  0.09682

   Total alpha = 28.00000, Total beta = 28.00000, Total charge = -0.00000

*** Psi4 exiting successfully. Buy a developer a beer!
