  ==> Input File <==

--------------------------------------------------------------------------
set {
	reference rhf
	basis 6-31G*
}

set_num_threads( 1 )
memory 2 gb

molecule MOL {
0 1

H	 -3.420663	 1.227371	 -1.044276
O	 -3.452007	 0.283848	 -0.965577
C	 -3.181085	 -0.079926	 0.364119
C	 -1.765924	 0.277073	 0.805136
H	 -3.327791	 -1.152017	 0.410903
H	 -3.905698	 0.375695	 1.036898
C	 -0.677594	 -0.417312	 -0.014550
H	 -1.637766	 1.358238	 0.744969
H	 -1.659588	 0.017670	 1.857098
C	 0.738335	 -0.034840	 0.421385
H	 -0.814977	 -0.178223	 -1.064632
H	 -0.802730	 -1.495410	 0.071702
C	 1.822126	 -0.773636	 -0.368337
H	 0.864591	 1.039430	 0.309931
H	 0.860571	 -0.248118	 1.482599
C	 3.256782	 -0.490531	 0.091847
H	 1.729173	 -0.526071	 -1.424636
H	 1.640161	 -1.843583	 -0.291405
C	 3.723329	 0.949426	 -0.130102
H	 3.927658	 -1.159792	 -0.441356
H	 3.352646	 -0.742739	 1.146079
H	 3.626920	 1.233987	 -1.174549
H	 4.766770	 1.063675	 0.147417
H	 3.151140	 1.657668	 0.459946

	symmetry c1
}
set optking {
	frozen_dihedral = ("
		20 16 13 17,
		17 13 10 7,
		11 7 4 3,
		1 2 3 5,
		7 4 3 2
	")
}

ee = energy('scf')
oeprop('DIPOLE', 'QUADRUPOLE', 'MULLIKEN_CHARGES')
f=open( 'psi4out.xyz', 'w' )
f.write( "24  " )
f.write( str(ee) + "\n" )
f.write( MOL.save_string_xyz() )
f.close()
--------------------------------------------------------------------------

    Molecular point group: c1

    Geometry (in Angstrom), charge = 0, multiplicity = 1:

       Center              X                  Y                   Z               Mass
    ------------   -----------------  -----------------  -----------------  -----------------
           H         -3.422323608496     1.241702143805    -1.051456205001     1.007825032070
           O         -3.453667608496     0.298179143805    -0.972757205001    15.994914619560
           C         -3.182745608496    -0.065594856195     0.356938794999    12.000000000000
           C         -1.767584608496     0.291404143805     0.797955794999    12.000000000000
           H         -3.329451608496    -1.137685856195     0.403722794999     1.007825032070
           H         -3.907358608496     0.390026143805     1.029717794999     1.007825032070
           C         -0.679254608496    -0.402980856195    -0.021730205001    12.000000000000
           H         -1.639426608496     1.372569143805     0.737788794999     1.007825032070
           H         -1.661248608496     0.032001143805     1.849917794999     1.007825032070
           C          0.736674391504    -0.020508856195     0.414204794999    12.000000000000
           H         -0.816637608496    -0.163891856195    -1.071812205001     1.007825032070
           H         -0.804390608496    -1.481078856195     0.064521794999     1.007825032070
           C          1.820465391504    -0.759304856195    -0.375517205001    12.000000000000
           H          0.862930391504     1.053761143805     0.302750794999     1.007825032070
           H          0.858910391504    -0.233786856195     1.475418794999     1.007825032070
           C          3.255121391504    -0.476199856195     0.084666794999    12.000000000000
           H          1.727512391504    -0.511739856195    -1.431816205001     1.007825032070
           H          1.638500391504    -1.829251856195    -0.298585205001     1.007825032070
           C          3.721668391504     0.963757143805    -0.137282205001    12.000000000000
           H          3.925997391504    -1.145460856195    -0.448536205001     1.007825032070
           H          3.350985391504    -0.728407856195     1.138898794999     1.007825032070
           H          3.625259391504     1.248318143805    -1.181729205001     1.007825032070
           H          4.765109391504     1.078006143805     0.140236794999     1.007825032070
           H          3.149479391504     1.671999143805     0.452765794999     1.007825032070

  Charge       = 0
  Multiplicity = 1
  Basis Set: 6-31G*
  Basis Set:

    Orbital Energies (a.u.)
    -----------------------

    Doubly Occupied:

       1A    -20.553565     2A    -11.267726     3A    -11.217481
       4A    -11.214088     5A    -11.212460     6A    -11.211603
       7A    -11.211121     8A    -11.207386     9A     -1.360161
      10A     -1.088568    11A     -1.048317    12A     -0.985650
      13A     -0.915011    14A     -0.850463    15A     -0.800762
      16A     -0.776264    17A     -0.679050    18A     -0.653912
      19A     -0.625177    20A     -0.619885    21A     -0.596677
      22A     -0.584390    23A     -0.558176    24A     -0.540464
      25A     -0.514915    26A     -0.509344    27A     -0.499020
      28A     -0.473048    29A     -0.467451    30A     -0.459720
      31A     -0.455120    32A     -0.450852    33A     -0.419065

  @DF-RHF Final Energy:  -349.24761538999087

   => Energetics <=

    Nuclear Repulsion Energy =            384.4367754217544189
    One-Electron Energy =               -1235.3148327002900260
    Two-Electron Energy =                 501.6304418885449650
    DFT Exchange-Correlation Energy =       0.0000000000000000
    Empirical Dispersion Energy =           0.0000000000000000
    PCM Polarization Energy =               0.0000000000000000
    EFP Energy =                            0.0000000000000000
    Total Energy =                       -349.2476153899906421

  Mulliken Charges: (a.u.)
   Center  Symbol    Alpha    Beta     Spin     Total
       1     H     0.28339  0.28339  0.00000  0.43323
       2     O     4.36830  4.36830  0.00000 -0.73660
       3     C     2.99616  2.99616  0.00000  0.00768
       4     C     3.16901  3.16901  0.00000 -0.33802
       5     H     0.41632  0.41632  0.00000  0.16737
       6     H     0.42817  0.42817  0.00000  0.14366
       7     C     3.15177  3.15177  0.00000 -0.30353
       8     H     0.42834  0.42834  0.00000  0.14333
       9     H     0.42235  0.42235  0.00000  0.15530
      10     C     3.15361  3.15361  0.00000 -0.30722
      11     H     0.41201  0.41201  0.00000  0.17599
      12     H     0.42367  0.42367  0.00000  0.15266
      13     C     3.15225  3.15225  0.00000 -0.30449
      14     H     0.42285  0.42285  0.00000  0.15431
      15     H     0.42555  0.42555  0.00000  0.14890
      16     C     3.15230  3.15230  0.00000 -0.30460
      17     H     0.42361  0.42361  0.00000  0.15278
      18     H     0.42209  0.42209  0.00000  0.15581
      19     C     3.24104  3.24104  0.00000 -0.48208
      20     H     0.42106  0.42106  0.00000  0.15787
      21     H     0.42378  0.42378  0.00000  0.15244
      22     H     0.42227  0.42227  0.00000  0.15546
      23     H     0.41954  0.41954  0.00000  0.16092
      24     H     0.42058  0.42058  0.00000  0.15883

   Total alpha = 33.00000, Total beta = 33.00000, Total charge = -0.00000
