  ==> Input File <==

--------------------------------------------------------------------------
set {
	reference rhf
	basis 6-31G*
}

set_num_threads( 4 )
memory 2 gb

molecule MOL {
0 1

O	 -1.487788	 1.240889	 -0.102860
C	 -1.083277	 0.139568	 0.115197
C	 0.323299	 -0.082943	 0.642902
C	 -1.933017	 -1.084621	 -0.143902
C	 1.355627	 -0.005344	 -0.493127
H	 0.396251	 -1.044647	 1.143147
H	 0.528637	 0.693580	 1.371677
C	 1.486426	 1.405306	 -1.064270
H	 2.325565	 -0.339334	 -0.131266
H	 1.060177	 -0.695803	 -1.276144
H	 2.215698	 1.432609	 -1.867456
H	 1.805223	 2.110968	 -0.302539
H	 0.538989	 1.753917	 -1.464119
H	 -1.393885	 -1.806447	 -0.750509
H	 -2.850323	 -0.799888	 -0.640100
H	 -2.169004	 -1.571158	 0.798858

	symmetry c1
}
set optking {
	frozen_dihedral = ("
		9 5 3 2
	")
}

ee = optimize('scf')
oeprop('DIPOLE', 'QUADRUPOLE', 'MULLIKEN_CHARGES')
f=open( 'psi4out.xyz', 'w' )
f.write( "16  " )
f.write( str(ee) + "\n" )
f.write( MOL.save_string_xyz() )
f.close()
--------------------------------------------------------------------------

    Molecular point group: c1
  Charge       = 0
  Multiplicity = 1
  Basis Set: 6-31G*
  Basis Set:
  @DF-RHF Final Energy:  -270.02861562204885
    Total Energy =                       -270.0286156220486760
    Molecular point group: c1
  Basis Set: 6-31G*
  Basis Set:
  Basis Set: 6-31G*
  Basis Set:
  @DF-RHF Final Energy:  -270.02921262648658
    Total Energy =                       -270.0292126264864692
  Basis Set: 6-31G*
  Basis Set:
  Basis Set: 6-31G*
  Basis Set:
  @DF-RHF Final Energy:  -270.02928617083114
    Total Energy =                       -270.0292861708312557
  Basis Set: 6-31G*
  Basis Set:
  Basis Set: 6-31G*
  Basis Set:
  @DF-RHF Final Energy:  -270.02909005822988
    Total Energy =                       -270.0290900582297695
  Basis Set: 6-31G*
  Basis Set:
  @DF-RHF Final Energy:  -270.02949158083175
    Total Energy =                       -270.0294915808318592
  Basis Set: 6-31G*
  Basis Set:
  @DF-RHF Final Energy:  -270.02950658305173
    Total Energy =                       -270.0295065830514432
  Basis Set: 6-31G*
  Basis Set:
  Basis Set: 6-31G*
  Basis Set:
  @DF-RHF Final Energy:  -270.02951056671907
    Total Energy =                       -270.0295105667191251
  Basis Set: 6-31G*
  Basis Set:
  Basis Set: 6-31G*
  Basis Set:
  @DF-RHF Final Energy:  -270.02951159360373
    Total Energy =                       -270.0295115936041839
  Basis Set: 6-31G*
  Basis Set:
  Charge       = 0
  Multiplicity = 1
  Basis Set: 6-31G*
  Basis Set:

    Orbital Energies (a.u.)
    -----------------------

    Doubly Occupied:

       1A    -20.548980     2A    -11.325198     3A    -11.234818
       4A    -11.230397     5A    -11.228542     6A    -11.212258
       7A     -1.394150     8A     -1.081606     9A     -1.011065
      10A     -0.947455    11A     -0.831927    12A     -0.731977
      13A     -0.656465    14A     -0.645367    15A     -0.619141
      16A     -0.593625    17A     -0.585424    18A     -0.561227
      19A     -0.536997    20A     -0.507420    21A     -0.500051
      22A     -0.486879    23A     -0.471382    24A     -0.397802

  @DF-RHF Final Energy:  -270.02951198728124

   => Energetics <=

    Nuclear Repulsion Energy =            241.5106209995142308
    One-Electron Energy =                -844.3999565062408692
    Two-Electron Energy =                 332.8598235194454560
    DFT Exchange-Correlation Energy =       0.0000000000000000
    Empirical Dispersion Energy =           0.0000000000000000
    PCM Polarization Energy =               0.0000000000000000
    EFP Energy =                            0.0000000000000000
    Total Energy =                       -270.0295119872811824
    Molecular point group: c1
  Basis Set: 6-31G*
  Basis Set:

  -Total Gradient:
     Atom            X                  Y                   Z
    ------   -----------------  -----------------  -----------------
       1       -0.000001050910    -0.000007393769     0.000033803975
       2       -0.000035635706    -0.000356414385    -0.000125437830
       3        0.000043376462     0.000397837986    -0.000009510882
       4       -0.000021616222    -0.000010652523     0.000038549038
       5        0.000120432494     0.000460969579     0.000143282116
       6       -0.000002284768     0.000001855025     0.000008540019
       7        0.000012124644     0.000003771106     0.000011013966
       8       -0.000031404135     0.000017421697    -0.000017076057
       9       -0.000117947984    -0.000479578785    -0.000101639338
      10       -0.000004199950    -0.000002843631     0.000004183138
      11        0.000012187598    -0.000009952615     0.000000575440
      12        0.000005285209    -0.000003297314     0.000008208389
      13        0.000011778524    -0.000012526779     0.000010480331
      14        0.000006739002     0.000006603395    -0.000003114121
      15        0.000001325791     0.000007603679     0.000001171979
      16        0.000000889955    -0.000013402667    -0.000003030164

  **** Optimization is complete! (in 9 steps) ****
    Final optimized geometry and variables:
    Molecular point group: c1

    Geometry (in Angstrom), charge = 0, multiplicity = 1:

    O           -1.364745894563     0.963733922634     0.335465768146
    C           -0.861833672672    -0.118751294806     0.353538453276
    C            0.567660648601    -0.320646028658     0.822665227712
    C           -1.624287368923    -1.348659052460    -0.092641761061
    C            1.576838487308    -0.300363374595    -0.341650726835
    H            0.644838986279    -1.270927699703     1.344123273392
    H            0.801489154474     0.471232378401     1.524927101358
    C            1.727838993303     1.070490023186    -1.000572812222
    H            2.538581565321    -0.625254632891     0.043852288406
    H            1.290547703986    -1.037326858085    -1.088462993887
    H            2.456744280553     1.028685567406    -1.803818388321
    H            2.065941852670     1.810027151408    -0.281376446437
    H            0.790608906187     1.423069966926    -1.415139977501
    H           -1.035109310630    -1.955363207836    -0.772756747043
    H           -2.548887992692    -1.054157650519    -0.569302485816
    H           -1.850696808406    -1.964826856392     0.773708779889

  Mulliken Charges: (a.u.)
   Center  Symbol    Alpha    Beta     Spin     Total
       1     O     4.26103  4.26103  0.00000 -0.52206
       2     C     2.73774  2.73774  0.00000  0.52452
       3     C     3.20151  3.20151  0.00000 -0.40302
       4     C     3.28934  3.28934  0.00000 -0.57868
       5     C     3.16335  3.16335  0.00000 -0.32670
       6     H     0.41471  0.41471  0.00000  0.17058
       7     H     0.40047  0.40047  0.00000  0.19906
       8     C     3.24053  3.24053  0.00000 -0.48107
       9     H     0.41333  0.41333  0.00000  0.17334
      10     H     0.41980  0.41980  0.00000  0.16040
      11     H     0.41922  0.41922  0.00000  0.16157
      12     H     0.41751  0.41751  0.00000  0.16498
      13     H     0.40863  0.40863  0.00000  0.18274
      14     H     0.40986  0.40986  0.00000  0.18028
      15     H     0.39683  0.39683  0.00000  0.20634
      16     H     0.40614  0.40614  0.00000  0.18772

   Total alpha = 24.00000, Total beta = 24.00000, Total charge = -0.00000
