                              Psi4 1.0.54 Driver

  ==> Input File <==

--------------------------------------------------------------------------
set {
	reference rhf
	basis cc-pvtz
}

set_num_threads( 4 )
memory 2 gb

molecule MOL {
0 1

H	 -4.038953	 0.699690	 -0.532766
C	 -3.345491	 0.095865	 0.015700
C	 -2.105997	 -0.000418	 -0.398703
H	 -3.685878	 -0.414885	 0.894944
O	 -1.189946	 -0.765863	 0.237511
H	 -1.752120	 0.513824	 -1.273605
C	 0.026572	 -0.995256	 -0.379403
C	 1.057223	 0.049888	 -0.004615
H	 -0.054361	 -1.010670	 -1.459674
H	 0.397526	 -1.952058	 -0.044198
F	 2.203233	 -0.234060	 -0.590375
F	 0.698147	 1.254887	 -0.392621
F	 1.266440	 0.094219	 1.288722

	symmetry c1
}
set optking {
	frozen_dihedral = ("
		6 3 5 7
	")
}

ee,wfn = optimize('scf', return_wfn=True)
oeprop( wfn, 'DIPOLE', 'QUADRUPOLE', 'MULLIKEN_CHARGES')
f=open( 'psi4out.xyz', 'w' )
f.write( "13  " )
f.write( str(ee) + "\n" )
f.write( MOL.save_string_xyz() )
f.close()
--------------------------------------------------------------------------

    Molecular point group: c1
  Charge       = 0
  Multiplicity = 1
  Basis Set: CC-PVTZ
  Basis Set:
  @DF-RHF Final Energy:  -527.74187621734518
    Total Energy =                       -527.7418762173450659
    Molecular point group: c1
  Basis Set: CC-PVTZ
  Basis Set:
  Basis Set: CC-PVTZ
  Basis Set:
  @DF-RHF Final Energy:  -527.74187919581505
    Total Energy =                       -527.7418791958154998
  Basis Set: CC-PVTZ
  Basis Set:
  Basis Set: CC-PVTZ
  Basis Set:
  @DF-RHF Final Energy:  -527.74197101964535
    Total Energy =                       -527.7419710196454616
  Basis Set: CC-PVTZ
  Basis Set:
  Basis Set: CC-PVTZ
  Basis Set:
  @DF-RHF Final Energy:  -527.74197500074683
    Total Energy =                       -527.7419750007469474
  Basis Set: CC-PVTZ
  Basis Set:
  Basis Set: CC-PVTZ
  Basis Set:
  @DF-RHF Final Energy:  -527.74197717274910
    Total Energy =                       -527.7419771727488751
  Basis Set: CC-PVTZ
  Basis Set:
  Charge       = 0
  Multiplicity = 1
  Basis Set: CC-PVTZ
  Basis Set:

    Orbital Energies (a.u.)
    -----------------------

    Doubly Occupied:

       1A    -26.342155     2A    -26.341093     3A    -26.338257
       4A    -20.603499     5A    -11.498096     6A    -11.319974
       7A    -11.298611     8A    -11.214637     9A     -1.750776
      10A     -1.647354    11A     -1.645656    12A     -1.444030
      13A     -1.088465    14A     -1.020661    15A     -0.932489
      16A     -0.844062    17A     -0.839988    18A     -0.827614
      19A     -0.796709    20A     -0.730654    21A     -0.719483
      22A     -0.705952    23A     -0.681889    24A     -0.667716
      25A     -0.661802    26A     -0.651292    27A     -0.637222
      28A     -0.591356    29A     -0.566992    30A     -0.532159
      31A     -0.513473    32A     -0.357445

  @DF-RHF Final Energy:  -527.74197732863854

   => Energetics <=

    Nuclear Repulsion Energy =            412.6690696793156690
    One-Electron Energy =               -1549.1989846863114053
    Two-Electron Energy =                 608.7879376783572525
    DFT Exchange-Correlation Energy =       0.0000000000000000
    Empirical Dispersion Energy =           0.0000000000000000
    PCM Polarization Energy =               0.0000000000000000
    EFP Energy =                            0.0000000000000000
    Total Energy =                       -527.7419773286384270
    Molecular point group: c1
  Basis Set: CC-PVTZ
  Basis Set:

  -Total Gradient:
     Atom            X                  Y                   Z
    ------   -----------------  -----------------  -----------------
       1        0.000004856117    -0.000000299571    -0.000002626573
       2       -0.000007094204    -0.000003985794     0.000000702860
       3       -0.000216594043    -0.000540118226    -0.000363129325
       4        0.000009050144     0.000000203431    -0.000000526604
       5        0.000216170717     0.000517241541     0.000300812474
       6        0.000107174768     0.000321512593     0.000215606184
       7       -0.000072588074    -0.000284418770    -0.000147133510
       8        0.000048180884     0.000003062988    -0.000005245496
       9        0.000003475710     0.000002757762     0.000007354724
      10       -0.000007871571    -0.000008673345    -0.000004864590
      11       -0.000036772572    -0.000010388434     0.000030345413
      12       -0.000051753602     0.000041588683    -0.000038390222
      13        0.000003765723    -0.000038482859     0.000007094663

  **** Optimization is complete! (in 6 steps) ****
    Final optimized geometry and variables:
    Molecular point group: c1

    Geometry (in Angstrom), charge = 0, multiplicity = 1:

    H           -4.039684987881     0.721332593460    -0.520357155222
    C           -3.339674145251     0.125192057977     0.028272261328
    C           -2.110610816657     0.005582782005    -0.411048033922
    H           -3.662469193090    -0.351895106728     0.932763173391
    O           -1.178575730133    -0.720652543961     0.248027338122
    H           -1.773386226948     0.489323513124    -1.309168129903
    C            0.035992113962    -0.956845812236    -0.372029167996
    C            1.072716253419     0.076645392601     0.017018073211
    H           -0.043842129692    -0.960150860419    -1.452089092709
    H            0.399348259153    -1.920451751117    -0.047510011099
    F            2.215956537005    -0.201609356540    -0.576155947069
    F            0.717094767963     1.289948515371    -0.349877805203
    F            1.285278793870     0.098999860561     1.310349162615

  Mulliken Charges: (a.u.)
   Center  Symbol    Alpha    Beta     Spin     Total
       1     H     0.42521  0.42521  0.00000  0.14958
       2     C     3.19743  3.19743  0.00000 -0.39487
       3     C     2.96035  2.96035  0.00000  0.07931
       4     H     0.42473  0.42473  0.00000  0.15055
       5     O     4.14519  4.14519  0.00000 -0.29037
       6     H     0.43285  0.43285  0.00000  0.13430
       7     C     3.01809  3.01809  0.00000 -0.03618
       8     C     2.67520  2.67520  0.00000  0.64960
       9     H     0.45571  0.45571  0.00000  0.08858
      10     H     0.43519  0.43519  0.00000  0.12962
      11     F     4.61248  4.61248  0.00000 -0.22496
      12     F     4.61101  4.61101  0.00000 -0.22201
      13     F     4.60656  4.60656  0.00000 -0.21312

   Total alpha = 32.00000, Total beta = 32.00000, Total charge = -0.00000

*** Psi4 exiting successfully. Buy a developer a beer!
