  ==> Input File <==

--------------------------------------------------------------------------
set {
	reference rhf
	basis 6-31G*
}

set_num_threads( 1 )
memory 2 gb

molecule MOL {
0 1

H	 2.230341	 -1.068358	 -0.904933
O	 2.016064	 -0.864478	 0.000222
C	 1.050492	 0.053836	 0.000068
C	 -0.318135	 -0.576402	 0.000164
O	 1.285279	 1.218255	 -0.000078
C	 -1.454360	 0.441875	 -0.000474
H	 -0.374042	 -1.230163	 -0.866135
H	 -0.374274	 -1.229227	 0.867154
C	 -2.826123	 -0.230780	 0.000056
H	 -1.357605	 1.085198	 -0.868380
H	 -1.357504	 1.086451	 0.866496
H	 -2.959731	 -0.858053	 -0.876869
H	 -3.619374	 0.509403	 -0.000080
H	 -2.959371	 -0.857318	 0.877556

	symmetry c1
}
set optking {
	frozen_dihedral = ("
		7 4 6 10,
		2 3 4 7
	")
}

ee = energy('scf')
oeprop('DIPOLE', 'QUADRUPOLE', 'MULLIKEN_CHARGES')
f=open( 'psi4out.xyz', 'w' )
f.write( "14  " )
f.write( str(ee) + "\n" )
f.write( MOL.save_string_xyz() )
f.close()
--------------------------------------------------------------------------

    Molecular point group: c1

    Geometry (in Angstrom), charge = 0, multiplicity = 1:

       Center              X                  Y                   Z               Mass
    ------------   -----------------  -----------------  -----------------  -----------------
           H          2.237480614332    -1.060849583130    -0.894573230416     1.007825032070
           O          2.023203614332    -0.856969583130     0.010581769584    15.994914619560
           C          1.057631614332     0.061344416870     0.010427769584    12.000000000000
           C         -0.310995385668    -0.568893583130     0.010523769584    12.000000000000
           O          1.292418614332     1.225763416870     0.010281769584    15.994914619560
           C         -1.447220385668     0.449383416870     0.009885769584    12.000000000000
           H         -0.366902385668    -1.222654583130    -0.855775230416     1.007825032070
           H         -0.367134385668    -1.221718583130     0.877513769584     1.007825032070
           C         -2.818983385668    -0.223271583130     0.010415769584    12.000000000000
           H         -1.350465385668     1.092706416870    -0.858020230416     1.007825032070
           H         -1.350364385668     1.093959416870     0.876855769584     1.007825032070
           H         -2.952591385668    -0.850544583130    -0.866509230416     1.007825032070
           H         -3.612234385668     0.516911416870     0.010279769584     1.007825032070
           H         -2.952231385668    -0.849809583130     0.887915769584     1.007825032070

  Charge       = 0
  Multiplicity = 1
  Basis Set: 6-31G*
  Basis Set:

    Orbital Energies (a.u.)
    -----------------------

    Doubly Occupied:

       1A    -20.598414     2A    -20.560762     3A    -11.380407
       4A    -11.242699     5A    -11.226231     6A    -11.218274
       7A     -1.469305     8A     -1.369481     9A     -1.083472
      10A     -0.976819    11A     -0.852356    12A     -0.801232
      13A     -0.713363    14A     -0.679293    15A     -0.664708
      16A     -0.634104    17A     -0.579029    18A     -0.559957
      19A     -0.543930    20A     -0.501738    21A     -0.497870
      22A     -0.484158    23A     -0.479840    24A     -0.444473

  @DF-RHF Final Energy:  -305.85768502868143

   => Energetics <=

    Nuclear Repulsion Energy =            240.0612524919832538
    One-Electron Energy =                -892.7140994736508901
    Two-Electron Energy =                 346.7951619529860068
    DFT Exchange-Correlation Energy =       0.0000000000000000
    Empirical Dispersion Energy =           0.0000000000000000
    PCM Polarization Energy =               0.0000000000000000
    EFP Energy =                            0.0000000000000000
    Total Energy =                       -305.8576850286816011

  Mulliken Charges: (a.u.)
   Center  Symbol    Alpha    Beta     Spin     Total
       1     H     0.26529  0.26529  0.00000  0.46943
       2     O     4.35715  4.35715  0.00000 -0.71430
       3     C     2.63614  2.63614  0.00000  0.72772
       4     C     3.20854  3.20854  0.00000 -0.41708
       5     O     4.25157  4.25157  0.00000 -0.50315
       6     C     3.15309  3.15309  0.00000 -0.30617
       7     H     0.41063  0.41063  0.00000  0.17873
       8     H     0.39716  0.39716  0.00000  0.20568
       9     C     3.24271  3.24271  0.00000 -0.48542
      10     H     0.41189  0.41189  0.00000  0.17623
      11     H     0.40879  0.40879  0.00000  0.18242
      12     H     0.42217  0.42217  0.00000  0.15565
      13     H     0.41434  0.41434  0.00000  0.17132
      14     H     0.42054  0.42054  0.00000  0.15893

   Total alpha = 24.00000, Total beta = 24.00000, Total charge = -0.00000
