                              Psi4 1.0.54 Driver

  ==> Input File <==

--------------------------------------------------------------------------
set {
	reference rhf
	basis cc-pvtz
}

set_num_threads( 4 )
memory 2 gb

molecule MOL {
0 1

H	 -3.649692	 1.235414	 -0.983499
O	 -3.458596	 0.315260	 -0.960865
C	 -3.176635	 -0.080824	 0.355601
C	 -1.763371	 0.265266	 0.799691
H	 -3.321825	 -1.153438	 0.379502
H	 -3.895468	 0.357385	 1.043382
C	 -0.673390	 -0.426948	 -0.013392
H	 -1.631049	 1.344913	 0.747560
H	 -1.664587	 -0.001624	 1.849167
C	 0.737842	 -0.043159	 0.423759
H	 -0.806103	 -0.190518	 -1.063345
H	 -0.797221	 -1.503753	 0.074146
C	 1.824000	 -0.743224	 -0.390623
H	 0.850588	 1.033777	 0.343840
H	 0.868587	 -0.286314	 1.476203
C	 3.255957	 -0.453067	 0.062319
H	 1.718250	 -0.470599	 -1.438164
H	 1.658105	 -1.815850	 -0.339904
C	 3.707029	 0.992337	 -0.133857
H	 3.928201	 -1.104096	 -0.488158
H	 3.362667	 -0.724561	 1.109374
H	 3.605811	 1.294044	 -1.171549
H	 4.748333	 1.111029	 0.143343
H	 3.129882	 1.683078	 0.468956

	symmetry c1
}
set optking {
	frozen_dihedral = ("
		1 2 3 5
	")
}

ee,wfn = optimize('scf', return_wfn=True)
oeprop( wfn, 'DIPOLE', 'QUADRUPOLE', 'MULLIKEN_CHARGES')
f=open( 'psi4out.xyz', 'w' )
f.write( "24  " )
f.write( str(ee) + "\n" )
f.write( MOL.save_string_xyz() )
f.close()
--------------------------------------------------------------------------

    Molecular point group: c1
  Charge       = 0
  Multiplicity = 1
  Basis Set: CC-PVTZ
  Basis Set:
  @DF-RHF Final Energy:  -349.38018632908438
    Total Energy =                       -349.3801863290842675
    Molecular point group: c1
  Basis Set: CC-PVTZ
  Basis Set:
  Basis Set: CC-PVTZ
  Basis Set:
  @DF-RHF Final Energy:  -349.38019869555046
    Total Energy =                       -349.3801986955501206
  Basis Set: CC-PVTZ
  Basis Set:
  Basis Set: CC-PVTZ
  Basis Set:
  @DF-RHF Final Energy:  -349.38020182882400
    Total Energy =                       -349.3802018288236013
  Basis Set: CC-PVTZ
  Basis Set:
  Charge       = 0
  Multiplicity = 1
  Basis Set: CC-PVTZ
  Basis Set:

    Orbital Energies (a.u.)
    -----------------------

    Doubly Occupied:

       1A    -20.546187     2A    -11.265753     3A    -11.213292
       4A    -11.211303     5A    -11.208987     6A    -11.208339
       7A    -11.207304     8A    -11.204553     9A     -1.363897
      10A     -1.088711    11A     -1.048571    12A     -0.986063
      13A     -0.915139    14A     -0.849652    15A     -0.799443
      16A     -0.775576    17A     -0.687855    18A     -0.653462
      19A     -0.625304    20A     -0.618463    21A     -0.593799
      22A     -0.584855    23A     -0.558553    24A     -0.541042
      25A     -0.516790    26A     -0.507567    27A     -0.499069
      28A     -0.474112    29A     -0.468609    30A     -0.457483
      31A     -0.455853    32A     -0.449111    33A     -0.421138

  @DF-RHF Final Energy:  -349.38020182966301

   => Energetics <=

    Nuclear Repulsion Energy =            384.8001438531123881
    One-Electron Energy =               -1236.3490328099064754
    Two-Electron Energy =                 502.1686871271313635
    DFT Exchange-Correlation Energy =       0.0000000000000000
    Empirical Dispersion Energy =           0.0000000000000000
    PCM Polarization Energy =               0.0000000000000000
    EFP Energy =                            0.0000000000000000
    Total Energy =                       -349.3802018296627807
    Molecular point group: c1
  Basis Set: CC-PVTZ
  Basis Set:

  -Total Gradient:
     Atom            X                  Y                   Z
    ------   -----------------  -----------------  -----------------
       1       -0.001006218327    -0.000214740804     0.000159375185
       2        0.001063105880     0.000260612231    -0.000132586978
       3        0.000799828219    -0.000150176565    -0.000247608517
       4        0.000016883001    -0.000012547605     0.000008002628
       5       -0.000851934965     0.000131975653     0.000213300855
       6       -0.000009931873    -0.000006914037     0.000001988784
       7       -0.000005551043     0.000013898895     0.000002695046
       8       -0.000007873582    -0.000017876996    -0.000007011862
       9       -0.000001209359    -0.000005021382     0.000014673444
      10        0.000007510432     0.000007833234    -0.000008645021
      11        0.000001665244    -0.000003185989    -0.000008241652
      12        0.000000925025     0.000001381982     0.000001301666
      13       -0.000001523417    -0.000011191693     0.000007979466
      14        0.000011332742     0.000015730592     0.000004566272
      15       -0.000003795173    -0.000003557084    -0.000006762065
      16        0.000004946593    -0.000003839813    -0.000013986980
      17        0.000001645732    -0.000005315443     0.000001490814
      18       -0.000003187408    -0.000001231068     0.000004544264
      19       -0.000007216012     0.000000154132     0.000003870829
      20        0.000000488163     0.000003377362    -0.000003738637
      21        0.000002088751    -0.000004129910    -0.000002761527
      22        0.000002277879    -0.000003232954     0.000002208408
      23       -0.000000724481     0.000002033356     0.000004039333
      24       -0.000013532033     0.000005963910     0.000001306243

  **** Optimization is complete! (in 4 steps) ****
    Final optimized geometry and variables:
    Molecular point group: c1

    Geometry (in Angstrom), charge = 0, multiplicity = 1:

    H           -3.631327426269     1.240882939556    -0.984350326607
    O           -3.449150279864     0.319772814665    -0.956776896737
    C           -3.173823070651    -0.075433371237     0.362392368798
    C           -1.760228725071     0.268278583717     0.806033427665
    H           -3.328297448891    -1.146898468808     0.394170939334
    H           -3.892208484786     0.368428894281     1.046631816510
    C           -0.674112543701    -0.424507781174    -0.011360772401
    H           -1.627133076208     1.347166133105     0.753284656684
    H           -1.659806638590    -0.001541043093     1.854887449541
    C            0.739187187029    -0.045073827185     0.422907878787
    H           -0.810130169330    -0.183697268117    -1.059775312640
    H           -0.799831120951    -1.501431377912     0.073723143654
    C            1.821684590468    -0.746051847083    -0.395596325826
    H            0.854061642936     1.031719433821     0.344570005153
    H            0.872266979994    -0.290422945376     1.474608821888
    C            3.255616321700    -0.458377377521     0.052785719911
    H            1.712800099631    -0.472406696369    -1.442541084830
    H            1.654425074530    -1.818506357234    -0.345268319433
    C            3.707070910284     0.987305719074    -0.140646338624
    H            3.925377901196    -1.108186504584    -0.502191331125
    H            3.366131871330    -0.733171452912     1.098608227809
    H            3.601303055238     1.292559859735    -1.176839825666
    H            4.749749275062     1.104277278397     0.132171345465
    H            3.133202827813     1.676506193192     0.467025796824

  Mulliken Charges: (a.u.)
   Center  Symbol    Alpha    Beta     Spin     Total
       1     H     0.39483  0.39483  0.00000  0.21034
       2     O     4.20397  4.20397  0.00000 -0.40794
       3     C     2.98121  2.98121  0.00000  0.03758
       4     C     3.09492  3.09492  0.00000 -0.18984
       5     H     0.45892  0.45892  0.00000  0.08216
       6     H     0.46014  0.46014  0.00000  0.07972
       7     C     3.08826  3.08826  0.00000 -0.17652
       8     H     0.45988  0.45988  0.00000  0.08025
       9     H     0.45505  0.45505  0.00000  0.08991
      10     C     3.09143  3.09143  0.00000 -0.18286
      11     H     0.44546  0.44546  0.00000  0.10908
      12     H     0.45565  0.45565  0.00000  0.08870
      13     C     3.09444  3.09444  0.00000 -0.18888
      14     H     0.45330  0.45330  0.00000  0.09340
      15     H     0.45654  0.45654  0.00000  0.08691
      16     C     3.09014  3.09014  0.00000 -0.18027
      17     H     0.45355  0.45355  0.00000  0.09289
      18     H     0.44991  0.44991  0.00000  0.10018
      19     C     3.15250  3.15250  0.00000 -0.30501
      20     H     0.44873  0.44873  0.00000  0.10254
      21     H     0.45534  0.45534  0.00000  0.08931
      22     H     0.45484  0.45484  0.00000  0.09033
      23     H     0.44677  0.44677  0.00000  0.10646
      24     H     0.45421  0.45421  0.00000  0.09157

   Total alpha = 33.00000, Total beta = 33.00000, Total charge = -0.00000

*** Psi4 exiting successfully. Buy a developer a beer!
