  ==> Input File <==

--------------------------------------------------------------------------
set {
	reference rhf
	basis 6-31G*
}

set_num_threads( 4 )
memory 2 gb

molecule MOL {
0 1

H	 0.449133	 -0.873041	 -4.537049
O	 0.369501	 -1.694251	 -5.000024
C	 0.845843	 -2.741027	 -4.192924
C	 -0.090563	 -3.084918	 -3.039837
H	 0.946947	 -3.595960	 -4.849081
H	 1.839239	 -2.506772	 -3.812044
C	 -0.266526	 -1.954698	 -2.022730
H	 -1.058312	 -3.359299	 -3.451595
H	 0.301538	 -3.966919	 -2.536152
C	 -1.168595	 -2.349618	 -0.850071
H	 -0.682597	 -1.085057	 -2.523703
H	 0.709557	 -1.658230	 -1.638402
C	 -1.309753	 -1.282496	 0.241564
H	 -2.155359	 -2.609331	 -1.229140
H	 -0.770523	 -3.255079	 -0.396882
C	 -2.037799	 -0.007733	 -0.193645
H	 -1.848099	 -1.720170	 1.079682
H	 -0.322271	 -1.022645	 0.619975
C	 -3.489788	 0.042957	 0.286558
H	 -2.017067	 0.064384	 -1.280144
H	 -1.513726	 0.868678	 0.179924
C	 -4.216917	 1.317354	 -0.141063
H	 -4.025645	 -0.823308	 -0.095450
H	 -3.513059	 -0.038752	 1.371301
H	 -4.239342	 1.411634	 -1.223113
H	 -5.243387	 1.322503	 0.212445
H	 -3.726170	 2.201406	 0.256408

	symmetry c1
}
set optking {
	frozen_dihedral = ("
		10 13 16 20
	")
}

ee = optimize('scf')
oeprop('DIPOLE', 'QUADRUPOLE', 'MULLIKEN_CHARGES')
f=open( 'psi4out.xyz', 'w' )
f.write( "27  " )
f.write( str(ee) + "\n" )
f.write( MOL.save_string_xyz() )
f.close()
--------------------------------------------------------------------------

    Molecular point group: c1
  Charge       = 0
  Multiplicity = 1
  Basis Set: 6-31G*
  Basis Set:
  @DF-RHF Final Energy:  -388.27686306440307
    Total Energy =                       -388.2768630644030736
    Molecular point group: c1
  Basis Set: 6-31G*
  Basis Set:
  Basis Set: 6-31G*
  Basis Set:
  @DF-RHF Final Energy:  -388.27722400596190
    Total Energy =                       -388.2772240059614433
  Basis Set: 6-31G*
  Basis Set:
  Basis Set: 6-31G*
  Basis Set:
  @DF-RHF Final Energy:  -388.27747951942342
    Total Energy =                       -388.2774795194230819
  Basis Set: 6-31G*
  Basis Set:
  Basis Set: 6-31G*
  Basis Set:
  @DF-RHF Final Energy:  -388.27748408440550
    Total Energy =                       -388.2774840844055007
  Basis Set: 6-31G*
  Basis Set:
  Basis Set: 6-31G*
  Basis Set:
  @DF-RHF Final Energy:  -388.27751702008868
    Total Energy =                       -388.2775170200889079
  Basis Set: 6-31G*
  Basis Set:
  Basis Set: 6-31G*
  Basis Set:
  @DF-RHF Final Energy:  -388.27752276276124
    Total Energy =                       -388.2775227627610093
  Basis Set: 6-31G*
  Basis Set:
  Charge       = 0
  Multiplicity = 1
  Basis Set: 6-31G*
  Basis Set:

    Orbital Energies (a.u.)
    -----------------------

    Doubly Occupied:

       1A    -20.552415     2A    -11.267178     3A    -11.219942
       4A    -11.217572     5A    -11.215657     6A    -11.215373
       7A    -11.215322     8A    -11.214016     9A    -11.208593
      10A     -1.359157    11A     -1.094602    12A     -1.060582
      13A     -1.010393    14A     -0.947757    15A     -0.886950
      16A     -0.823724    17A     -0.802508    18A     -0.774774
      19A     -0.693943    20A     -0.654044    21A     -0.628358
      22A     -0.613972    23A     -0.604884    24A     -0.588428
      25A     -0.575756    26A     -0.559884    27A     -0.534277
      28A     -0.529276    29A     -0.506161    30A     -0.492729
      31A     -0.484284    32A     -0.481941    33A     -0.467867
      34A     -0.452711    35A     -0.449746    36A     -0.444245
      37A     -0.423369

  @DF-RHF Final Energy:  -388.27752364613980

   => Energetics <=

    Nuclear Repulsion Energy =            462.0686391676902076
    One-Electron Energy =               -1442.1475451431278998
    Two-Electron Energy =                 591.8013823292978941
    DFT Exchange-Correlation Energy =       0.0000000000000000
    Empirical Dispersion Energy =           0.0000000000000000
    PCM Polarization Energy =               0.0000000000000000
    EFP Energy =                            0.0000000000000000
    Total Energy =                       -388.2775236461397981
    Molecular point group: c1
  Basis Set: 6-31G*
  Basis Set:

  -Total Gradient:
     Atom            X                  Y                   Z
    ------   -----------------  -----------------  -----------------
       1       -0.000002312340    -0.000004068017    -0.000002145963
       2        0.000009140560     0.000003588717    -0.000020821209
       3        0.000011585748     0.000018983025     0.000028931616
       4       -0.000017698542    -0.000026331101     0.000003044924
       5       -0.000008229290     0.000011658471    -0.000003714875
       6        0.000008703292    -0.000009925517    -0.000007274002
       7       -0.000012286878     0.000026381709    -0.000013134077
       8       -0.000005630771    -0.000008646871    -0.000001595522
       9       -0.000004095491     0.000002193986     0.000004188529
      10        0.001542394859     0.000757295104    -0.000585926263
      11       -0.000006495006    -0.000011871500    -0.000016806458
      12       -0.000010652338     0.000010152492     0.000019197162
      13       -0.002612077949    -0.001370500641     0.000869741948
      14        0.000013536305     0.000029956985     0.000004062462
      15       -0.000005477835    -0.000008569309     0.000021319982
      16        0.003173902396     0.001923262322    -0.000323699117
      17       -0.000004994886    -0.000034716108     0.000002972748
      18       -0.000009671340    -0.000013762709    -0.000013252365
      19       -0.000006798445    -0.000014517289    -0.000000285104
      20       -0.002070856684    -0.001281423212     0.000048193443
      21        0.000012735681     0.000002890906    -0.000013667380
      22        0.000012330999     0.000004453561     0.000006324903
      23       -0.000014379546    -0.000004021854    -0.000002177078
      24        0.000001123340    -0.000000550259    -0.000005763558
      25        0.000003173103    -0.000001923169     0.000001240516
      26        0.000004614307    -0.000006035091    -0.000000037063
      27       -0.000001583252     0.000006045371     0.000001081804

  **** Optimization is complete! (in 7 steps) ****
    Final optimized geometry and variables:
    Molecular point group: c1

    Geometry (in Angstrom), charge = 0, multiplicity = 1:

    H            1.939197036085     0.421434755176    -2.731832209987
    O            1.760512211097    -0.355367493291    -3.241531543309
    C            2.075245337485    -1.498600597907    -2.487853228950
    C            1.074208616025    -1.776478266176    -1.371863091778
    H            2.078034816028    -2.322318453424    -3.190070092849
    H            3.081528990731    -1.419861854011    -2.078083494721
    C            1.019864394403    -0.685239122329    -0.300098624657
    H            0.089657994292    -1.902470773720    -1.814662335318
    H            1.337518642275    -2.725986801150    -0.908659861826
    C            0.064146624870    -1.024576657223     0.846834119479
    H            0.720383661406     0.253452779998    -0.758869057401
    H            2.018125555186    -0.527819079912     0.108038896617
    C           -0.031515208266     0.063240030773     1.924747053002
    H           -0.927143296314    -1.226087494050     0.443886932199
    H            0.396343892474    -1.951521188805     1.309343955390
    C           -0.825978672529     1.316481553962     1.500586925641
    H           -0.487408124407    -0.361350069346     2.815364948650
    H            0.977633922448     0.345484367759     2.215970598054
    C           -2.256703295558     1.331649128946     2.048740214152
    H           -0.883041158163     1.371337397926     0.416389707646
    H           -0.314181228514     2.217194512584     1.828898123654
    C           -3.064596493704     2.540289604417     1.578858204224
    H           -2.766860439718     0.417948404156     1.749758950314
    H           -2.223626387242     1.319536112158     3.136004939251
    H           -3.150807842516     2.558101089279     0.495997290563
    H           -4.069301510986     2.526656194563     1.990002487957
    H           -2.593965353516     3.469876918648     1.887015493033

  Mulliken Charges: (a.u.)
   Center  Symbol    Alpha    Beta     Spin     Total
       1     H     0.27977  0.27977  0.00000  0.44047
       2     O     4.37099  4.37099  0.00000 -0.74199
       3     C     2.99750  2.99750  0.00000  0.00500
       4     C     3.16087  3.16087  0.00000 -0.32173
       5     H     0.41444  0.41444  0.00000  0.17113
       6     H     0.43192  0.43192  0.00000  0.13615
       7     C     3.16268  3.16268  0.00000 -0.32536
       8     H     0.41511  0.41511  0.00000  0.16979
       9     H     0.42422  0.42422  0.00000  0.15156
      10     C     3.15364  3.15364  0.00000 -0.30729
      11     H     0.42320  0.42320  0.00000  0.15360
      12     H     0.42520  0.42520  0.00000  0.14961
      13     C     3.15799  3.15799  0.00000 -0.31598
      14     H     0.42177  0.42177  0.00000  0.15647
      15     H     0.42151  0.42151  0.00000  0.15698
      16     C     3.15482  3.15482  0.00000 -0.30964
      17     H     0.41859  0.41859  0.00000  0.16282
      18     H     0.42202  0.42202  0.00000  0.15595
      19     C     3.15280  3.15280  0.00000 -0.30561
      20     H     0.42163  0.42163  0.00000  0.15675
      21     H     0.42111  0.42111  0.00000  0.15778
      22     C     3.23986  3.23986  0.00000 -0.47972
      23     H     0.42287  0.42287  0.00000  0.15427
      24     H     0.42281  0.42281  0.00000  0.15438
      25     H     0.42152  0.42152  0.00000  0.15695
      26     H     0.41918  0.41918  0.00000  0.16164
      27     H     0.42198  0.42198  0.00000  0.15604

   Total alpha = 37.00000, Total beta = 37.00000, Total charge =  0.00000
