  ==> Input File <==

--------------------------------------------------------------------------
set {
	reference rhf
	basis 6-31G*
}

set_num_threads( 4 )
memory 2 gb

molecule MOL {
0 1

H	 -2.499100	 -0.730091	 -0.745082
O	 -2.347518	 -0.290803	 0.079804
C	 -1.184022	 0.487508	 -0.006784
C	 0.062599	 -0.378592	 0.031606
H	 -1.176523	 1.099369	 -0.904519
H	 -1.187323	 1.153111	 0.844927
O	 0.875576	 0.083057	 1.063948
H	 0.587346	 -0.322409	 -0.924148
H	 -0.219461	 -1.418121	 0.187828
C	 2.050833	 -0.642411	 1.241733
H	 2.676022	 -0.611531	 0.351331
H	 2.590362	 -0.193901	 2.064321
H	 1.842747	 -1.683098	 1.481446

	symmetry c1
}
set optking {
	frozen_dihedral = ("
		8 4 3 5
	")
}

ee = optimize('scf')
oeprop('DIPOLE', 'QUADRUPOLE', 'MULLIKEN_CHARGES')
f=open( 'psi4out.xyz', 'w' )
f.write( "13  " )
f.write( str(ee) + "\n" )
f.write( MOL.save_string_xyz() )
f.close()
--------------------------------------------------------------------------

    Molecular point group: c1
  Charge       = 0
  Multiplicity = 1
  Basis Set: 6-31G*
  Basis Set:
  @DF-RHF Final Energy:  -267.94302353788692
    Total Energy =                       -267.9430235378869725
    Molecular point group: c1
  Basis Set: 6-31G*
  Basis Set:
  Basis Set: 6-31G*
  Basis Set:
  @DF-RHF Final Energy:  -267.94360164928162
    Total Energy =                       -267.9436016492815043
  Basis Set: 6-31G*
  Basis Set:
  Basis Set: 6-31G*
  Basis Set:
  @DF-RHF Final Energy:  -267.94382021012632
    Total Energy =                       -267.9438202101262050
  Basis Set: 6-31G*
  Basis Set:
  Basis Set: 6-31G*
  Basis Set:
  @DF-RHF Final Energy:  -267.94382335998807
    Total Energy =                       -267.9438233599880164
  Basis Set: 6-31G*
  Basis Set:
  Charge       = 0
  Multiplicity = 1
  Basis Set: 6-31G*
  Basis Set:

    Orbital Energies (a.u.)
    -----------------------

    Doubly Occupied:

       1A    -20.559478     2A    -20.556859     3A    -11.270773
       4A    -11.269326     5A    -11.267852     6A     -1.385515
       7A     -1.361541     8A     -1.014965     9A     -0.911951
      10A     -0.842703    11A     -0.704013    12A     -0.666902
      13A     -0.664387    14A     -0.640855    15A     -0.585294
      16A     -0.567763    17A     -0.544331    18A     -0.490156
      19A     -0.479792    20A     -0.437053    21A     -0.418606

  @DF-RHF Final Energy:  -267.94382371121856

   => Energetics <=

    Nuclear Repulsion Energy =            190.1698406883110408
    One-Electron Energy =                -742.9471028944305999
    Two-Electron Energy =                 284.8334384949009745
    DFT Exchange-Correlation Energy =       0.0000000000000000
    Empirical Dispersion Energy =           0.0000000000000000
    PCM Polarization Energy =               0.0000000000000000
    EFP Energy =                            0.0000000000000000
    Total Energy =                       -267.9438237112185561
    Molecular point group: c1
  Basis Set: 6-31G*
  Basis Set:

  -Total Gradient:
     Atom            X                  Y                   Z
    ------   -----------------  -----------------  -----------------
       1       -0.000010793178    -0.000012560351    -0.000002536168
       2        0.000044780220     0.000019884110    -0.000021976852
       3        0.001750479458     0.002747096676     0.001806116432
       4       -0.001892500503    -0.002852909249    -0.001364315632
       5       -0.001174109764    -0.001803656419    -0.001232731890
       6        0.000005388451     0.000007898198    -0.000000401439
       7       -0.000039178055    -0.000012101729    -0.000039221613
       8        0.001299437415     0.001920642376     0.000854094742
       9        0.000002053742    -0.000000511836     0.000000869884
      10        0.000019349032    -0.000020172142    -0.000004935042
      11        0.000003081251     0.000002139688     0.000001159691
      12       -0.000011716586     0.000004495713    -0.000001868091
      13        0.000003728515    -0.000000245034     0.000005745981

  **** Optimization is complete! (in 5 steps) ****
    Final optimized geometry and variables:
    Molecular point group: c1

    Geometry (in Angstrom), charge = 0, multiplicity = 1:

    H           -2.396290706725    -0.532135664373    -1.256647521684
    O           -2.250225485797    -0.102149281420    -0.426156450294
    C           -1.061086977237     0.644723787479    -0.479427519653
    C            0.195787965823    -0.231517083144    -0.418600640397
    H           -1.056681274088     1.262273821311    -1.373533267030
    H           -1.063962454495     1.291744812093     0.384259998801
    O            1.014866526782     0.237167012052     0.611876880268
    H            0.751025390850    -0.193927630683    -1.355951984315
    H           -0.097233551918    -1.262460463368    -0.233222174992
    C            2.200642635878    -0.474725465471     0.766495797077
    H            2.813781664036    -0.428902475006    -0.132100518256
    H            2.746049458727    -0.026546957712     1.585470438408
    H            2.009646860719    -1.520381457675     1.000340343680

  Mulliken Charges: (a.u.)
   Center  Symbol    Alpha    Beta     Spin     Total
       1     H     0.28293  0.28293  0.00000  0.43413
       2     O     4.36960  4.36960  0.00000 -0.73920
       3     C     3.01111  3.01111  0.00000 -0.02222
       4     C     3.00181  3.00181  0.00000 -0.00362
       5     H     0.42713  0.42713  0.00000  0.14573
       6     H     0.39694  0.39694  0.00000  0.20611
       7     O     4.30651  4.30651  0.00000 -0.61301
       8     H     0.43242  0.43242  0.00000  0.13515
       9     H     0.42130  0.42130  0.00000  0.15740
      10     C     3.08066  3.08066  0.00000 -0.16132
      11     H     0.43051  0.43051  0.00000  0.13898
      12     H     0.41069  0.41069  0.00000  0.17861
      13     H     0.42837  0.42837  0.00000  0.14325

   Total alpha = 21.00000, Total beta = 21.00000, Total charge =  0.00000
