  ==> Input File <==

--------------------------------------------------------------------------
set {
	reference rhf
	basis 6-31G*
}

set_num_threads( 1 )
memory 2 gb

molecule MOL {
0 1

H	 -0.109086	 3.903528	 1.304428
O	 -0.185914	 3.766627	 0.370756
C	 -0.167573	 2.392200	 0.092188
C	 1.231991	 1.820088	 0.232100
H	 -0.852396	 1.843794	 0.732990
H	 -0.505424	 2.273951	 -0.927775
O	 1.171513	 0.459272	 -0.058250
H	 1.602206	 1.979652	 1.246723
H	 1.907662	 2.337476	 -0.446400
C	 2.397842	 -0.198080	 -0.002151
H	 2.508049	 -0.905315	 -0.822092
H	 3.173794	 0.550865	 -0.078850
H	 2.517602	 -0.735921	 0.936026

	symmetry c1
}
set optking {
	frozen_dihedral = ("
		8 4 3 5,
		1 2 3 5,
		10 7 4 8
	")
}

ee = energy('scf')
oeprop('DIPOLE', 'QUADRUPOLE', 'MULLIKEN_CHARGES')
f=open( 'psi4out.xyz', 'w' )
f.write( "13  " )
f.write( str(ee) + "\n" )
f.write( MOL.save_string_xyz() )
f.close()
--------------------------------------------------------------------------

    Molecular point group: c1

    Geometry (in Angstrom), charge = 0, multiplicity = 1:

       Center              X                  Y                   Z               Mass
    ------------   -----------------  -----------------  -----------------  -----------------
           H         -0.998396788174     2.232319904030     1.162099596575     1.007825032070
           O         -1.075224788174     2.095418904030     0.228427596575    15.994914619560
           C         -1.056883788174     0.720991904030    -0.050140403425    12.000000000000
           C          0.342680211826     0.148879904030     0.089771596575    12.000000000000
           H         -1.741706788174     0.172585904030     0.590661596575     1.007825032070
           H         -1.394734788174     0.602742904030    -1.070103403425     1.007825032070
           O          0.282202211826    -1.211936095970    -0.200578403425    15.994914619560
           H          0.712895211826     0.308443904030     1.104394596575     1.007825032070
           H          1.018351211826     0.666267904030    -0.588728403425     1.007825032070
           C          1.508531211826    -1.869288095970    -0.144479403425    12.000000000000
           H          1.618738211826    -2.576523095970    -0.964420403425     1.007825032070
           H          2.284483211826    -1.120343095970    -0.221178403425     1.007825032070
           H          1.628291211826    -2.407129095970     0.793697596575     1.007825032070

  Charge       = 0
  Multiplicity = 1
  Basis Set: 6-31G*
  Basis Set:

    Orbital Energies (a.u.)
    -----------------------

    Doubly Occupied:

       1A    -20.560239     2A    -20.559641     3A    -11.271877
       4A    -11.269877     5A    -11.268955     6A     -1.388116
       7A     -1.365215     8A     -1.017883     9A     -0.913138
      10A     -0.843624    11A     -0.709790    12A     -0.672166
      13A     -0.658091    14A     -0.640676    15A     -0.595512
      16A     -0.569859    17A     -0.547138    18A     -0.490064
      19A     -0.480941    20A     -0.438725    21A     -0.418252

  @DF-RHF Final Energy:  -267.94649131607844

   => Energetics <=

    Nuclear Repulsion Energy =            190.3346478045465631
    One-Electron Energy =                -743.2027215201256922
    Two-Electron Energy =                 284.9215823995016308
    DFT Exchange-Correlation Energy =       0.0000000000000000
    Empirical Dispersion Energy =           0.0000000000000000
    PCM Polarization Energy =               0.0000000000000000
    EFP Energy =                            0.0000000000000000
    Total Energy =                       -267.9464913160775268

  Mulliken Charges: (a.u.)
   Center  Symbol    Alpha    Beta     Spin     Total
       1     H     0.28125  0.28125  0.00000  0.43749
       2     O     4.37085  4.37085  0.00000 -0.74170
       3     C     3.00477  3.00477  0.00000 -0.00955
       4     C     2.99866  2.99866  0.00000  0.00268
       5     H     0.42209  0.42209  0.00000  0.15582
       6     H     0.40836  0.40836  0.00000  0.18329
       7     O     4.30953  4.30953  0.00000 -0.61906
       8     H     0.43722  0.43722  0.00000  0.12556
       9     H     0.42221  0.42221  0.00000  0.15557
      10     C     3.07626  3.07626  0.00000 -0.15251
      11     H     0.41552  0.41552  0.00000  0.16896
      12     H     0.42918  0.42918  0.00000  0.14165
      13     H     0.42411  0.42411  0.00000  0.15179

   Total alpha = 21.00000, Total beta = 21.00000, Total charge = -0.00000
