                              Psi4 1.0.54 Driver

  ==> Input File <==

--------------------------------------------------------------------------
set {
	reference rhf
	basis cc-pvtz
}

set_num_threads( 4 )
memory 2 gb

molecule MOL {
0 1

O	 -1.278239	 1.034789	 -0.784693
C	 -1.204115	 0.062668	 -0.112312
C	 -2.386398	 -0.667698	 0.460323
O	 -0.068058	 -0.518372	 0.226882
H	 -2.382952	 -1.693172	 0.114333
H	 -3.296656	 -0.175702	 0.158400
H	 -2.312537	 -0.685191	 1.540100
C	 1.150987	 0.228549	 0.157301
C	 2.257595	 -0.784771	 -0.056510
C	 1.329272	 1.043773	 1.425461
H	 1.085713	 0.891077	 -0.692337
H	 2.090568	 -1.347512	 -0.966001
H	 3.212689	 -0.279731	 -0.136761
H	 2.306402	 -1.480863	 0.772351
H	 2.257922	 1.600561	 1.379676
H	 0.518546	 1.748643	 1.546009
H	 1.362820	 0.394418	 2.292926

	symmetry c1
}
set optking {
	frozen_dihedral = ("
		8 4 2 1
	")
}

ee,wfn = optimize('scf', return_wfn=True)
oeprop( wfn, 'DIPOLE', 'QUADRUPOLE', 'MULLIKEN_CHARGES')
f=open( 'psi4out.xyz', 'w' )
f.write( "17  " )
f.write( str(ee) + "\n" )
f.write( MOL.save_string_xyz() )
f.close()
--------------------------------------------------------------------------

    Molecular point group: c1
  Charge       = 0
  Multiplicity = 1
  Basis Set: CC-PVTZ
  Basis Set:
  @DF-RHF Final Energy:  -345.04120162798154
    Total Energy =                       -345.0412016279815361
    Molecular point group: c1
  Basis Set: CC-PVTZ
  Basis Set:
  Basis Set: CC-PVTZ
  Basis Set:
  @DF-RHF Final Energy:  -344.96999958462158
    Total Energy =                       -344.9699995846213483
  Basis Set: CC-PVTZ
  Basis Set:
  Basis Set: CC-PVTZ
  Basis Set:
  @DF-RHF Final Energy:  -345.03546399919713
    Total Energy =                       -345.0354639991970771
  Basis Set: CC-PVTZ
  Basis Set:
  Basis Set: CC-PVTZ
  Basis Set:
  @DF-RHF Final Energy:  -345.04088704466881
    Total Energy =                       -345.0408870446689207
  Basis Set: CC-PVTZ
  Basis Set:
  @DF-RHF Final Energy:  -345.04030509120611
    Total Energy =                       -345.0403050912062213
  @DF-RHF Final Energy:  -345.04145832221781
    Total Energy =                       -345.0414583222175793
  @DF-RHF Final Energy:  -345.04150532900110
    Total Energy =                       -345.0415053290012111
  Basis Set: CC-PVTZ
  Basis Set:
  @DF-RHF Final Energy:  -345.04152076211727
    Total Energy =                       -345.0415207621173863
  Basis Set: CC-PVTZ
  Basis Set:
  Basis Set: CC-PVTZ
  Basis Set:
  @DF-RHF Final Energy:  -345.04152737391593
    Total Energy =                       -345.0415273739162103
  Basis Set: CC-PVTZ
  Basis Set:
  Basis Set: CC-PVTZ
  Basis Set:
  @DF-RHF Final Energy:  -345.04152849982563
    Total Energy =                       -345.0415284998254037
  Basis Set: CC-PVTZ
  Basis Set:
  Charge       = 0
  Multiplicity = 1
  Basis Set: CC-PVTZ
  Basis Set:

    Orbital Energies (a.u.)
    -----------------------

    Doubly Occupied:

       1A    -20.589191     2A    -20.532353     3A    -11.366859
       4A    -11.288582     5A    -11.230656     6A    -11.217667
       7A    -11.217202     8A     -1.467083     9A     -1.364680
      10A     -1.079361    11A     -1.006298    12A     -0.950490
      13A     -0.849888    14A     -0.765410    15A     -0.695474
      16A     -0.670640    17A     -0.664747    18A     -0.617635
      19A     -0.586867    20A     -0.579214    21A     -0.563623
      22A     -0.551466    23A     -0.535214    24A     -0.525426
      25A     -0.505423    26A     -0.483646    27A     -0.451191
      28A     -0.437709

  @DF-RHF Final Energy:  -345.04152899600717

   => Energetics <=

    Nuclear Repulsion Energy =            323.7314266845769453
    One-Electron Energy =               -1111.9579194768141406
    Two-Electron Energy =                 443.1849637962298516
    DFT Exchange-Correlation Energy =       0.0000000000000000
    Empirical Dispersion Energy =           0.0000000000000000
    PCM Polarization Energy =               0.0000000000000000
    EFP Energy =                            0.0000000000000000
    Total Energy =                       -345.0415289960073437
    Molecular point group: c1
  Basis Set: CC-PVTZ
  Basis Set:

  -Total Gradient:
     Atom            X                  Y                   Z
    ------   -----------------  -----------------  -----------------
       1       -0.000921229096    -0.001042305033    -0.005658262718
       2        0.001528608695     0.001204343250     0.011013856044
       3       -0.000069511451    -0.000049416963    -0.000137399796
       4       -0.000569202620     0.000602115009    -0.009508003205
       5       -0.000002112238    -0.000018244037    -0.000049111149
       6       -0.000024165686     0.000019245404    -0.000008366143
       7        0.000008110286    -0.000034479004     0.000040671543
       8        0.000061400919    -0.000675963203     0.004316788479
       9        0.000002330939    -0.000033490247     0.000010354332
      10       -0.000061297897    -0.000008724404     0.000004222403
      11        0.000006979407     0.000006822448    -0.000001571852
      12        0.000002210171    -0.000000138830    -0.000015656420
      13        0.000008743861     0.000009810720    -0.000004192467
      14       -0.000000722774     0.000003566437    -0.000001376433
      15        0.000011234752     0.000011609904    -0.000007165078
      16        0.000014448289     0.000005268772     0.000004805103
      17        0.000004174440    -0.000000020219     0.000000407355

  **** Optimization is complete! (in 11 steps) ****
    Final optimized geometry and variables:
    Molecular point group: c1

    Geometry (in Angstrom), charge = 0, multiplicity = 1:

    O           -1.385323335352     1.198207380962    -0.280120833457
    C           -1.200803568040     0.039834738113    -0.122600201362
    C           -2.284915450140    -0.963752469385     0.152671030998
    O           -0.016788767760    -0.541850677376    -0.227831050981
    H           -2.231076756158    -1.767608295992    -0.569476512422
    H           -3.247600544427    -0.480906763911     0.107189906394
    H           -2.133008027351    -1.394282138632     1.134896842624
    C            1.167129529328     0.254346183131    -0.119194095446
    C            2.277548559114    -0.545986289815    -0.769331098264
    C            1.439304287330     0.571082603274     1.340550853980
    H            1.004927669496     1.170733355459    -0.666036280092
    H            2.039792301860    -0.756377597140    -1.804062501718
    H            3.205524545472     0.012113363527    -0.737506997328
    H            2.425269703705    -1.487451709505    -0.253698674835
    H            2.342572852956     1.163218628681     1.427688878922
    H            0.625458200325     1.138797278693     1.771879001742
    H            1.571794364651    -0.341437103182     1.910451040017

  Mulliken Charges: (a.u.)
   Center  Symbol    Alpha    Beta     Spin     Total
       1     O     4.19683  4.19683  0.00000 -0.39365
       2     C     2.80497  2.80497  0.00000  0.39006
       3     C     3.13862  3.13862  0.00000 -0.27725
       4     O     4.16647  4.16647  0.00000 -0.33295
       5     H     0.44482  0.44482  0.00000  0.11036
       6     H     0.43844  0.43844  0.00000  0.12311
       7     H     0.44817  0.44817  0.00000  0.10367
       8     C     2.93189  2.93189  0.00000  0.13623
       9     C     3.13885  3.13885  0.00000 -0.27771
      10     C     3.15535  3.15535  0.00000 -0.31069
      11     H     0.43941  0.43941  0.00000  0.12119
      12     H     0.44573  0.44573  0.00000  0.10853
      13     H     0.45478  0.45478  0.00000  0.09043
      14     H     0.45287  0.45287  0.00000  0.09426
      15     H     0.44889  0.44889  0.00000  0.10221
      16     H     0.44145  0.44145  0.00000  0.11710
      17     H     0.45245  0.45245  0.00000  0.09510

   Total alpha = 28.00000, Total beta = 28.00000, Total charge =  0.00000

*** Psi4 exiting successfully. Buy a developer a beer!
