  ==> Input File <==

--------------------------------------------------------------------------
set {
	reference rhf
	basis 6-31G*
}

set_num_threads( 4 )
memory 2 gb

molecule MOL {
0 1

O	 3.284863	 1.128202	 -0.220983
C	 2.735917	 0.149379	 0.170967
C	 1.245376	 -0.013843	 0.345420
O	 3.383114	 -0.957033	 0.515380
C	 0.455112	 1.231400	 -0.050772
H	 0.950671	 -0.883606	 -0.232380
H	 1.068554	 -0.274779	 1.385777
C	 -0.998893	 1.219485	 0.433193
H	 0.482531	 1.345121	 -1.130325
H	 0.957290	 2.103070	 0.354729
C	 -1.883438	 0.145884	 -0.207175
H	 -1.431207	 2.195402	 0.224832
H	 -1.019646	 1.105716	 1.516076
C	 -3.347647	 0.245583	 0.225435
H	 -1.822183	 0.231698	 -1.291012
H	 -1.510341	 -0.844814	 0.042401
C	 -4.239992	 -0.825570	 -0.404234
H	 -3.732888	 1.230466	 -0.033079
H	 -3.408585	 0.170602	 1.310038
C	 -5.701275	 -0.716658	 0.029921
H	 -4.179496	 -0.752714	 -1.488058
H	 -3.859041	 -1.810759	 -0.143352
H	 -6.308102	 -1.488908	 -0.432678
H	 -6.122175	 0.245478	 -0.248167
H	 -5.799072	 -0.820114	 1.106957
C	 4.794259	 -0.938117	 0.400506
H	 5.089896	 -0.759322	 -0.623279
H	 5.129635	 -1.911889	 0.721909
H	 5.216769	 -0.169464	 1.031532

	symmetry c1
}
set optking {
	frozen_dihedral = ("
		6 3 5 9
	")
}

ee = optimize('scf')
oeprop('DIPOLE', 'QUADRUPOLE', 'MULLIKEN_CHARGES')
f=open( 'psi4out.xyz', 'w' )
f.write( "29  " )
f.write( str(ee) + "\n" )
f.write( MOL.save_string_xyz() )
f.close()
--------------------------------------------------------------------------

    Molecular point group: c1
  Charge       = 0
  Multiplicity = 1
  Basis Set: 6-31G*
  Basis Set:
  @DF-RHF Final Energy:  -501.04378850422393
    Total Energy =                       -501.0437885042236985
    Molecular point group: c1
  Basis Set: 6-31G*
  Basis Set:
  Basis Set: 6-31G*
  Basis Set:
  @DF-RHF Final Energy:  -501.04365137822288
    Total Energy =                       -501.0436513782237853
  Basis Set: 6-31G*
  Basis Set:
  Basis Set: 6-31G*
  Basis Set:
  @DF-RHF Final Energy:  -501.04384382318335
    Total Energy =                       -501.0438438231835789
  Basis Set: 6-31G*
  Basis Set:
  Basis Set: 6-31G*
  Basis Set:
  @DF-RHF Final Energy:  -501.04385179540554
    Total Energy =                       -501.0438517954054305
  Basis Set: 6-31G*
  Basis Set:
  Basis Set: 6-31G*
  Basis Set:
  @DF-RHF Final Energy:  -501.04384781372482
    Total Energy =                       -501.0438478137252787
  Basis Set: 6-31G*
  Basis Set:
  Basis Set: 6-31G*
  Basis Set:
  @DF-RHF Final Energy:  -501.04384988823119
    Total Energy =                       -501.0438498882318754
  Basis Set: 6-31G*
  Basis Set:
  Basis Set: 6-31G*
  Basis Set:
  @DF-RHF Final Energy:  -501.04385330724790
    Total Energy =                       -501.0438533072479004
  Basis Set: 6-31G*
  Basis Set:
  Charge       = 0
  Multiplicity = 1
  Basis Set: 6-31G*
  Basis Set:

    Orbital Energies (a.u.)
    -----------------------

    Doubly Occupied:

       1A    -20.603353     2A    -20.545249     3A    -11.371994
       4A    -11.280658     5A    -11.234933     6A    -11.218895
       7A    -11.217420     8A    -11.215991     9A    -11.215874
      10A    -11.214444    11A    -11.209092    12A     -1.469081
      13A     -1.362507    14A     -1.098114    15A     -1.066696
      16A     -1.019455    17A     -0.977101    18A     -0.928506
      19A     -0.861607    20A     -0.799261    21A     -0.790547
      22A     -0.763523    23A     -0.700342    24A     -0.682423
      25A     -0.672172    26A     -0.651527    27A     -0.628705
      28A     -0.604293    29A     -0.594739    30A     -0.580915
      31A     -0.567193    32A     -0.549730    33A     -0.531759
      34A     -0.529634    35A     -0.515283    36A     -0.512879
      37A     -0.496953    38A     -0.477592    39A     -0.470178
      40A     -0.462355    41A     -0.458807    42A     -0.455678
      43A     -0.440692    44A     -0.435711

  @DF-RHF Final Energy:  -501.04385332301638

   => Energetics <=

    Nuclear Repulsion Energy =            610.1453850926790210
    One-Electron Energy =               -1891.4107590264673036
    Two-Electron Energy =                 780.2215206107721315
    DFT Exchange-Correlation Energy =       0.0000000000000000
    Empirical Dispersion Energy =           0.0000000000000000
    PCM Polarization Energy =               0.0000000000000000
    EFP Energy =                            0.0000000000000000
    Total Energy =                       -501.0438533230162648
    Molecular point group: c1
  Basis Set: 6-31G*
  Basis Set:

  -Total Gradient:
     Atom            X                  Y                   Z
    ------   -----------------  -----------------  -----------------
       1       -0.000000265520     0.000001337232    -0.000000245736
       2        0.000001134263    -0.000009029942    -0.000002486569
       3       -0.001675820738    -0.000616263021     0.001335848122
       4       -0.000002947203     0.000003144233     0.000000358506
       5        0.001871736940     0.001121652258    -0.000129867652
       6        0.001090188947     0.000336242942    -0.001075276791
       7        0.000001470227    -0.000002897080     0.000002438252
       8        0.000001165799    -0.000002200724    -0.000004429856
       9       -0.001287388230    -0.000833503097    -0.000123851853
      10       -0.000000875659     0.000000531791    -0.000000221510
      11       -0.000003363484     0.000006945376    -0.000007867664
      12        0.000001387211    -0.000000901973    -0.000000759802
      13        0.000001391300    -0.000000113670     0.000000126228
      14       -0.000000191746    -0.000002898052     0.000002799515
      15        0.000000159301    -0.000002000180    -0.000003113713
      16        0.000000488195     0.000003041330     0.000001986086
      17        0.000000785688    -0.000003503228     0.000004818178
      18       -0.000001216817    -0.000000375111     0.000003277801
      19        0.000002871971    -0.000002746003     0.000000858469
      20       -0.000001289916     0.000004831355    -0.000006265175
      21        0.000002449787    -0.000002800929     0.000000502350
      22       -0.000001619019    -0.000000352552     0.000003402410
      23       -0.000000381500     0.000001613090    -0.000002141813
      24       -0.000001570813     0.000001474179     0.000001871276
      25        0.000001617824    -0.000001849704    -0.000001272740
      26        0.000001122843     0.000000582800    -0.000000402287
      27       -0.000000166074     0.000000013562    -0.000000069500
      28       -0.000000651707     0.000000089233    -0.000000007535
      29       -0.000000221870    -0.000000064119    -0.000000006998

  **** Optimization is complete! (in 8 steps) ****
    Final optimized geometry and variables:
    Molecular point group: c1

    Geometry (in Angstrom), charge = 0, multiplicity = 1:

    O            3.269386901234     1.072675870028    -0.335319281323
    C            2.707785909355     0.102149708503     0.059273928369
    C            1.216151782199    -0.038261325741     0.251424989408
    O            3.339759303053    -1.017104749600     0.390498285274
    C            0.438978826394     1.216541482722    -0.144553350299
    H            0.910258426905    -0.902803371037    -0.328565526200
    H            1.048052783463    -0.296568012810     1.293650385929
    C           -1.021093913288     1.204416173155     0.321382486823
    H            0.468983395986     1.329214373355    -1.224579791381
    H            0.938980414476     2.084407650903     0.269165384573
    C           -1.887471319500     0.110762820183    -0.309413160384
    H           -1.458264819082     2.173016811122     0.089993360758
    H           -1.053529300005     1.109760629787     1.405815635213
    C           -3.357258481878     0.200871683905     0.105785324623
    H           -1.815576650409     0.178281683690    -1.394006360147
    H           -1.504713145233    -0.870826897750    -0.038609443107
    C           -4.230666283024    -0.890842808429    -0.515052645627
    H           -3.750713053184     1.176821911502    -0.173419469415
    H           -3.429035108796     0.143477056184     1.190790197213
    C           -5.697825504084    -0.790932708925    -0.098916792025
    H           -4.158908084368    -0.835876862391    -1.599253696585
    H           -3.841781006166    -1.867079248494    -0.233078261957
    H           -6.290933160968    -1.577607334222    -0.554967504711
    H           -6.126117882692     0.161622202132    -0.397912741144
    H           -5.806509841305    -0.877282449100     0.978578508485
    C            4.749524460823    -1.022264454713     0.258606376454
    H            5.035859664129    -0.844048547434    -0.767923736860
    H            5.071650526285    -2.003176023808     0.571735087439
    H            5.193017144539    -0.263961618088     0.887752961570

  Mulliken Charges: (a.u.)
   Center  Symbol    Alpha    Beta     Spin     Total
       1     O     4.28579  4.28579  0.00000 -0.57157
       2     C     2.60608  2.60608  0.00000  0.78784
       3     C     3.20953  3.20953  0.00000 -0.41907
       4     O     4.30722  4.30722  0.00000 -0.61444
       5     C     3.15423  3.15423  0.00000 -0.30845
       6     H     0.39867  0.39867  0.00000  0.20265
       7     H     0.40102  0.40102  0.00000  0.19796
       8     C     3.15690  3.15690  0.00000 -0.31379
       9     H     0.41526  0.41526  0.00000  0.16948
      10     H     0.40531  0.40531  0.00000  0.18938
      11     C     3.15527  3.15527  0.00000 -0.31053
      12     H     0.41847  0.41847  0.00000  0.16307
      13     H     0.42372  0.42372  0.00000  0.15257
      14     C     3.15025  3.15025  0.00000 -0.30049
      15     H     0.42304  0.42304  0.00000  0.15392
      16     H     0.42317  0.42317  0.00000  0.15366
      17     C     3.15144  3.15144  0.00000 -0.30288
      18     H     0.42333  0.42333  0.00000  0.15333
      19     H     0.42396  0.42396  0.00000  0.15208
      20     C     3.23935  3.23935  0.00000 -0.47869
      21     H     0.42289  0.42289  0.00000  0.15421
      22     H     0.42341  0.42341  0.00000  0.15317
      23     H     0.41924  0.41924  0.00000  0.16151
      24     H     0.42155  0.42155  0.00000  0.15690
      25     H     0.42181  0.42181  0.00000  0.15639
      26     C     3.09235  3.09235  0.00000 -0.18470
      27     H     0.40908  0.40908  0.00000  0.18185
      28     H     0.40853  0.40853  0.00000  0.18294
      29     H     0.40915  0.40915  0.00000  0.18171

   Total alpha = 44.00000, Total beta = 44.00000, Total charge =  0.00000
