                              Psi4 1.0.54 Driver

  ==> Input File <==

--------------------------------------------------------------------------
set {
	reference rhf
	basis cc-pvtz
}

set_num_threads( 4 )
memory 2 gb

molecule MOL {
0 1

H	 -1.835082	 1.385983	 0.000069
C	 -1.300516	 0.441153	 -0.000028
O	 -0.006604	 0.654344	 -0.000106
O	 -1.828920	 -0.612308	 0.000113
C	 0.852093	 -0.482521	 -0.000013
C	 2.277533	 0.016301	 0.000281
H	 0.638940	 -1.081255	 -0.874107
H	 0.638622	 -1.081386	 0.873917
H	 2.475833	 0.617287	 -0.878048
H	 2.958365	 -0.826505	 0.000352
H	 2.475508	 0.617183	 0.878755

	symmetry c1
}
set optking {
	frozen_dihedral = ("
		5 3 2 4
	")
}

ee,wfn = optimize('scf', return_wfn=True)
oeprop( wfn, 'DIPOLE', 'QUADRUPOLE', 'MULLIKEN_CHARGES')
f=open( 'psi4out.xyz', 'w' )
f.write( "11  " )
f.write( str(ee) + "\n" )
f.write( MOL.save_string_xyz() )
f.close()
--------------------------------------------------------------------------

    Molecular point group: c1
  Charge       = 0
  Multiplicity = 1
  Basis Set: CC-PVTZ
  Basis Set:
  @DF-RHF Final Energy:  -266.93189480460467
    Total Energy =                       -266.9318948046046671
    Molecular point group: c1
  Basis Set: CC-PVTZ
  Basis Set:
  Charge       = 0
  Multiplicity = 1
  Basis Set: CC-PVTZ
  Basis Set:

    Orbital Energies (a.u.)
    -----------------------

    Doubly Occupied:

       1A    -20.605702     2A    -20.545759     3A    -11.370117
       4A    -11.290016     5A    -11.225145     6A     -1.479603
       7A     -1.377430     8A     -1.053888     9A     -0.903808
      10A     -0.806097    11A     -0.740634    12A     -0.693504
      13A     -0.682538    14A     -0.593486    15A     -0.578618
      16A     -0.558140    17A     -0.519285    18A     -0.516151
      19A     -0.463772    20A     -0.458257

  @DF-RHF Final Energy:  -266.93189476096802

   => Energetics <=

    Nuclear Repulsion Energy =            179.6506429819046673
    One-Electron Energy =                -720.2411756029814569
    Two-Electron Energy =                 273.6586378601089109
    DFT Exchange-Correlation Energy =       0.0000000000000000
    Empirical Dispersion Energy =           0.0000000000000000
    PCM Polarization Energy =               0.0000000000000000
    EFP Energy =                            0.0000000000000000
    Total Energy =                       -266.9318947609679071
    Molecular point group: c1
  Basis Set: CC-PVTZ
  Basis Set:

  -Total Gradient:
     Atom            X                  Y                   Z
    ------   -----------------  -----------------  -----------------
       1       -0.000006727500     0.000006039244    -0.000066052559
       2        0.000004291468     0.000012614720     0.000168630172
       3       -0.000038259568     0.000009964424    -0.000031977386
       4        0.000021154089     0.000001537611    -0.000058267381
       5        0.000023089018    -0.000025967019    -0.000008847253
       6       -0.000004830024    -0.000004275316    -0.000002208576
       7        0.000005068537    -0.000000376891    -0.000000544297
       8        0.000000936645     0.000004110702    -0.000000837014
       9       -0.000002900313    -0.000001287277     0.000000053644
      10        0.000002232050    -0.000000770849     0.000000006132
      11       -0.000004054404    -0.000001589350     0.000000044517

  **** Optimization is complete! (in 2 steps) ****
    Final optimized geometry and variables:
    Molecular point group: c1

    Geometry (in Angstrom), charge = 0, multiplicity = 1:

    H           -1.835279855651     1.385934085049    -0.000760666401
    C           -1.300568128092     0.441218020008     0.000057440183
    O           -0.006625429137     0.654390083271     0.000349158544
    O           -1.828697893089    -0.612394115564    -0.000431834428
    C            0.851999337656    -0.482441672491     0.000053507825
    C            2.277449908198     0.016235534305     0.000058171252
    H            0.638744146546    -1.081122658914    -0.874066743447
    H            0.638856769512    -1.081485954117     0.873948727664
    H            2.475530430668     0.617348402391    -0.878237770606
    H            2.958237074142    -0.826622485267    -0.000169729672
    H            2.475650267802     0.616971369891     0.878584634686

  Mulliken Charges: (a.u.)
   Center  Symbol    Alpha    Beta     Spin     Total
       1     H     0.44775  0.44775  0.00000  0.10450
       2     C     2.84644  2.84644  0.00000  0.30713
       3     O     4.14419  4.14419  0.00000 -0.28837
       4     O     4.19491  4.19491  0.00000 -0.38982
       5     C     2.97236  2.97236  0.00000  0.05527
       6     C     3.13325  3.13325  0.00000 -0.26650
       7     H     0.45310  0.45310  0.00000  0.09381
       8     H     0.45310  0.45310  0.00000  0.09380
       9     H     0.45034  0.45034  0.00000  0.09932
      10     H     0.45422  0.45422  0.00000  0.09155
      11     H     0.45034  0.45034  0.00000  0.09932

   Total alpha = 20.00000, Total beta = 20.00000, Total charge =  0.00000

*** Psi4 exiting successfully. Buy a developer a beer!
