  ==> Input File <==

--------------------------------------------------------------------------
set {
	reference rhf
	basis cc-pvtz
}

set_num_threads( 4 )
memory 2 gb

molecule MOL {
0 1

H	 1.651322	 -0.822465	 0.000000
O	 0.729993	 -1.034364	 0.000000
C	 0.037305	 0.100061	 0.000000
C	 -0.848800	 0.217628	 -1.203774
O	 0.133403	 0.900307	 0.864388
H	 -0.246218	 0.172494	 -2.101731
H	 -1.390196	 1.148241	 -1.164092
H	 -1.538209	 -0.616405	 -1.227736

	symmetry c1
}
set optking {
	frozen_dihedral = ("
		4 3 2 1
	")
}

ee = optimize('scf')
oeprop('DIPOLE', 'QUADRUPOLE', 'MULLIKEN_CHARGES')
f=open( 'psi4out.xyz', 'w' )
f.write( "8  " )
f.write( str(ee) + "\n" )
f.write( MOL.save_string_xyz() )
f.close()
--------------------------------------------------------------------------

    Molecular point group: c1
  Charge       = 0
  Multiplicity = 1
  Basis Set: CC-PVTZ
  Basis Set:
  @DF-RHF Final Energy:  -227.88920641271756
    Total Energy =                       -227.8892064127174422
    Molecular point group: c1
  Basis Set: CC-PVTZ
  Basis Set:
  Basis Set: CC-PVTZ
  Basis Set:
  @DF-RHF Final Energy:  -227.88831009810576
    Total Energy =                       -227.8883100981059897
  Basis Set: CC-PVTZ
  Basis Set:
  Basis Set: CC-PVTZ
  Basis Set:
  @DF-RHF Final Energy:  -227.88997375978033
    Total Energy =                       -227.8899737597803323
  Basis Set: CC-PVTZ
  Basis Set:
  Basis Set: CC-PVTZ
  Basis Set:
  @DF-RHF Final Energy:  -227.89025912387015
    Total Energy =                       -227.8902591238701802
  Basis Set: CC-PVTZ
  Basis Set:
  @DF-RHF Final Energy:  -227.89029816825428
    Total Energy =                       -227.8902981682543327
  @DF-RHF Final Energy:  -227.88369648095673
    Total Energy =                       -227.8836964809566723
  Basis Set: CC-PVTZ
  Basis Set:
  @DF-RHF Final Energy:  -227.89028038327803
    Total Energy =                       -227.8902803832780251
  Basis Set: CC-PVTZ
  Basis Set:
  Basis Set: CC-PVTZ
  Basis Set:
  @DF-RHF Final Energy:  -227.89031803791016
    Total Energy =                       -227.8903180379100490
  Basis Set: CC-PVTZ
  Basis Set:
  Basis Set: CC-PVTZ
  Basis Set:
  @DF-RHF Final Energy:  -227.89032013873339
    Total Energy =                       -227.8903201387333581
  Basis Set: CC-PVTZ
  Basis Set:
  Charge       = 0
  Multiplicity = 1
  Basis Set: CC-PVTZ
  Basis Set:

    Orbital Energies (a.u.)
    -----------------------

    Doubly Occupied:

       1A    -20.593109     2A    -20.549752     3A    -11.379374
       4A    -11.240271     5A     -1.469594     6A     -1.372661
       7A     -1.025597     8A     -0.830266     9A     -0.709067
      10A     -0.679236    11A     -0.661936    12A     -0.585885
      13A     -0.581447    14A     -0.531606    15A     -0.495182
      16A     -0.453330

  @DF-RHF Final Energy:  -227.89032049605657

   => Energetics <=

    Nuclear Repulsion Energy =            122.2769680182482404
    One-Electron Energy =                -554.0179540147080388
    Two-Electron Energy =                 203.8506655004031813
    DFT Exchange-Correlation Energy =       0.0000000000000000
    Empirical Dispersion Energy =           0.0000000000000000
    PCM Polarization Energy =               0.0000000000000000
    EFP Energy =                            0.0000000000000000
    Total Energy =                       -227.8903204960566313
    Molecular point group: c1
  Basis Set: CC-PVTZ
  Basis Set:

  -Total Gradient:
     Atom            X                  Y                   Z
    ------   -----------------  -----------------  -----------------
       1       -0.000121551648    -0.000480256519    -0.010696365279
       2        0.002157883298     0.001600574811     0.011887261625
       3       -0.006717629582    -0.003676487135     0.002116254378
       4        0.004943342475     0.002668656297    -0.003485304225
       5       -0.000260004248    -0.000117534593     0.000164466456
       6       -0.000003381389     0.000002439164     0.000005289719
       7       -0.000002523798     0.000004437767    -0.000005645409
       8        0.000003864893    -0.000001829795     0.000014042735

  **** Optimization is complete! (in 10 steps) ****
    Final optimized geometry and variables:
    Molecular point group: c1

    Geometry (in Angstrom), charge = 0, multiplicity = 1:

    H            1.584002871469    -0.948444464055     0.120072027260
    O            0.652726855846    -1.097794440016     0.137781384334
    C           -0.016321999032     0.075503891264     0.091171654407
    C           -0.917154595394     0.178423502940    -1.103786365630
    O            0.159129586354     0.930029055098     0.879945346471
    H           -0.291553371184     0.236159036957    -1.986831733425
    H           -1.533142533099     1.060087237516    -1.031834606361
    H           -1.529311964539    -0.708713388320    -1.196437562304

  Mulliken Charges: (a.u.)
   Center  Symbol    Alpha    Beta     Spin     Total
       1     H     0.38018  0.38018  0.00000  0.23964
       2     O     4.17645  4.17645  0.00000 -0.35291
       3     C     2.80453  2.80453  0.00000  0.39093
       4     C     3.13560  3.13560  0.00000 -0.27119
       5     O     4.17104  4.17104  0.00000 -0.34208
       6     H     0.44981  0.44981  0.00000  0.10037
       7     H     0.43883  0.43883  0.00000  0.12233
       8     H     0.44355  0.44355  0.00000  0.11290

   Total alpha = 16.00000, Total beta = 16.00000, Total charge = -0.00000
