  ==> Input File <==

--------------------------------------------------------------------------
set {
	reference rhf
	basis 6-31G*
}

set_num_threads( 1 )
memory 2 gb

molecule MOL {
0 1

H	 4.355847	 3.541382	 -1.346538
C	 4.242508	 2.492874	 -1.089036
C	 2.909121	 2.237367	 -0.387630
H	 4.316203	 1.917068	 -2.006837
H	 5.080593	 2.215313	 -0.455496
C	 2.719933	 0.768037	 -0.004104
H	 2.097290	 2.549244	 -1.036679
H	 2.850391	 2.853410	 0.508324
C	 1.401531	 0.484633	 0.716149
H	 2.775499	 0.150008	 -0.893259
H	 3.536901	 0.462459	 0.645686
C	 0.169600	 0.576866	 -0.172154
H	 1.414999	 -0.525204	 1.123356
H	 1.276283	 1.144717	 1.571590
C	 -1.181045	 0.701995	 0.511084
O	 0.252185	 0.534511	 -1.362865
C	 -2.285934	 -0.139295	 -0.145128
H	 -1.449051	 1.751551	 0.493206
H	 -1.071135	 0.403303	 1.551943
C	 -3.651768	 0.085446	 0.506485
H	 -2.346596	 0.110469	 -1.202272
H	 -2.034737	 -1.195320	 -0.088721
C	 -4.759797	 -0.746382	 -0.137905
H	 -3.908762	 1.140117	 0.445781
H	 -3.588286	 -0.154158	 1.565709
H	 -4.868882	 -0.505166	 -1.191300
H	 -4.548009	 -1.809175	 -0.062213
H	 -5.715422	 -0.564821	 0.343442

	symmetry c1
}
set optking {
	frozen_dihedral = ("
		10 6 3 2,
		12 15 17 21
	")
}

ee = energy('scf')
oeprop('DIPOLE', 'QUADRUPOLE', 'MULLIKEN_CHARGES')
f=open( 'psi4out.xyz', 'w' )
f.write( "28  " )
f.write( str(ee) + "\n" )
f.write( MOL.save_string_xyz() )
f.close()
--------------------------------------------------------------------------

    Molecular point group: c1

    Geometry (in Angstrom), charge = 0, multiplicity = 1:

       Center              X                  Y                   Z               Mass
    ------------   -----------------  -----------------  -----------------  -----------------
           H          4.377218846840     2.840090043192    -1.175853841049     1.007825032070
           C          4.263879846840     1.791582043192    -0.918351841049    12.000000000000
           C          2.930492846840     1.536075043192    -0.216945841049    12.000000000000
           H          4.337574846840     1.215776043192    -1.836152841049     1.007825032070
           H          5.101964846840     1.514021043192    -0.284811841049     1.007825032070
           C          2.741304846840     0.066745043192     0.166580158951    12.000000000000
           H          2.118661846840     1.847952043192    -0.865994841049     1.007825032070
           H          2.871762846840     2.152118043192     0.679008158951     1.007825032070
           C          1.422902846840    -0.216658956808     0.886833158951    12.000000000000
           H          2.796870846840    -0.551283956808    -0.722574841049     1.007825032070
           H          3.558272846840    -0.238832956808     0.816370158951     1.007825032070
           C          0.190971846840    -0.124425956808    -0.001469841049    12.000000000000
           H          1.436370846840    -1.226495956808     1.294040158951     1.007825032070
           H          1.297654846840     0.443425043192     1.742274158951     1.007825032070
           C         -1.159673153160     0.000703043192     0.681768158951    12.000000000000
           O          0.273556846840    -0.166780956808    -1.192180841049    15.994914619560
           C         -2.264562153160    -0.840586956808     0.025556158951    12.000000000000
           H         -1.427679153160     1.050259043192     0.663890158951     1.007825032070
           H         -1.049763153160    -0.297988956808     1.722627158951     1.007825032070
           C         -3.630396153160    -0.615845956808     0.677169158951    12.000000000000
           H         -2.325224153160    -0.590822956808    -1.031587841049     1.007825032070
           H         -2.013365153160    -1.896611956808     0.081963158951     1.007825032070
           C         -4.738425153160    -1.447673956808     0.032779158951    12.000000000000
           H         -3.887390153160     0.438825043192     0.616465158951     1.007825032070
           H         -3.566914153160    -0.855449956808     1.736393158951     1.007825032070
           H         -4.847510153160    -1.206457956808    -1.020615841049     1.007825032070
           H         -4.526637153160    -2.510466956808     0.108471158951     1.007825032070
           H         -5.694050153160    -1.266112956808     0.514126158951     1.007825032070

  Charge       = 0
  Multiplicity = 1
  Basis Set: 6-31G*
  Basis Set:

    Orbital Energies (a.u.)
    -----------------------

    Doubly Occupied:

       1A    -20.547776     2A    -11.323446     3A    -11.231130
       4A    -11.230414     5A    -11.221384     6A    -11.220022
       7A    -11.216572     8A    -11.212780     9A    -11.211195
      10A    -11.206051    11A     -1.393961    12A     -1.088243
      13A     -1.077546    14A     -1.021343    15A     -0.990840
      16A     -0.909665    17A     -0.867384    18A     -0.806236
      19A     -0.792966    20A     -0.723394    21A     -0.669308
      22A     -0.652113    23A     -0.624834    24A     -0.619414
      25A     -0.608554    26A     -0.586665    27A     -0.577383
      28A     -0.572868    29A     -0.537858    30A     -0.529096
      31A     -0.521758    32A     -0.509939    33A     -0.492145
      34A     -0.477679    35A     -0.475570    36A     -0.471082
      37A     -0.468537    38A     -0.466003    39A     -0.455645
      40A     -0.393127

  @DF-RHF Final Energy:  -426.17000290222654

   => Energetics <=

    Nuclear Repulsion Energy =            528.9777662940878145
    One-Electron Energy =               -1626.2916473126185792
    Two-Electron Energy =                 671.1438781163037675
    DFT Exchange-Correlation Energy =       0.0000000000000000
    Empirical Dispersion Energy =           0.0000000000000000
    PCM Polarization Energy =               0.0000000000000000
    EFP Energy =                            0.0000000000000000
    Total Energy =                       -426.1700029022269973

  Mulliken Charges: (a.u.)
   Center  Symbol    Alpha    Beta     Spin     Total
       1     H     0.41936  0.41936  0.00000  0.16128
       2     C     3.24007  3.24007  0.00000 -0.48015
       3     C     3.15643  3.15643  0.00000 -0.31285
       4     H     0.41828  0.41828  0.00000  0.16345
       5     H     0.42351  0.42351  0.00000  0.15298
       6     C     3.14993  3.14993  0.00000 -0.29985
       7     H     0.41067  0.41067  0.00000  0.17867
       8     H     0.42752  0.42752  0.00000  0.14495
       9     C     3.21219  3.21219  0.00000 -0.42438
      10     H     0.40650  0.40650  0.00000  0.18699
      11     H     0.42179  0.42179  0.00000  0.15642
      12     C     2.73058  2.73058  0.00000  0.53883
      13     H     0.40389  0.40389  0.00000  0.19222
      14     H     0.41170  0.41170  0.00000  0.17659
      15     C     3.20496  3.20496  0.00000 -0.40991
      16     O     4.26972  4.26972  0.00000 -0.53943
      17     C     3.15295  3.15295  0.00000 -0.30589
      18     H     0.40257  0.40257  0.00000  0.19486
      19     H     0.41503  0.41503  0.00000  0.16993
      20     C     3.15295  3.15295  0.00000 -0.30590
      21     H     0.40470  0.40470  0.00000  0.19060
      22     H     0.41989  0.41989  0.00000  0.16022
      23     C     3.23967  3.23967  0.00000 -0.47934
      24     H     0.42215  0.42215  0.00000  0.15570
      25     H     0.42410  0.42410  0.00000  0.15179
      26     H     0.41916  0.41916  0.00000  0.16167
      27     H     0.42106  0.42106  0.00000  0.15789
      28     H     0.41867  0.41867  0.00000  0.16265

   Total alpha = 40.00000, Total beta = 40.00000, Total charge = -0.00000
