  ==> Input File <==

--------------------------------------------------------------------------
set {
	reference rhf
	basis 6-31G*
}

set_num_threads( 4 )
memory 2 gb

molecule MOL {
0 1

O	 2.862325	 1.357334	 0.000267
C	 2.843464	 0.164689	 -0.000222
C	 1.546494	 -0.624492	 -0.000609
C	 4.124123	 -0.644674	 -0.000428
C	 0.291004	 0.242674	 0.000989
H	 1.557904	 -1.283758	 -0.867573
H	 1.558622	 -1.285963	 0.864672
C	 -0.994322	 -0.586602	 0.000262
H	 0.309117	 0.896430	 -0.865270
H	 0.309661	 0.894078	 0.869017
C	 -2.259874	 0.272531	 0.000494
H	 -1.004862	 -1.240012	 -0.870939
H	 -1.005220	 -1.241071	 0.870675
C	 -2.975448	 0.295922	 1.352315
H	 -2.944296	 -0.095514	 -0.761824
H	 -2.003320	 1.290435	 -0.287687
C	 -4.238751	 1.155973	 1.344544
H	 -3.233467	 -0.720926	 1.640881
H	 -2.292761	 0.665078	 2.114890
H	 -4.956505	 0.791581	 0.615025
H	 -4.723721	 1.152190	 2.315879
H	 -4.009006	 2.187650	 1.093536
H	 4.165367	 -1.288615	 -0.874074
H	 4.976217	 0.020734	 -0.001915
H	 4.166763	 -1.286207	 0.874930

	symmetry c1
}
set optking {
	frozen_dihedral = ("
		15 11 8 12
	")
}

ee = optimize('scf')
oeprop('DIPOLE', 'QUADRUPOLE', 'MULLIKEN_CHARGES')
f=open( 'psi4out.xyz', 'w' )
f.write( "25  " )
f.write( str(ee) + "\n" )
f.write( MOL.save_string_xyz() )
f.close()
--------------------------------------------------------------------------

    Molecular point group: c1
  Charge       = 0
  Multiplicity = 1
  Basis Set: 6-31G*
  Basis Set:
  @DF-RHF Final Energy:  -387.13154567720466
    Total Energy =                       -387.1315456772043717
    Molecular point group: c1
  Basis Set: 6-31G*
  Basis Set:
  Basis Set: 6-31G*
  Basis Set:
  @DF-RHF Final Energy:  -387.13179675225308
    Total Energy =                       -387.1317967522531944
  Basis Set: 6-31G*
  Basis Set:
  Basis Set: 6-31G*
  Basis Set:
  @DF-RHF Final Energy:  -387.13188870223331
    Total Energy =                       -387.1318887022327999
  Basis Set: 6-31G*
  Basis Set:
  Basis Set: 6-31G*
  Basis Set:
  @DF-RHF Final Energy:  -387.13183258527312
    Total Energy =                       -387.1318325852727185
  Basis Set: 6-31G*
  Basis Set:
  Basis Set: 6-31G*
  Basis Set:
  @DF-RHF Final Energy:  -387.13189085536038
    Total Energy =                       -387.1318908553602114
  Basis Set: 6-31G*
  Basis Set:
  Basis Set: 6-31G*
  Basis Set:
  @DF-RHF Final Energy:  -387.13189732573920
    Total Energy =                       -387.1318973257396010
  Basis Set: 6-31G*
  Basis Set:
  Charge       = 0
  Multiplicity = 1
  Basis Set: 6-31G*
  Basis Set:

    Orbital Energies (a.u.)
    -----------------------

    Doubly Occupied:

       1A    -20.550556     2A    -11.326425     3A    -11.231787
       4A    -11.228397     5A    -11.217349     6A    -11.216393
       7A    -11.215349     8A    -11.213155     9A    -11.207697
      10A     -1.395864    11A     -1.092475    12A     -1.055424
      13A     -1.013898    14A     -0.968096    15A     -0.890351
      16A     -0.820084    17A     -0.787295    18A     -0.730596
      19A     -0.652601    20A     -0.652060    21A     -0.635191
      22A     -0.619161    23A     -0.602589    24A     -0.581056
      25A     -0.564877    26A     -0.564307    27A     -0.542449
      28A     -0.527012    29A     -0.506185    30A     -0.490719
      31A     -0.486357    32A     -0.480872    33A     -0.463964
      34A     -0.454423    35A     -0.448275    36A     -0.399698

  @DF-RHF Final Energy:  -387.13189714956150

   => Energetics <=

    Nuclear Repulsion Energy =            441.6285021740549155
    One-Electron Energy =               -1399.8548231760776162
    Two-Electron Energy =                 571.0944238524612047
    DFT Exchange-Correlation Energy =       0.0000000000000000
    Empirical Dispersion Energy =           0.0000000000000000
    PCM Polarization Energy =               0.0000000000000000
    EFP Energy =                            0.0000000000000000
    Total Energy =                       -387.1318971495614960
    Molecular point group: c1
  Basis Set: 6-31G*
  Basis Set:

  -Total Gradient:
     Atom            X                  Y                   Z
    ------   -----------------  -----------------  -----------------
       1       -0.000000230369     0.000003345911     0.000004076766
       2       -0.000003101010     0.000001465801    -0.000015019071
       3        0.000005102948     0.000007981237    -0.000013027285
       4       -0.000003789001    -0.000002403517    -0.000008061619
       5        0.000023888328    -0.000003843933     0.000032412352
       6        0.000001785268    -0.000005401198    -0.000005169745
       7       -0.000007193288     0.000004804296    -0.000002143121
       8        0.001787302667     0.002745271547    -0.002204104035
       9       -0.000003805030     0.000009790284     0.000004823387
      10        0.000010606514    -0.000004677458     0.000009428471
      11       -0.001641071676    -0.002536054169     0.002538362906
      12       -0.001209561091    -0.001909463254     0.001442289653
      13       -0.000000254586     0.000008742876    -0.000005743097
      14       -0.000009821060     0.000004551934     0.000009102611
      15        0.001052993667     0.001675077669    -0.001795695310
      16       -0.000013468910    -0.000002985922    -0.000002616914
      17        0.000013785989     0.000005391001    -0.000000700463
      18       -0.000012090167     0.000004007231    -0.000005589881
      19        0.000002587092    -0.000005947568     0.000010259972
      20        0.000002553143    -0.000003314643    -0.000000934928
      21        0.000007182057    -0.000001657554    -0.000001316738
      22       -0.000000700168     0.000005084519     0.000000503857
      23        0.000000500224    -0.000002931440     0.000003126714
      24       -0.000003214729     0.000001374748     0.000001464063
      25        0.000000013181     0.000001791602     0.000004271453

  **** Optimization is complete! (in 7 steps) ****
    Final optimized geometry and variables:
    Molecular point group: c1

    Geometry (in Angstrom), charge = 0, multiplicity = 1:

    O            2.717933799299     1.175326572909    -0.305846695426
    C            2.707414150634    -0.017377608300    -0.294258890874
    C            1.416031168936    -0.815632268189    -0.304270888502
    C            3.993489270803    -0.817585448675    -0.267829216935
    C            0.155274194569     0.042561210151    -0.334990925679
    H            1.445188244714    -1.486888001552    -1.161670081848
    H            1.418832867068    -1.464903955669     0.570286226144
    C           -1.125122991064    -0.794415256204    -0.352724258184
    H            0.184350513322     0.687939414838    -1.206984995741
    H            0.152268180474     0.702971543076     0.526849304905
    C           -2.413138239618     0.054619153869    -0.322345978664
    H           -1.128780874090    -1.446033154610    -1.223276400112
    H           -1.121605277097    -1.466766847377     0.503916435404
    C           -3.094229472102     0.091776696287     1.047111643304
    H           -3.115384930859    -0.305690726623    -1.069888738849
    H           -2.176466793505     1.073534429674    -0.622994302298
    C           -4.328926383766     0.991039909043     1.076530372959
    H           -3.375845972765    -0.918942397569     1.334742252477
    H           -2.380537798775     0.433584587230     1.794240293896
    H           -5.073067744885     0.658040098547     0.358293252007
    H           -4.793254228688     0.990399395793     2.057883996254
    H           -4.071919574517     2.017929697930     0.832672012009
    H            4.052314217597    -1.468995855285    -1.134901937225
    H            4.840861847011    -0.146206620307    -0.262628261110
    H            4.027408116168    -1.450956872803     0.613841644748

  Mulliken Charges: (a.u.)
   Center  Symbol    Alpha    Beta     Spin     Total
       1     O     4.26119  4.26119  0.00000 -0.52239
       2     C     2.73569  2.73569  0.00000  0.52862
       3     C     3.21132  3.21132  0.00000 -0.42265
       4     C     3.28669  3.28669  0.00000 -0.57337
       5     C     3.14945  3.14945  0.00000 -0.29890
       6     H     0.40996  0.40996  0.00000  0.18008
       7     H     0.40981  0.40981  0.00000  0.18038
       8     C     3.15767  3.15767  0.00000 -0.31534
       9     H     0.41148  0.41148  0.00000  0.17704
      10     H     0.41207  0.41207  0.00000  0.17585
      11     C     3.15487  3.15487  0.00000 -0.30974
      12     H     0.42183  0.42183  0.00000  0.15633
      13     H     0.42332  0.42332  0.00000  0.15336
      14     C     3.15272  3.15272  0.00000 -0.30544
      15     H     0.42094  0.42094  0.00000  0.15813
      16     H     0.41946  0.41946  0.00000  0.16108
      17     C     3.24010  3.24010  0.00000 -0.48020
      18     H     0.42317  0.42317  0.00000  0.15366
      19     H     0.42253  0.42253  0.00000  0.15495
      20     H     0.42192  0.42192  0.00000  0.15615
      21     H     0.41939  0.41939  0.00000  0.16122
      22     H     0.42056  0.42056  0.00000  0.15889
      23     H     0.40869  0.40869  0.00000  0.18262
      24     H     0.39646  0.39646  0.00000  0.20708
      25     H     0.40870  0.40870  0.00000  0.18259

   Total alpha = 36.00000, Total beta = 36.00000, Total charge =  0.00000
