  ==> Input File <==

--------------------------------------------------------------------------
set {
	reference rhf
	basis cc-pvtz
}

set_num_threads( 4 )
memory 2 gb

molecule MOL {
0 1

H	 2.020090	 -0.801977	 1.111036
C	 1.957354	 -0.220879	 0.181497
C	 0.698171	 0.583939	 0.015591
O	 2.841333	 -0.262106	 -0.602413
C	 -0.554654	 -0.292621	 0.086567
H	 0.753359	 1.117305	 -0.924256
H	 0.671959	 1.316687	 0.819500
C	 -1.846385	 0.513195	 -0.016346
H	 -0.522459	 -1.026640	 -0.713506
H	 -0.554096	 -0.852336	 1.018442
C	 -3.089953	 -0.365049	 -0.098564
H	 -1.798267	 1.154820	 -0.891143
H	 -1.925398	 1.173265	 0.842889
H	 -3.055079	 -1.012299	 -0.968245
H	 -3.988403	 0.236438	 -0.170014
H	 -3.183055	 -0.995885	 0.779079

	symmetry c1
}
set optking {
	frozen_dihedral = ("
		9 5 8 12
	")
}

ee = optimize('scf')
oeprop('DIPOLE', 'QUADRUPOLE', 'MULLIKEN_CHARGES')
f=open( 'psi4out.xyz', 'w' )
f.write( "16  " )
f.write( str(ee) + "\n" )
f.write( MOL.save_string_xyz() )
f.close()
--------------------------------------------------------------------------

    Molecular point group: c1
  Charge       = 0
  Multiplicity = 1
  Basis Set: CC-PVTZ
  Basis Set:
  @DF-RHF Final Energy:  -270.11911483325622
    Total Energy =                       -270.1191148332561625
    Molecular point group: c1
  Basis Set: CC-PVTZ
  Basis Set:
  Basis Set: CC-PVTZ
  Basis Set:
  @DF-RHF Final Energy:  -270.11912326276615
    Total Energy =                       -270.1191232627660952
  Basis Set: CC-PVTZ
  Basis Set:
  Basis Set: CC-PVTZ
  Basis Set:
  @DF-RHF Final Energy:  -270.11911534975570
    Total Energy =                       -270.1191153497557025
  Basis Set: CC-PVTZ
  Basis Set:
  Basis Set: CC-PVTZ
  Basis Set:
  @DF-RHF Final Energy:  -270.11913110291516
    Total Energy =                       -270.1191311029150484
  Basis Set: CC-PVTZ
  Basis Set:
  Basis Set: CC-PVTZ
  Basis Set:
  @DF-RHF Final Energy:  -270.11913608245595
    Total Energy =                       -270.1191360824558956
  Basis Set: CC-PVTZ
  Basis Set:
  Charge       = 0
  Multiplicity = 1
  Basis Set: CC-PVTZ
  Basis Set:

    Orbital Energies (a.u.)
    -----------------------

    Doubly Occupied:

       1A    -20.552125     2A    -11.321354     3A    -11.234681
       4A    -11.234040     5A    -11.227499     6A    -11.216756
       7A     -1.406904     8A     -1.097944     9A     -1.020256
      10A     -0.906942    11A     -0.812783    12A     -0.794167
      13A     -0.680475    14A     -0.649824    15A     -0.633791
      16A     -0.604055    17A     -0.583331    18A     -0.553060
      19A     -0.529188    20A     -0.511035    21A     -0.488753
      22A     -0.482865    23A     -0.479875    24A     -0.411639

  @DF-RHF Final Energy:  -270.11913724665681

   => Energetics <=

    Nuclear Repulsion Energy =            229.3677955196018559
    One-Electron Energy =                -820.1071871865244702
    Two-Electron Energy =                 320.6202544202660079
    DFT Exchange-Correlation Energy =       0.0000000000000000
    Empirical Dispersion Energy =           0.0000000000000000
    PCM Polarization Energy =               0.0000000000000000
    EFP Energy =                            0.0000000000000000
    Total Energy =                       -270.1191372466566349
    Molecular point group: c1
  Basis Set: CC-PVTZ
  Basis Set:

  -Total Gradient:
     Atom            X                  Y                   Z
    ------   -----------------  -----------------  -----------------
       1       -0.000000384751    -0.000003167054    -0.000001739775
       2       -0.000003810774     0.000007764288     0.000006188612
       3        0.000004986570     0.000001493809     0.000009899282
       4        0.000002599498    -0.000001036819    -0.000001833171
       5        0.000741287646     0.001114662888    -0.000669241345
       6       -0.000001620076    -0.000005516724    -0.000000220088
       7        0.000002920426     0.000005178888    -0.000002463634
       8       -0.000681584627    -0.001182113500    -0.000638774412
       9       -0.000525156079    -0.000746421280     0.000658388206
      10        0.000008721162     0.000000610077     0.000001374107
      11       -0.000007518821    -0.000001910783     0.000015219429
      12        0.000464278815     0.000816287714     0.000620988854
      13       -0.000004697680    -0.000007974979     0.000000710611
      14        0.000003396861     0.000008435338     0.000000934796
      15       -0.000000856491    -0.000000855295     0.000002067569
      16       -0.000002561686    -0.000005436568    -0.000001499040

  **** Optimization is complete! (in 6 steps) ****
    Final optimized geometry and variables:
    Molecular point group: c1

    Geometry (in Angstrom), charge = 0, multiplicity = 1:

    H            2.012206521819    -0.782053140403     1.200928796594
    C            1.958661945151    -0.204478468363     0.268643090902
    C            0.700704025647     0.598782821898     0.086676483197
    O            2.850595378058    -0.247888116708    -0.506079560051
    C           -0.551704891405    -0.278472226084     0.145502420223
    H            0.765866517853     1.130165780873    -0.853577452635
    H            0.664482529795     1.333188218798     0.888781090754
    C           -1.845024957518     0.526438061212     0.051137874317
    H           -0.519916678497    -1.010086183820    -0.656800718053
    H           -0.553428343972    -0.846623878767     1.072507701227
    C           -3.090018923712    -0.350308959942    -0.015502262893
    H           -1.803445017024     1.172410305511    -0.820869347979
    H           -1.913818471654     1.187503954136     0.910756123159
    H           -3.070976023147    -0.991005270816    -0.890413102917
    H           -3.989298648073     0.252030949525    -0.065966916755
    H           -3.167527018273    -0.987698767551     0.858994889814

  Mulliken Charges: (a.u.)
   Center  Symbol    Alpha    Beta     Spin     Total
       1     H     0.46531  0.46531  0.00000  0.06939
       2     C     2.90906  2.90906  0.00000  0.18187
       3     C     3.07668  3.07668  0.00000 -0.15336
       4     O     4.16412  4.16412  0.00000 -0.32825
       5     C     3.10234  3.10234  0.00000 -0.20468
       6     H     0.44236  0.44236  0.00000  0.11529
       7     H     0.45016  0.45016  0.00000  0.09967
       8     C     3.08469  3.08469  0.00000 -0.16938
       9     H     0.44606  0.44606  0.00000  0.10788
      10     H     0.45184  0.45184  0.00000  0.09633
      11     C     3.14891  3.14891  0.00000 -0.29782
      12     H     0.45114  0.45114  0.00000  0.09773
      13     H     0.45312  0.45312  0.00000  0.09377
      14     H     0.45309  0.45309  0.00000  0.09383
      15     H     0.44666  0.44666  0.00000  0.10667
      16     H     0.45447  0.45447  0.00000  0.09105

   Total alpha = 24.00000, Total beta = 24.00000, Total charge = -0.00000
