  ==> Input File <==

--------------------------------------------------------------------------
set {
	reference rhf
	basis cc-pvtz
}

set_num_threads( 4 )
memory 2 gb

molecule MOL {
0 1

O	 0.987049	 -0.134895	 0.662579
C	 0.029490	 0.077183	 0.000078
C	 -1.232113	 -0.748027	 0.000015
O	 -0.057695	 1.090252	 -0.845690
C	 -2.501422	 0.088592	 -0.000052
H	 -1.188777	 -1.400384	 -0.865133
H	 -1.188857	 -1.400312	 0.865225
H	 -2.548170	 0.725504	 -0.873205
H	 -3.371613	 -0.556398	 -0.000040
H	 -2.548215	 0.725571	 0.873047
C	 1.060070	 1.949359	 -0.946585
H	 1.270906	 2.413971	 0.005213
H	 0.795532	 2.697875	 -1.675673
H	 1.932503	 1.402898	 -1.272908

	symmetry c1
}
set optking {
	frozen_dihedral = ("
		4 2 3 6
	")
}

ee = optimize('scf')
oeprop('DIPOLE', 'QUADRUPOLE', 'MULLIKEN_CHARGES')
f=open( 'psi4out.xyz', 'w' )
f.write( "14  " )
f.write( str(ee) + "\n" )
f.write( MOL.save_string_xyz() )
f.close()
--------------------------------------------------------------------------

    Molecular point group: c1
  Charge       = 0
  Multiplicity = 1
  Basis Set: CC-PVTZ
  Basis Set:
  @DF-RHF Final Energy:  -305.98540169531185
    Total Energy =                       -305.9854016953120777
    Molecular point group: c1
  Basis Set: CC-PVTZ
  Basis Set:
  Basis Set: CC-PVTZ
  Basis Set:
  @DF-RHF Final Energy:  -305.98554110819509
    Total Energy =                       -305.9855411081952070
  Basis Set: CC-PVTZ
  Basis Set:
  Basis Set: CC-PVTZ
  Basis Set:
  @DF-RHF Final Energy:  -305.98504229802984
    Total Energy =                       -305.9850422980297822
  Basis Set: CC-PVTZ
  Basis Set:
  Basis Set: CC-PVTZ
  Basis Set:
  @DF-RHF Final Energy:  -305.98581106459790
    Total Energy =                       -305.9858110645977831
  Basis Set: CC-PVTZ
  Basis Set:
  Basis Set: CC-PVTZ
  Basis Set:
  @DF-RHF Final Energy:  -305.98581927239945
    Total Energy =                       -305.9858192723995671
  Basis Set: CC-PVTZ
  Basis Set:
  Charge       = 0
  Multiplicity = 1
  Basis Set: CC-PVTZ
  Basis Set:

    Orbital Energies (a.u.)
    -----------------------

    Doubly Occupied:

       1A    -20.598568     2A    -20.532829     3A    -11.364896
       4A    -11.279651     5A    -11.236979     6A    -11.221956
       7A     -1.473426     8A     -1.365509     9A     -1.067963
      10A     -0.976205    11A     -0.887630    12A     -0.776870
      13A     -0.697838    14A     -0.683916    15A     -0.676731
      16A     -0.621552    17A     -0.588082    18A     -0.567255
      19A     -0.547144    20A     -0.522527    21A     -0.516073
      22A     -0.500287    23A     -0.460484    24A     -0.437419

  @DF-RHF Final Energy:  -305.98581952254358

   => Energetics <=

    Nuclear Repulsion Energy =            248.7839670042806119
    One-Electron Energy =                -910.3359951040263240
    Two-Electron Energy =                 355.5662085772021328
    DFT Exchange-Correlation Energy =       0.0000000000000000
    Empirical Dispersion Energy =           0.0000000000000000
    PCM Polarization Energy =               0.0000000000000000
    EFP Energy =                            0.0000000000000000
    Total Energy =                       -305.9858195225435793
    Molecular point group: c1
  Basis Set: CC-PVTZ
  Basis Set:

  -Total Gradient:
     Atom            X                  Y                   Z
    ------   -----------------  -----------------  -----------------
       1       -0.000047398149     0.000007304756    -0.000015662509
       2        0.000410852891    -0.000597621130    -0.000375063910
       3       -0.000422219127     0.000651516085    -0.000295993024
       4       -0.000212202220     0.000409213425     0.000331336385
       5        0.000000466711    -0.000005342291     0.000003116810
       6        0.000298207205    -0.000444816951     0.000338990700
       7       -0.000008085025     0.000014586060    -0.000003331859
       8        0.000009264350    -0.000009006537     0.000006821014
       9       -0.000006739512    -0.000001130471     0.000000783989
      10       -0.000003964396     0.000004251048     0.000005270044
      11       -0.000025536908    -0.000044165306     0.000004340209
      12        0.000004669615     0.000006535074     0.000002186424
      13       -0.000004358867     0.000000254774    -0.000000387102
      14        0.000007043432     0.000008421463    -0.000002407172

  **** Optimization is complete! (in 6 steps) ****
    Final optimized geometry and variables:
    Molecular point group: c1

    Geometry (in Angstrom), charge = 0, multiplicity = 1:

    O            1.256175464447    -0.562879258314     0.838871048912
    C            0.293578410007    -0.319481867282     0.193656169484
    C           -0.965215355592    -1.151065631691     0.202375574843
    O            0.221127117799     0.706507664914    -0.636622650420
    C           -2.266023767512    -0.353556480830     0.195100818979
    H           -0.916662072200    -1.793466734492    -0.671784957203
    H           -0.902988985058    -1.792067971785     1.069555435813
    H           -2.356315257437     0.247223026324    -0.698539217167
    H           -3.110974493725    -1.029359044718     0.238793537592
    H           -2.324438256706     0.307018774597     1.052263114635
    C            1.362360409353     1.533396925341    -0.746605323536
    H            1.604964757176     1.975834086866     0.207983245266
    H            1.106164238364     2.300786310794    -1.458902243246
    H            2.211216879325     0.965943605721    -1.098010246762

  Mulliken Charges: (a.u.)
   Center  Symbol    Alpha    Beta     Spin     Total
       1     O     4.19963  4.19963  0.00000 -0.39925
       2     C     2.80425  2.80425  0.00000  0.39149
       3     C     3.08662  3.08662  0.00000 -0.17324
       4     O     4.14754  4.14754  0.00000 -0.29508
       5     C     3.14565  3.14565  0.00000 -0.29131
       6     H     0.44724  0.44724  0.00000  0.10552
       7     H     0.43530  0.43530  0.00000  0.12941
       8     H     0.44600  0.44600  0.00000  0.10800
       9     H     0.44860  0.44860  0.00000  0.10280
      10     H     0.45133  0.45133  0.00000  0.09734
      11     C     3.03460  3.03460  0.00000 -0.06919
      12     H     0.45379  0.45379  0.00000  0.09243
      13     H     0.44601  0.44601  0.00000  0.10799
      14     H     0.45345  0.45345  0.00000  0.09310

   Total alpha = 24.00000, Total beta = 24.00000, Total charge = -0.00000
