                              Psi4 1.0.54 Driver

  ==> Input File <==

--------------------------------------------------------------------------
set {
	reference rhf
	basis cc-pvtz
}

set_num_threads( 4 )
memory 2 gb

molecule MOL {
0 1

H	 3.190010	 1.352731	 -1.292853
N	 2.425067	 0.712329	 -1.311942
C	 1.860978	 0.530248	 0.016256
H	 2.773059	 -0.151423	 -1.672751
C	 0.644130	 -0.381765	 -0.031064
H	 1.562808	 1.505537	 0.386138
H	 2.580990	 0.130968	 0.731877
C	 -0.678115	 0.376691	 0.025731
H	 0.693998	 -0.977147	 -0.936845
H	 0.693309	 -1.082142	 0.800523
C	 -1.900706	 -0.535531	 -0.022488
H	 -0.725296	 1.079516	 -0.802982
H	 -0.715474	 0.974884	 0.933278
C	 -3.220513	 0.226854	 0.028039
H	 -1.865036	 -1.134397	 -0.928236
H	 -1.857948	 -1.236381	 0.806820
H	 -3.309098	 0.911849	 -0.808725
H	 -4.066838	 -0.449485	 -0.008086
H	 -3.301685	 0.809374	 0.939860

	symmetry c1
}
set optking {
	frozen_dihedral = ("
		6 3 5 9
	")
}

ee,wfn = optimize('scf', return_wfn=True)
oeprop( wfn, 'DIPOLE', 'QUADRUPOLE', 'MULLIKEN_CHARGES')
f=open( 'psi4out.xyz', 'w' )
f.write( "19  " )
f.write( str(ee) + "\n" )
f.write( MOL.save_string_xyz() )
f.close()
--------------------------------------------------------------------------

    Molecular point group: c1
  Charge       = 0
  Multiplicity = 1
  Basis Set: CC-PVTZ
  Basis Set:
  @DF-RHF Final Energy:  -251.44333655640978
    Total Energy =                       -251.4433365564098040
    Molecular point group: c1
  Basis Set: CC-PVTZ
  Basis Set:
  Basis Set: CC-PVTZ
  Basis Set:
  @DF-RHF Final Energy:  -251.44385461265924
    Total Energy =                       -251.4438546126589813
  Basis Set: CC-PVTZ
  Basis Set:
  Basis Set: CC-PVTZ
  Basis Set:
  @DF-RHF Final Energy:  -251.44396325490223
    Total Energy =                       -251.4439632549021439
  Basis Set: CC-PVTZ
  Basis Set:
  Basis Set: CC-PVTZ
  Basis Set:
  @DF-RHF Final Energy:  -251.44396673192830
    Total Energy =                       -251.4439667319281853
  Basis Set: CC-PVTZ
  Basis Set:
  Charge       = 0
  Multiplicity = 1
  Basis Set: CC-PVTZ
  Basis Set:

    Orbital Energies (a.u.)
    -----------------------

    Doubly Occupied:

       1A    -15.526953     2A    -11.238364     3A    -11.208679
       4A    -11.207717     5A    -11.205546     6A    -11.202830
       7A     -1.177578     8A     -1.070300     9A     -0.996188
      10A     -0.899829    11A     -0.813239    12A     -0.786414
      13A     -0.662053    14A     -0.645973    15A     -0.614780
      16A     -0.588459    17A     -0.556405    18A     -0.546476
      19A     -0.537554    20A     -0.486832    21A     -0.486354
      22A     -0.459438    23A     -0.458938    24A     -0.452993
      25A     -0.381789

  @DF-RHF Final Energy:  -251.44396742327936

   => Energetics <=

    Nuclear Repulsion Energy =            247.8342023420674138
    One-Electron Energy =                -830.1329792967949288
    Two-Electron Energy =                 330.8548095314482680
    DFT Exchange-Correlation Energy =       0.0000000000000000
    Empirical Dispersion Energy =           0.0000000000000000
    PCM Polarization Energy =               0.0000000000000000
    EFP Energy =                            0.0000000000000000
    Total Energy =                       -251.4439674232792186
    Molecular point group: c1
  Basis Set: CC-PVTZ
  Basis Set:

  -Total Gradient:
     Atom            X                  Y                   Z
    ------   -----------------  -----------------  -----------------
       1        0.000005763270    -0.000010891273    -0.000037052743
       2        0.000051025831     0.000028036274     0.000026223107
       3        0.000460741275    -0.000806842791     0.004334141439
       4       -0.000003711594     0.000020227706     0.000022422924
       5        0.002417267823    -0.003296869611     0.001562502795
       6       -0.000799269430     0.001158492708    -0.003900430318
       7       -0.000022736341    -0.000019370301    -0.000031727037
       8        0.000028780930     0.000026935401     0.000061545670
       9       -0.002087616075     0.002868749868    -0.002041645924
      10        0.000003149615     0.000035013536     0.000010024103
      11       -0.000001436692     0.000013683707    -0.000015685174
      12        0.000011753568    -0.000001112707     0.000011827847
      13       -0.000021484564     0.000010058631     0.000012878814
      14       -0.000021571433    -0.000020451781    -0.000004447334
      15       -0.000006668656    -0.000017758683    -0.000005331747
      16       -0.000004626400     0.000006666670    -0.000001528509
      17        0.000001734747     0.000000450315    -0.000001532599
      18       -0.000016188904     0.000005486781     0.000000028295
      19        0.000005093031    -0.000000504451    -0.000002213610

  **** Optimization is complete! (in 5 steps) ****
    Final optimized geometry and variables:
    Molecular point group: c1

    Geometry (in Angstrom), charge = 0, multiplicity = 1:

    H            3.239875889102     1.223706551794    -1.048208504616
    N            2.509606213836     0.543503530065    -1.037533450008
    C            1.990841505433     0.350841821104     0.311858721761
    H            2.892955519964    -0.305857231746    -1.396406716571
    C            0.760069974965    -0.564800122929     0.290492466059
    H            1.703408334569     1.333582984888     0.667262677111
    H            2.740020557413    -0.040527077123     0.997302090665
    C           -0.558279409281     0.207138409995     0.266852409083
    H            0.801670862237    -1.174712109957    -0.606646077770
    H            0.773139115387    -1.235115420575     1.143799614538
    C           -1.785519544057    -0.689797744875     0.138433032798
    H           -0.535921090579     0.910574378996    -0.560818933383
    H           -0.642853378995     0.800844316452     1.174415472977
    C           -3.097604771665     0.087634936115     0.125521561995
    H           -1.706508017365    -1.276422927590    -0.772825418413
    H           -1.798109619737    -1.402874638556     0.958795485399
    H           -3.129203667512     0.786297593413    -0.703873568493
    H           -3.948536368279    -0.577317650712     0.030383886919
    H           -3.224055675509     0.657245499167     1.040352701103

  Mulliken Charges: (a.u.)
   Center  Symbol    Alpha    Beta     Spin     Total
       1     H     0.42880  0.42880  0.00000  0.14240
       2     N     3.69334  3.69334  0.00000 -0.38667
       3     C     3.03646  3.03646  0.00000 -0.07292
       4     H     0.43067  0.43067  0.00000  0.13865
       5     C     3.08427  3.08427  0.00000 -0.16854
       6     H     0.45809  0.45809  0.00000  0.08383
       7     H     0.45898  0.45898  0.00000  0.08204
       8     C     3.08650  3.08650  0.00000 -0.17300
       9     H     0.45889  0.45889  0.00000  0.08222
      10     H     0.45089  0.45089  0.00000  0.09823
      11     C     3.08558  3.08558  0.00000 -0.17116
      12     H     0.44956  0.44956  0.00000  0.10087
      13     H     0.45743  0.45743  0.00000  0.08515
      14     C     3.14996  3.14996  0.00000 -0.29993
      15     H     0.45429  0.45429  0.00000  0.09143
      16     H     0.45646  0.45646  0.00000  0.08708
      17     H     0.45462  0.45462  0.00000  0.09077
      18     H     0.44928  0.44928  0.00000  0.10144
      19     H     0.45593  0.45593  0.00000  0.08814

   Total alpha = 25.00000, Total beta = 25.00000, Total charge =  0.00000

*** Psi4 exiting successfully. Buy a developer a beer!
