  ==> Input File <==

--------------------------------------------------------------------------
set {
	reference rhf
	basis 6-31G*
}

set_num_threads( 4 )
memory 2 gb

molecule MOL {
0 1

O	 -2.042549	 -1.228399	 -0.269030
C	 -1.653912	 -0.146171	 0.050137
C	 -0.332303	 0.024011	 0.778412
C	 -2.438579	 1.106236	 -0.272369
C	 0.845713	 -0.001731	 -0.208243
H	 -0.323783	 0.953829	 1.340327
H	 -0.235459	 -0.796807	 1.480410
C	 2.113122	 -0.600590	 0.403372
H	 1.057669	 1.008277	 -0.554714
H	 0.552613	 -0.575426	 -1.082375
C	 3.283655	 -0.635666	 -0.578376
H	 2.395803	 -0.027030	 1.283454
H	 1.900934	 -1.609306	 0.749835
H	 3.542094	 0.363518	 -0.917335
H	 3.041959	 -1.229750	 -1.454783
H	 4.166998	 -1.067584	 -0.118835
H	 -3.277823	 0.863061	 -0.908988
H	 -1.806773	 1.843019	 -0.759671
H	 -2.802853	 1.554979	 0.648059

	symmetry c1
}
set optking {
	frozen_dihedral = ("
		9 5 3 2
	")
}

ee = optimize('scf')
oeprop('DIPOLE', 'QUADRUPOLE', 'MULLIKEN_CHARGES')
f=open( 'psi4out.xyz', 'w' )
f.write( "19  " )
f.write( str(ee) + "\n" )
f.write( MOL.save_string_xyz() )
f.close()
--------------------------------------------------------------------------

    Molecular point group: c1
  Charge       = 0
  Multiplicity = 1
  Basis Set: 6-31G*
  Basis Set:
  @DF-RHF Final Energy:  -309.06210909718317
    Total Energy =                       -309.0621090971831109
    Molecular point group: c1
  Basis Set: 6-31G*
  Basis Set:
  Basis Set: 6-31G*
  Basis Set:
  @DF-RHF Final Energy:  -309.06235728783906
    Total Energy =                       -309.0623572878390632
  Basis Set: 6-31G*
  Basis Set:
  Basis Set: 6-31G*
  Basis Set:
  @DF-RHF Final Energy:  -309.06236689455989
    Total Energy =                       -309.0623668945601139
  Basis Set: 6-31G*
  Basis Set:
  Basis Set: 6-31G*
  Basis Set:
  @DF-RHF Final Energy:  -309.06244132606264
    Total Energy =                       -309.0624413260627534
  Basis Set: 6-31G*
  Basis Set:
  @DF-RHF Final Energy:  -309.06247647013925
    Total Energy =                       -309.0624764701393019
  @DF-RHF Final Energy:  -309.06248903040535
    Total Energy =                       -309.0624890304054588
  @DF-RHF Final Energy:  -309.06250228089954
    Total Energy =                       -309.0625022808993663
  @DF-RHF Final Energy:  -309.06253791111709
    Total Energy =                       -309.0625379111173174
  @DF-RHF Final Energy:  -309.06249666425981
    Total Energy =                       -309.0624966642599816
  Basis Set: 6-31G*
  Basis Set:
  @DF-RHF Final Energy:  -309.06258581419530
    Total Energy =                       -309.0625858141955291
  Basis Set: 6-31G*
  Basis Set:
  Basis Set: 6-31G*
  Basis Set:
  @DF-RHF Final Energy:  -309.06260194582677
    Total Energy =                       -309.0626019458265432
  Basis Set: 6-31G*
  Basis Set:
  Basis Set: 6-31G*
  Basis Set:
  @DF-RHF Final Energy:  -309.06261060904029
    Total Energy =                       -309.0626106090403482
  Basis Set: 6-31G*
  Basis Set:
  Charge       = 0
  Multiplicity = 1
  Basis Set: 6-31G*
  Basis Set:

    Orbital Energies (a.u.)
    -----------------------

    Doubly Occupied:

       1A    -20.547816     2A    -11.324199     3A    -11.233250
       4A    -11.229152     5A    -11.227437     6A    -11.225266
       7A    -11.215481     8A     -1.393236     9A     -1.091933
      10A     -1.029003    11A     -0.981823    12A     -0.892164
      13A     -0.808248    14A     -0.733711    15A     -0.664508
      16A     -0.640167    17A     -0.626750    18A     -0.612880
      19A     -0.580864    20A     -0.575608    21A     -0.554365
      22A     -0.531530    23A     -0.515315    24A     -0.502209
      25A     -0.481067    26A     -0.474921    27A     -0.469465
      28A     -0.396978

  @DF-RHF Final Energy:  -309.06261137544215

   => Energetics <=

    Nuclear Repulsion Energy =            301.4502162117567536
    One-Electron Energy =               -1015.9069656912228083
    Two-Electron Energy =                 405.3941381040237388
    DFT Exchange-Correlation Energy =       0.0000000000000000
    Empirical Dispersion Energy =           0.0000000000000000
    PCM Polarization Energy =               0.0000000000000000
    EFP Energy =                            0.0000000000000000
    Total Energy =                       -309.0626113754422590
    Molecular point group: c1
  Basis Set: 6-31G*
  Basis Set:

  -Total Gradient:
     Atom            X                  Y                   Z
    ------   -----------------  -----------------  -----------------
       1       -0.000020002165    -0.000017213748    -0.000023798428
       2        0.000205185047    -0.002764177045     0.000026619890
       3        0.000345097412     0.003832147044     0.000645983100
       4       -0.000038273530     0.000005107433     0.000071623524
       5       -0.003055083968    -0.001248641814    -0.003481586056
       6        0.000007416221     0.000006551151     0.000007342708
       7       -0.000007220450     0.000007174247    -0.000011127687
       8       -0.000002629841    -0.000018177499    -0.000012031040
       9        0.002522916102     0.000205209638     0.002823137174
      10       -0.000000300113     0.000005317314     0.000001651224
      11        0.000000872562     0.000001448280     0.000003228620
      12       -0.000002566175     0.000003615063    -0.000006198513
      13        0.000005605015    -0.000006969361     0.000004341412
      14        0.000000206668     0.000001720174    -0.000000543988
      15       -0.000001760260    -0.000000804248     0.000001544065
      16       -0.000002294632     0.000001074141     0.000001693334
      17        0.000010275002    -0.000006560282    -0.000007679397
      18        0.000014963245    -0.000012037820    -0.000021144766
      19        0.000017593869     0.000005217335    -0.000023055176

  **** Optimization is complete! (in 13 steps) ****
    Final optimized geometry and variables:
    Molecular point group: c1

    Geometry (in Angstrom), charge = 0, multiplicity = 1:

    O           -2.231135432979    -0.993442099863     0.091838002358
    C           -1.646187758447     0.044769628100     0.152289151394
    C           -0.287555356883     0.143044616047     0.820925179922
    C           -2.216983945925     1.310326765593    -0.451537968708
    C            0.861830089176     0.209261222159    -0.208921559508
    H           -0.248996794805     1.009320279891     1.475273602664
    H           -0.182915388333    -0.744585676633     1.433115552084
    C            2.153876788778    -0.412047920205     0.329369081329
    H            1.066804262374     1.245475576291    -0.464765272398
    H            0.576738866687    -0.302915057739    -1.124122205365
    C            3.319279892266    -0.298491176595    -0.651962070727
    H            2.420537839414     0.071014089095     1.267051049882
    H            1.975714221184    -1.458534274856     0.562793550754
    H            3.546517617339     0.740169859495    -0.875006656415
    H            3.091286589068    -0.796002999963    -1.590275700367
    H            4.217404372069    -0.753417107814    -0.246563325078
    H           -3.134803436400     1.085435278817    -0.976767680971
    H           -1.507421257824     1.767300232102    -1.134768620056
    H           -2.418734629645     2.033908278602     0.333641561445

  Mulliken Charges: (a.u.)
   Center  Symbol    Alpha    Beta     Spin     Total
       1     O     4.26070  4.26070  0.00000 -0.52140
       2     C     2.73799  2.73799  0.00000  0.52401
       3     C     3.20316  3.20316  0.00000 -0.40632
       4     C     3.28994  3.28994  0.00000 -0.57988
       5     C     3.16237  3.16237  0.00000 -0.32475
       6     H     0.41334  0.41334  0.00000  0.17332
       7     H     0.39926  0.39926  0.00000  0.20148
       8     C     3.15291  3.15291  0.00000 -0.30582
       9     H     0.41909  0.41909  0.00000  0.16181
      10     H     0.41187  0.41187  0.00000  0.17626
      11     C     3.24098  3.24098  0.00000 -0.48195
      12     H     0.42120  0.42120  0.00000  0.15761
      13     H     0.41656  0.41656  0.00000  0.16688
      14     H     0.42152  0.42152  0.00000  0.15697
      15     H     0.41951  0.41951  0.00000  0.16097
      16     H     0.41675  0.41675  0.00000  0.16651
      17     H     0.39687  0.39687  0.00000  0.20626
      18     H     0.40797  0.40797  0.00000  0.18407
      19     H     0.40801  0.40801  0.00000  0.18397

   Total alpha = 28.00000, Total beta = 28.00000, Total charge = -0.00000
