                              Psi4 1.0.54 Driver

  ==> Input File <==

--------------------------------------------------------------------------
set {
	reference rhf
	basis cc-pvtz
}

set_num_threads( 4 )
memory 2 gb

molecule MOL {
0 1

H	 1.327213	 -1.574369	 -0.154043
O	 1.583947	 -0.677544	 -0.001533
C	 0.489979	 0.078084	 0.002623
C	 -0.763662	 -0.754014	 0.000816
O	 0.539051	 1.259395	 -0.000088
C	 -2.038001	 0.074705	 -0.000833
H	 -0.712945	 -1.405886	 -0.864342
H	 -0.715137	 -1.405770	 0.866182
H	 -2.087267	 0.710831	 -0.874232
H	 -2.903419	 -0.576199	 -0.001922
H	 -2.089467	 0.710909	 0.872389

	symmetry c1
}
set optking {
	frozen_dihedral = ("
		1 2 3 5
	")
}

ee,wfn = optimize('scf', return_wfn=True)
oeprop( wfn, 'DIPOLE', 'QUADRUPOLE', 'MULLIKEN_CHARGES')
f=open( 'psi4out.xyz', 'w' )
f.write( "11  " )
f.write( str(ee) + "\n" )
f.write( MOL.save_string_xyz() )
f.close()
--------------------------------------------------------------------------

    Molecular point group: c1
  Charge       = 0
  Multiplicity = 1
  Basis Set: CC-PVTZ
  Basis Set:
  @DF-RHF Final Energy:  -266.94216182125797
    Total Energy =                       -266.9421618212580825
    Molecular point group: c1
  Basis Set: CC-PVTZ
  Basis Set:
  Basis Set: CC-PVTZ
  Basis Set:
  @DF-RHF Final Energy:  -266.94343751384099
    Total Energy =                       -266.9434375138412179
  Basis Set: CC-PVTZ
  Basis Set:
  Basis Set: CC-PVTZ
  Basis Set:
  @DF-RHF Final Energy:  -266.94344575932166
    Total Energy =                       -266.9434457593217758
  Basis Set: CC-PVTZ
  Basis Set:
  Basis Set: CC-PVTZ
  Basis Set:
  @DF-RHF Final Energy:  -266.94360954108680
    Total Energy =                       -266.9436095410868575
  Basis Set: CC-PVTZ
  Basis Set:
  Basis Set: CC-PVTZ
  Basis Set:
  @DF-RHF Final Energy:  -266.94362684787376
    Total Energy =                       -266.9436268478740431
  Basis Set: CC-PVTZ
  Basis Set:
  Charge       = 0
  Multiplicity = 1
  Basis Set: CC-PVTZ
  Basis Set:

    Orbital Energies (a.u.)
    -----------------------

    Doubly Occupied:

       1A    -20.605204     2A    -20.537544     3A    -11.373623
       4A    -11.254156     5A    -11.224510     6A     -1.472448
       7A     -1.374526     8A     -1.070048     9A     -0.909481
      10A     -0.832478    11A     -0.720163    12A     -0.669515
      13A     -0.662354    14A     -0.612121    15A     -0.598504
      16A     -0.535347    17A     -0.529820    18A     -0.513931
      19A     -0.482625    20A     -0.445481

  @DF-RHF Final Energy:  -266.94362785029324

   => Energetics <=

    Nuclear Repulsion Energy =            180.0797631903812430
    One-Electron Energy =                -721.1990266378638808
    Two-Electron Energy =                 274.1756355971894550
    DFT Exchange-Correlation Energy =       0.0000000000000000
    Empirical Dispersion Energy =           0.0000000000000000
    PCM Polarization Energy =               0.0000000000000000
    EFP Energy =                            0.0000000000000000
    Total Energy =                       -266.9436278502931259
    Molecular point group: c1
  Basis Set: CC-PVTZ
  Basis Set:

  -Total Gradient:
     Atom            X                  Y                   Z
    ------   -----------------  -----------------  -----------------
       1        0.000088968436     0.000299562461    -0.002375519276
       2       -0.000130820673    -0.000398403926     0.002096594229
       3        0.000149179679     0.000174480738     0.002328196733
       4       -0.000003834393     0.000015094330     0.000017220074
       5       -0.000101474593    -0.000087378617    -0.002055568067
       6       -0.000006399869    -0.000005013181    -0.000004495141
       7        0.000000655134     0.000004863315    -0.000007848521
       8       -0.000002435784    -0.000000112612    -0.000002813661
       9        0.000003041229    -0.000002426293    -0.000000694788
      10        0.000000562631     0.000000886021     0.000001236621
      11        0.000002558209    -0.000001552234     0.000003691796

  **** Optimization is complete! (in 6 steps) ****
    Final optimized geometry and variables:
    Molecular point group: c1

    Geometry (in Angstrom), charge = 0, multiplicity = 1:

    H            1.494716335718    -1.520509255284    -0.186704681664
    O            1.642189578725    -0.598537326413    -0.069019251547
    C            0.498702133156     0.090579504511    -0.025932386137
    C           -0.753594185780    -0.753083076202     0.064956630501
    O            0.514097091994     1.265784064201    -0.059926437048
    C           -2.032382303221     0.067677416002     0.105496071090
    H           -0.758658777474    -1.430301990400    -0.785365539067
    H           -0.664457557677    -1.376233403294     0.950116203725
    H           -2.128525706618     0.676288384376    -0.782993945138
    H           -2.893086283465    -0.586353044083     0.170530414605
    H           -2.037638345818     0.729912503345     0.960100561708

  Mulliken Charges: (a.u.)
   Center  Symbol    Alpha    Beta     Spin     Total
       1     H     0.38804  0.38804  0.00000  0.22392
       2     O     4.14548  4.14548  0.00000 -0.29096
       3     C     2.80510  2.80510  0.00000  0.38979
       4     C     3.11717  3.11717  0.00000 -0.23434
       5     O     4.17537  4.17537  0.00000 -0.35075
       6     C     3.14052  3.14052  0.00000 -0.28104
       7     H     0.44698  0.44698  0.00000  0.10604
       8     H     0.44087  0.44087  0.00000  0.11827
       9     H     0.44532  0.44532  0.00000  0.10937
      10     H     0.45046  0.45046  0.00000  0.09908
      11     H     0.44468  0.44468  0.00000  0.11063

   Total alpha = 20.00000, Total beta = 20.00000, Total charge =  0.00000

*** Psi4 exiting successfully. Buy a developer a beer!
