  ==> Input File <==

--------------------------------------------------------------------------
set {
	reference rhf
	basis 6-31G*
}

set_num_threads( 1 )
memory 2 gb

molecule MOL {
0 1

H	 -2.499100	 -0.730091	 -0.745082
O	 -2.347518	 -0.290803	 0.079804
C	 -1.184022	 0.487508	 -0.006784
C	 0.062599	 -0.378592	 0.031606
H	 -1.176523	 1.099369	 -0.904519
H	 -1.187323	 1.153111	 0.844927
O	 1.171513	 0.459272	 -0.058250
H	 0.050699	 -1.089204	 -0.797170
H	 0.078739	 -0.954914	 0.954740
C	 1.608762	 0.700852	 -1.358094
H	 0.837138	 1.184751	 -1.953970
H	 2.466923	 1.355693	 -1.297720
H	 1.902207	 -0.220890	 -1.856163

	symmetry c1
}
set optking {
	frozen_dihedral = ("
		8 4 3 5,
		1 2 3 5,
		4 7 10 13
	")
}

ee = energy('scf')
oeprop('DIPOLE', 'QUADRUPOLE', 'MULLIKEN_CHARGES')
f=open( 'psi4out.xyz', 'w' )
f.write( "13  " )
f.write( str(ee) + "\n" )
f.write( MOL.save_string_xyz() )
f.close()
--------------------------------------------------------------------------

    Molecular point group: c1

    Geometry (in Angstrom), charge = 0, multiplicity = 1:

       Center              X                  Y                   Z               Mass
    ------------   -----------------  -----------------  -----------------  -----------------
           H         -2.334929410213    -0.917116666420    -0.462980567138     1.007825032070
           O         -2.183347410213    -0.477828666420     0.361905432862    15.994914619560
           C         -1.019851410213     0.300482333580     0.275317432862    12.000000000000
           C          0.226769589787    -0.565617666420     0.313707432862    12.000000000000
           H         -1.012352410213     0.912343333580    -0.622417567138     1.007825032070
           H         -1.023152410213     0.966085333580     1.127028432862     1.007825032070
           O          1.335683589787     0.272246333580     0.223851432862    15.994914619560
           H          0.214869589787    -1.276229666420    -0.515068567138     1.007825032070
           H          0.242909589787    -1.141939666420     1.236841432862     1.007825032070
           C          1.772932589787     0.513826333580    -1.075992567138    12.000000000000
           H          1.001308589787     0.997725333580    -1.671868567138     1.007825032070
           H          2.631093589787     1.168667333580    -1.015618567138     1.007825032070
           H          2.066377589787    -0.407915666420    -1.574061567138     1.007825032070

  Charge       = 0
  Multiplicity = 1
  Basis Set: 6-31G*
  Basis Set:

    Orbital Energies (a.u.)
    -----------------------

    Doubly Occupied:

       1A    -20.562107     2A    -20.560038     3A    -11.273057
       4A    -11.271330     5A    -11.268232     6A     -1.390559
       7A     -1.365308     8A     -1.015104     9A     -0.925417
      10A     -0.838861    11A     -0.713391    12A     -0.671420
      13A     -0.662579    14A     -0.638696    15A     -0.591819
      16A     -0.577883    17A     -0.541854    18A     -0.492529
      19A     -0.479204    20A     -0.464678    21A     -0.404182

  @DF-RHF Final Energy:  -267.94604249503618

   => Energetics <=

    Nuclear Repulsion Energy =            192.9375479969065168
    One-Electron Energy =                -748.3506606300855992
    Two-Electron Energy =                 287.4670701381430149
    DFT Exchange-Correlation Energy =       0.0000000000000000
    Empirical Dispersion Energy =           0.0000000000000000
    PCM Polarization Energy =               0.0000000000000000
    EFP Energy =                            0.0000000000000000
    Total Energy =                       -267.9460424950360107

  Mulliken Charges: (a.u.)
   Center  Symbol    Alpha    Beta     Spin     Total
       1     H     0.28202  0.28202  0.00000  0.43596
       2     O     4.37082  4.37082  0.00000 -0.74163
       3     C     3.00376  3.00376  0.00000 -0.00751
       4     C     3.00856  3.00856  0.00000 -0.01711
       5     H     0.42924  0.42924  0.00000  0.14151
       6     H     0.40765  0.40765  0.00000  0.18470
       7     O     4.30392  4.30392  0.00000 -0.60785
       8     H     0.43658  0.43658  0.00000  0.12683
       9     H     0.40722  0.40722  0.00000  0.18556
      10     C     3.08261  3.08261  0.00000 -0.16521
      11     H     0.43153  0.43153  0.00000  0.13694
      12     H     0.40908  0.40908  0.00000  0.18184
      13     H     0.42701  0.42701  0.00000  0.14597

   Total alpha = 21.00000, Total beta = 21.00000, Total charge = -0.00000
