  ==> Input File <==

--------------------------------------------------------------------------
set {
	reference rhf
	basis 6-31G*
}

set_num_threads( 1 )
memory 2 gb

molecule MOL {
0 1

H	 -2.948938	 1.747469	 1.316895
C	 -2.650465	 0.727987	 1.167795
C	 -1.578715	 0.456948	 0.459353
H	 -3.244615	 -0.050522	 1.608046
O	 -1.180634	 -0.819263	 0.215062
H	 -0.966198	 1.222177	 0.016134
C	 0.051604	 -1.018856	 -0.387932
C	 1.043764	 0.054862	 -0.001873
H	 -0.017620	 -1.041351	 -1.469781
H	 0.437898	 -1.966374	 -0.042284
F	 2.212596	 -0.199467	 -0.571921
F	 0.652529	 1.252447	 -0.405055
F	 1.230877	 0.110694	 1.300533

	symmetry c1
}
set optking {
	frozen_dihedral = ("
		11 8 7 9,
		6 3 2 1,
		6 3 5 7
	")
}

ee = energy('scf')
oeprop('DIPOLE', 'QUADRUPOLE', 'MULLIKEN_CHARGES')
f=open( 'psi4out.xyz', 'w' )
f.write( "13  " )
f.write( str(ee) + "\n" )
f.write( MOL.save_string_xyz() )
f.close()
--------------------------------------------------------------------------

    Molecular point group: c1

    Geometry (in Angstrom), charge = 0, multiplicity = 1:

       Center              X                  Y                   Z               Mass
    ------------   -----------------  -----------------  -----------------  -----------------
           H         -3.064271575707     1.655697416166     1.111583353367     1.007825032070
           C         -2.765798575707     0.636215416166     0.962483353367    12.000000000000
           C         -1.694048575707     0.365176416166     0.254041353367    12.000000000000
           H         -3.359948575707    -0.142293583834     1.402734353367     1.007825032070
           O         -1.295967575707    -0.911034583834     0.009750353367    15.994914619560
           H         -1.081531575707     1.130405416166    -0.189177646633     1.007825032070
           C         -0.063729575707    -1.110627583834    -0.593243646633    12.000000000000
           C          0.928430424293    -0.036909583834    -0.207184646633    12.000000000000
           H         -0.132953575707    -1.133122583834    -1.675092646633     1.007825032070
           H          0.322564424293    -2.058145583834    -0.247595646633     1.007825032070
           F          2.097262424293    -0.291238583834    -0.777232646633    18.998403224000
           F          0.537195424293     1.160675416166    -0.610366646633    18.998403224000
           F          1.115543424293     0.018922416166     1.095221353367    18.998403224000

  Charge       = 0
  Multiplicity = 1
  Basis Set: 6-31G*
  Basis Set:

    Orbital Energies (a.u.)
    -----------------------

    Doubly Occupied:

       1A    -26.360251     2A    -26.353033     3A    -26.352107
       4A    -20.602353     5A    -11.515136     6A    -11.319662
       7A    -11.280777     8A    -11.206228     9A     -1.756611
      10A     -1.658104    11A     -1.648938    12A     -1.434530
      13A     -1.082721    14A     -1.015396    15A     -0.936274
      16A     -0.858311    17A     -0.846153    18A     -0.836709
      19A     -0.769076    20A     -0.732390    21A     -0.718410
      22A     -0.709095    23A     -0.684649    24A     -0.662484
      25A     -0.660591    26A     -0.657130    27A     -0.642454
      28A     -0.582822    29A     -0.554786    30A     -0.524959
      31A     -0.491438    32A     -0.342705

  @DF-RHF Final Energy:  -527.51152938626137

   => Energetics <=

    Nuclear Repulsion Energy =            423.6131420999433885
    One-Electron Energy =               -1570.6567664109275029
    Two-Electron Energy =                 619.5320949247236513
    DFT Exchange-Correlation Energy =       0.0000000000000000
    Empirical Dispersion Energy =           0.0000000000000000
    PCM Polarization Energy =               0.0000000000000000
    EFP Energy =                            0.0000000000000000
    Total Energy =                       -527.5115293862604631

  Mulliken Charges: (a.u.)
   Center  Symbol    Alpha    Beta     Spin     Total
       1     H     0.40896  0.40896  0.00000  0.18209
       2     C     3.23874  3.23874  0.00000 -0.47749
       3     C     2.92751  2.92751  0.00000  0.14497
       4     H     0.40650  0.40650  0.00000  0.18700
       5     O     4.31093  4.31093  0.00000 -0.62187
       6     H     0.36782  0.36782  0.00000  0.26437
       7     C     3.03364  3.03364  0.00000 -0.06728
       8     C     2.47594  2.47594  0.00000  1.04812
       9     H     0.40366  0.40366  0.00000  0.19269
      10     H     0.39231  0.39231  0.00000  0.21538
      11     F     4.68149  4.68149  0.00000 -0.36298
      12     F     4.67886  4.67886  0.00000 -0.35772
      13     F     4.67364  4.67364  0.00000 -0.34728

   Total alpha = 32.00000, Total beta = 32.00000, Total charge =  0.00000
