                              Psi4 1.0.54 Driver

  ==> Input File <==

--------------------------------------------------------------------------
set {
	reference rhf
	basis cc-pvtz
}

set_num_threads( 4 )
memory 2 gb

molecule MOL {
0 1

H	 -0.366580	 2.045936	 -0.305741
C	 0.351829	 1.335402	 0.083179
N	 -0.000018	 0.000080	 -0.334836
H	 1.327156	 1.599860	 -0.305475
H	 0.380566	 1.445403	 1.171445
C	 -0.679811	 -0.730309	 0.707657
C	 -0.747205	 -0.000040	 -1.569320
H	 -0.865891	 -1.747058	 0.385652
H	 -0.061503	 -0.769037	 1.595567
H	 -1.639116	 -0.282089	 0.983161
H	 -0.178196	 0.494942	 -2.346111
H	 -0.933441	 -1.017575	 -1.888794
H	 -1.711925	 0.508555	 -1.481247

	symmetry c1
}
set optking {
	frozen_dihedral = ("
		6 3 2 1
	")
}

ee,wfn = optimize('scf', return_wfn=True)
oeprop( wfn, 'DIPOLE', 'QUADRUPOLE', 'MULLIKEN_CHARGES')
f=open( 'psi4out.xyz', 'w' )
f.write( "13  " )
f.write( str(ee) + "\n" )
f.write( MOL.save_string_xyz() )
f.close()
--------------------------------------------------------------------------

    Molecular point group: c1
  Charge       = 0
  Multiplicity = 1
  Basis Set: CC-PVTZ
  Basis Set:
  @DF-RHF Final Energy:  -173.32896255995453
    Total Energy =                       -173.3289625599545332
    Molecular point group: c1
  Basis Set: CC-PVTZ
  Basis Set:
  Basis Set: CC-PVTZ
  Basis Set:
  @DF-RHF Final Energy:  -173.32988332384826
    Total Energy =                       -173.3298833238483496
  Basis Set: CC-PVTZ
  Basis Set:
  Basis Set: CC-PVTZ
  Basis Set:
  @DF-RHF Final Energy:  -173.33003245405732
    Total Energy =                       -173.3300324540572035
  Basis Set: CC-PVTZ
  Basis Set:
  Basis Set: CC-PVTZ
  Basis Set:
  @DF-RHF Final Energy:  -173.33004397810808
    Total Energy =                       -173.3300439781081650
  Basis Set: CC-PVTZ
  Basis Set:
  Charge       = 0
  Multiplicity = 1
  Basis Set: CC-PVTZ
  Basis Set:

    Orbital Energies (a.u.)
    -----------------------

    Doubly Occupied:

       1A    -15.535304     2A    -11.234316     3A    -11.234205
       4A    -11.233974     5A     -1.222981     6A     -0.953328
       7A     -0.952114     8A     -0.805668     9A     -0.639085
      10A     -0.631815    11A     -0.629662    12A     -0.548207
      13A     -0.542732    14A     -0.516743    15A     -0.504401
      16A     -0.502433    17A     -0.340496

  @DF-RHF Final Energy:  -173.33004493216762

   => Energetics <=

    Nuclear Repulsion Energy =            139.0327829971173230
    One-Electron Energy =                -508.6707277377605578
    Two-Electron Energy =                 196.3078998084756392
    DFT Exchange-Correlation Energy =       0.0000000000000000
    Empirical Dispersion Energy =           0.0000000000000000
    PCM Polarization Energy =               0.0000000000000000
    EFP Energy =                            0.0000000000000000
    Total Energy =                       -173.3300449321675671
    Molecular point group: c1
  Basis Set: CC-PVTZ
  Basis Set:

  -Total Gradient:
     Atom            X                  Y                   Z
    ------   -----------------  -----------------  -----------------
       1        0.002595655440     0.000523559743    -0.004064951608
       2       -0.002001917642    -0.001175479009     0.005754633690
       3       -0.003846278141     0.002002966015    -0.002794386307
       4       -0.000027800696    -0.000002859468    -0.000016017232
       5        0.000003685015    -0.000017386588    -0.000008151090
       6        0.003256154598    -0.001323434899     0.001166821486
       7        0.000010636754     0.000006395326    -0.000030956045
       8       -0.000000077761     0.000008162755    -0.000002387120
       9       -0.000002612144    -0.000013271409     0.000016527531
      10        0.000012695977    -0.000004966520    -0.000013003408
      11       -0.000012578256    -0.000000280272    -0.000008761496
      12       -0.000003685949     0.000001458729    -0.000011747865
      13        0.000016122806    -0.000004864402     0.000012379463

  **** Optimization is complete! (in 5 steps) ****
    Final optimized geometry and variables:
    Molecular point group: c1

    Geometry (in Angstrom), charge = 0, multiplicity = 1:

    H           -0.030381053731     1.951734180646     0.046407190097
    C            0.656797721242     1.174050166154     0.382624230574
    N            0.252076933167    -0.148109293528    -0.045746686855
    H            1.628851188569     1.423068708367    -0.031875464773
    H            0.735466912293     1.222625573668     1.459626731873
    C           -0.421193492054    -0.918603104587     0.968564966100
    C           -0.424776243123    -0.145016360012    -1.315259554120
    H           -0.598409792065    -1.923750143972     0.606144432614
    H            0.199762325617    -0.990876320489     1.851951635653
    H           -1.386923487063    -0.497840042080     1.267303629251
    H            0.181585453786     0.362986353739    -2.055518346961
    H           -0.582312175100    -1.160429429806    -1.657074737673
    H           -1.397645814619     0.355484077374    -1.279152677852

  Mulliken Charges: (a.u.)
   Center  Symbol    Alpha    Beta     Spin     Total
       1     H     0.46964  0.46964  0.00000  0.06071
       2     C     3.08712  3.08712  0.00000 -0.17423
       3     N     3.59740  3.59740  0.00000 -0.19481
       4     H     0.45173  0.45173  0.00000  0.09653
       5     H     0.45582  0.45582  0.00000  0.08836
       6     C     3.08840  3.08840  0.00000 -0.17680
       7     C     3.08979  3.08979  0.00000 -0.17957
       8     H     0.45359  0.45359  0.00000  0.09281
       9     H     0.45271  0.45271  0.00000  0.09459
      10     H     0.47428  0.47428  0.00000  0.05143
      11     H     0.45265  0.45265  0.00000  0.09470
      12     H     0.45353  0.45353  0.00000  0.09294
      13     H     0.47333  0.47333  0.00000  0.05334

   Total alpha = 17.00000, Total beta = 17.00000, Total charge =  0.00000

*** Psi4 exiting successfully. Buy a developer a beer!
