                              Psi4 1.0.54 Driver

  ==> Input File <==

--------------------------------------------------------------------------
set {
	reference rhf
	basis cc-pvtz
}

set_num_threads( 4 )
memory 2 gb

molecule MOL {
0 1

H	 3.459101	 0.139266	 -0.762951
C	 2.749156	 -0.051729	 0.031265
C	 1.322304	 0.099773	 -0.484271
H	 2.929445	 -1.053887	 0.403481
H	 2.954281	 0.646699	 0.834672
C	 0.308557	 -0.162619	 0.622645
H	 1.143368	 -0.594400	 -1.295960
H	 1.169532	 1.100095	 -0.870217
N	 -1.069352	 -0.004081	 0.085342
H	 0.371632	 -1.172932	 0.991288
H	 0.400391	 0.548875	 1.426218
O	 -1.219945	 0.765984	 -0.802858
O	 -1.929011	 -0.636798	 0.600703

	symmetry c1
}
set optking {
	frozen_dihedral = ("
		12 9 6 3
	")
}

ee,wfn = optimize('scf', return_wfn=True)
oeprop( wfn, 'DIPOLE', 'QUADRUPOLE', 'MULLIKEN_CHARGES')
f=open( 'psi4out.xyz', 'w' )
f.write( "13  " )
f.write( str(ee) + "\n" )
f.write( MOL.save_string_xyz() )
f.close()
--------------------------------------------------------------------------

    Molecular point group: c1
  Charge       = 0
  Multiplicity = 1
  Basis Set: CC-PVTZ
  Basis Set:
  @DF-RHF Final Energy:  -321.85944648280537
    Total Energy =                       -321.8594464828055379
    Molecular point group: c1
  Basis Set: CC-PVTZ
  Basis Set:
  Basis Set: CC-PVTZ
  Basis Set:
  @DF-RHF Final Energy:  -321.85973068537180
    Total Energy =                       -321.8597306853718010
  Basis Set: CC-PVTZ
  Basis Set:
  Basis Set: CC-PVTZ
  Basis Set:
  @DF-RHF Final Energy:  -321.86060483989314
    Total Energy =                       -321.8606048398930852
  Basis Set: CC-PVTZ
  Basis Set:
  Basis Set: CC-PVTZ
  Basis Set:
  @DF-RHF Final Energy:  -321.86069900011682
    Total Energy =                       -321.8606990001167105
  Basis Set: CC-PVTZ
  Basis Set:
  Basis Set: CC-PVTZ
  Basis Set:
  @DF-RHF Final Energy:  -321.86047922813452
    Total Energy =                       -321.8604792281346363
  Basis Set: CC-PVTZ
  Basis Set:
  Basis Set: CC-PVTZ
  Basis Set:
  @DF-RHF Final Energy:  -321.86071298205434
    Total Energy =                       -321.8607129820543946
  Basis Set: CC-PVTZ
  Basis Set:
  Charge       = 0
  Multiplicity = 1
  Basis Set: CC-PVTZ
  Basis Set:

    Orbital Energies (a.u.)
    -----------------------

    Doubly Occupied:

       1A    -20.591692     2A    -20.589956     3A    -15.838260
       4A    -11.298744     5A    -11.248147     6A    -11.235254
       7A     -1.637058     8A     -1.421209     9A     -1.131950
      10A     -1.026934    11A     -0.884793    12A     -0.828122
      13A     -0.763632    14A     -0.748783    15A     -0.730697
      16A     -0.660793    17A     -0.606527    18A     -0.579289
      19A     -0.552522    20A     -0.522324    21A     -0.509918
      22A     -0.487744    23A     -0.474423    24A     -0.454371

  @DF-RHF Final Energy:  -321.86071350375562

   => Energetics <=

    Nuclear Repulsion Energy =            247.6485860850307006
    One-Electron Energy =                -929.3723123261235060
    Two-Electron Energy =                 359.8630127373373284
    DFT Exchange-Correlation Energy =       0.0000000000000000
    Empirical Dispersion Energy =           0.0000000000000000
    PCM Polarization Energy =               0.0000000000000000
    EFP Energy =                            0.0000000000000000
    Total Energy =                       -321.8607135037554485
    Molecular point group: c1
  Basis Set: CC-PVTZ
  Basis Set:

  -Total Gradient:
     Atom            X                  Y                   Z
    ------   -----------------  -----------------  -----------------
       1        0.000001645838    -0.000001946673     0.000006924123
       2        0.000013926864    -0.000005060590    -0.000010394453
       3        0.000009724339     0.000318320831     0.000043004145
       4        0.000002989993    -0.000004513034     0.000000028904
       5       -0.000000847828     0.000002760905    -0.000001755014
       6       -0.000025957535    -0.000525899190    -0.000186933325
       7        0.000006549659     0.000004050492     0.000007006753
       8       -0.000004455311    -0.000006097749     0.000001143952
       9       -0.000212395405     0.000574015996     0.000352492408
      10       -0.000034790289    -0.000004763722    -0.000004214157
      11       -0.000000379144     0.000002928935    -0.000010042413
      12        0.000180582314    -0.000251362297    -0.000309478145
      13        0.000063406503    -0.000102433906     0.000112217219

  **** Optimization is complete! (in 7 steps) ****
    Final optimized geometry and variables:
    Molecular point group: c1

    Geometry (in Angstrom), charge = 0, multiplicity = 1:

    H            3.454992984459     0.229868689042    -0.922953180743
    C            2.769258681725     0.038952286629    -0.107835381064
    C            1.326158756753     0.156410475110    -0.590026429496
    H            2.981242817147    -0.952024411563     0.277876163226
    H            2.982692170044     0.755322764236     0.677983351192
    C            0.359888773057    -0.112823564969     0.547309533641
    H            1.144003427544    -0.551896664153    -1.389624292083
    H            1.143701355451     1.141427778991    -0.993645268326
    N           -1.073372045419    -0.045691936149     0.134179211541
    H            0.481567102870    -1.090502878096     0.982366774784
    H            0.447179829680     0.626675690258     1.332226230215
    O           -1.365610147317     0.681357419733    -0.753776280267
    O           -1.833370247841    -0.713289877593     0.751510311234

  Mulliken Charges: (a.u.)
   Center  Symbol    Alpha    Beta     Spin     Total
       1     H     0.44134  0.44134  0.00000  0.11732
       2     C     3.15227  3.15227  0.00000 -0.30454
       3     C     3.09298  3.09298  0.00000 -0.18597
       4     H     0.45272  0.45272  0.00000  0.09457
       5     H     0.45288  0.45288  0.00000  0.09423
       6     C     3.04452  3.04452  0.00000 -0.08903
       7     H     0.44308  0.44308  0.00000  0.11384
       8     H     0.43477  0.43477  0.00000  0.13046
       9     N     3.27454  3.27454  0.00000  0.45093
      10     H     0.43176  0.43176  0.00000  0.13647
      11     H     0.43629  0.43629  0.00000  0.12742
      12     O     4.17086  4.17086  0.00000 -0.34172
      13     O     4.17199  4.17199  0.00000 -0.34398

   Total alpha = 24.00000, Total beta = 24.00000, Total charge = -0.00000

*** Psi4 exiting successfully. Buy a developer a beer!
