                              Psi4 1.0.54 Driver

  ==> Input File <==

--------------------------------------------------------------------------
set {
	reference rhf
	basis cc-pvtz
}

set_num_threads( 4 )
memory 2 gb

molecule MOL {
0 1

H	 3.300163	 3.358746	 -3.365494
C	 3.496406	 2.652528	 -2.566988
C	 2.282658	 2.498235	 -1.656860
H	 3.763773	 1.704957	 -3.021784
H	 4.359531	 3.009479	 -2.014358
C	 2.526420	 1.517437	 -0.512051
H	 1.435184	 2.164478	 -2.244510
H	 2.016506	 3.469334	 -1.245819
C	 1.330446	 1.347420	 0.419414
H	 2.799378	 0.550202	 -0.915509
H	 3.370561	 1.863854	 0.077190
C	 0.166485	 0.574257	 -0.177158
H	 1.631320	 0.800836	 1.309632
H	 0.972679	 2.310114	 0.772599
C	 -1.180025	 0.697761	 0.509157
O	 0.302522	 -0.119649	 -1.132806
C	 -2.285431	 -0.137488	 -0.145671
H	 -1.447360	 1.745713	 0.496200
H	 -1.065514	 0.394096	 1.546399
C	 -3.646545	 0.082747	 0.508954
H	 -2.348635	 0.118247	 -1.199806
H	 -2.034895	 -1.192387	 -0.096473
C	 -4.757412	 -0.737227	 -0.138149
H	 -3.900211	 1.137405	 0.459735
H	 -3.580878	 -0.166775	 1.564416
H	 -4.867876	 -0.486707	 -1.187777
H	 -4.549650	 -1.800049	 -0.072540
H	 -5.709585	 -0.556397	 0.346597

	symmetry c1
}
set optking {
	frozen_dihedral = ("
		16 12 15 17
	")
}

ee,wfn = optimize('scf', return_wfn=True)
oeprop( wfn, 'DIPOLE', 'QUADRUPOLE', 'MULLIKEN_CHARGES')
f=open( 'psi4out.xyz', 'w' )
f.write( "28  " )
f.write( str(ee) + "\n" )
f.write( MOL.save_string_xyz() )
f.close()
--------------------------------------------------------------------------

    Molecular point group: c1
  Charge       = 0
  Multiplicity = 1
  Basis Set: CC-PVTZ
  Basis Set:
  @DF-RHF Final Energy:  -426.32147697765504
    Total Energy =                       -426.3214769776559478
    Molecular point group: c1
  Basis Set: CC-PVTZ
  Basis Set:
  Basis Set: CC-PVTZ
  Basis Set:
  @DF-RHF Final Energy:  -426.32183736983495
    Total Energy =                       -426.3218373698355208
  Basis Set: CC-PVTZ
  Basis Set:
  Basis Set: CC-PVTZ
  Basis Set:
  @DF-RHF Final Energy:  -426.32201637930632
    Total Energy =                       -426.3220163793068878
  Basis Set: CC-PVTZ
  Basis Set:
  Basis Set: CC-PVTZ
  Basis Set:
  @DF-RHF Final Energy:  -426.32208697559599
    Total Energy =                       -426.3220869755950844
  Basis Set: CC-PVTZ
  Basis Set:
  Basis Set: CC-PVTZ
  Basis Set:
  @DF-RHF Final Energy:  -426.32209011922396
    Total Energy =                       -426.3220901192239580
  Basis Set: CC-PVTZ
  Basis Set:
  Basis Set: CC-PVTZ
  Basis Set:
  @DF-RHF Final Energy:  -426.32209171311081
    Total Energy =                       -426.3220917131109218
  Basis Set: CC-PVTZ
  Basis Set:
  Charge       = 0
  Multiplicity = 1
  Basis Set: CC-PVTZ
  Basis Set:

    Orbital Energies (a.u.)
    -----------------------

    Doubly Occupied:

       1A    -20.538100     2A    -11.318038     3A    -11.229051
       4A    -11.228855     5A    -11.217195     6A    -11.215050
       7A    -11.214539     8A    -11.211137     9A    -11.207853
      10A    -11.204260    11A     -1.398584    12A     -1.089692
      13A     -1.078714    14A     -1.023313    15A     -0.991608
      16A     -0.911619    17A     -0.865750    18A     -0.806670
      19A     -0.791626    20A     -0.725184    21A     -0.669944
      22A     -0.657382    23A     -0.627933    24A     -0.619653
      25A     -0.611357    26A     -0.582141    27A     -0.581148
      28A     -0.575018    29A     -0.535950    30A     -0.529205
      31A     -0.520766    32A     -0.508152    33A     -0.492566
      34A     -0.483633    35A     -0.474070    36A     -0.470736
      37A     -0.469284    38A     -0.466663    39A     -0.458132
      40A     -0.396671

  @DF-RHF Final Energy:  -426.32209242197030

   => Energetics <=

    Nuclear Repulsion Energy =            530.4593643426475182
    One-Electron Energy =               -1629.5684277321161062
    Two-Electron Energy =                 672.7869709674978367
    DFT Exchange-Correlation Energy =       0.0000000000000000
    Empirical Dispersion Energy =           0.0000000000000000
    PCM Polarization Energy =               0.0000000000000000
    EFP Energy =                            0.0000000000000000
    Total Energy =                       -426.3220924219708650
    Molecular point group: c1
  Basis Set: CC-PVTZ
  Basis Set:

  -Total Gradient:
     Atom            X                  Y                   Z
    ------   -----------------  -----------------  -----------------
       1       -0.000007290837     0.000012990134    -0.000009332820
       2        0.000009274645    -0.000007505912     0.000000918876
       3        0.000018966801     0.000036742802     0.000003541613
       4        0.000001287335    -0.000009770811    -0.000001767711
       5        0.000010782780     0.000003301574     0.000007390143
       6        0.000023241090    -0.000017043504    -0.000006968256
       7       -0.000023771484    -0.000006672781    -0.000017636239
       8       -0.000005189668     0.000009362170    -0.000000617916
       9       -0.000030983222     0.000007443661     0.000002508597
      10       -0.000000285716    -0.000012215359    -0.000000026902
      11        0.000006077213    -0.000000496989     0.000007072214
      12       -0.000303231721     0.000906441326    -0.000668661138
      13       -0.000002441651    -0.000017465724     0.000005074964
      14       -0.000007154079     0.000017935949     0.000007796256
      15        0.000203668456    -0.000804705051     0.000536886076
      16        0.000199237559    -0.000584871507     0.000350260797
      17       -0.000076833422     0.000450750360    -0.000260834403
      18       -0.000016418286     0.000037114174     0.000014541543
      19        0.000001861753     0.000014700601     0.000034404618
      20       -0.000000538502    -0.000054448384    -0.000001144508
      21       -0.000007029990     0.000004400310    -0.000018032467
      22        0.000027974285    -0.000039875324    -0.000017906848
      23        0.000009661090     0.000040033614     0.000002296175
      24       -0.000028162247     0.000033434906    -0.000002805021
      25        0.000006241317    -0.000002665677     0.000060459058
      26       -0.000011844792    -0.000000195694    -0.000040663362
      27        0.000013313473    -0.000023803966     0.000006049177
      28       -0.000010412183     0.000007085098     0.000007197481

  **** Optimization is complete! (in 7 steps) ****
    Final optimized geometry and variables:
    Molecular point group: c1

    Geometry (in Angstrom), charge = 0, multiplicity = 1:

    H            3.625365830868     2.463550378398    -2.850524391285
    C            3.774628176898     1.780525645378    -2.022214848050
    C            2.514994516729     1.663144106551    -1.170873815056
    H            4.056110159384     0.817557887572    -2.434163431225
    H            4.611843465376     2.147724732416    -1.437350582606
    C            2.691955243618     0.716884309481     0.014700198160
    H            1.695477259803     1.317031269005    -1.790066380933
    H            2.236782957667     2.648354563652    -0.803797727481
    C            1.448105676478     0.582322547954     0.886767956975
    H            2.979346930745    -0.263823260401    -0.344271703104
    H            3.506802235277     1.076957277378     0.636063373818
    C            0.314313958521    -0.216686922251     0.267961228287
    H            1.696044921383     0.072939385647     1.815619807276
    H            1.072010424692     1.557749972972     1.180784855690
    C           -1.026583480653    -0.113224325763     0.967706113806
    O            0.476992511594    -0.908960471546    -0.683773768551
    C           -2.127555472350    -0.963204545659     0.349958877684
    H           -1.311702771007     0.936231482474     0.972548047080
    H           -0.873707275066    -0.375051824536     2.012361271243
    C           -3.457989108475    -0.826904752920     1.085182468249
    H           -2.252363646454    -0.682733234176    -0.689887287338
    H           -1.816549539482    -2.001951336330     0.343392875559
    C           -4.565149598110    -1.675153503749     0.468768473908
    H           -3.764916590589     0.215918226726     1.089203750770
    H           -3.327253730233    -1.108839802445     2.126887431755
    H           -4.743647049776    -1.394026553908    -0.563627146383
    H           -4.303878259092    -2.727886664542     0.482408320680
    H           -5.496990855367    -1.557972213464     1.009930215844

  Mulliken Charges: (a.u.)
   Center  Symbol    Alpha    Beta     Spin     Total
       1     H     0.44870  0.44870  0.00000  0.10260
       2     C     3.15163  3.15163  0.00000 -0.30327
       3     C     3.08419  3.08419  0.00000 -0.16838
       4     H     0.45182  0.45182  0.00000  0.09636
       5     H     0.45685  0.45685  0.00000  0.08631
       6     C     3.08759  3.08759  0.00000 -0.17517
       7     H     0.44595  0.44595  0.00000  0.10811
       8     H     0.45853  0.45853  0.00000  0.08295
       9     C     3.11877  3.11877  0.00000 -0.23753
      10     H     0.44474  0.44474  0.00000  0.11052
      11     H     0.44755  0.44755  0.00000  0.10490
      12     C     2.87331  2.87331  0.00000  0.25337
      13     H     0.43551  0.43551  0.00000  0.12897
      14     H     0.44344  0.44344  0.00000  0.11311
      15     C     3.10795  3.10795  0.00000 -0.21590
      16     O     4.17685  4.17685  0.00000 -0.35369
      17     C     3.07818  3.07818  0.00000 -0.15635
      18     H     0.44540  0.44540  0.00000  0.10921
      19     H     0.44544  0.44544  0.00000  0.10913
      20     C     3.08582  3.08582  0.00000 -0.17164
      21     H     0.44685  0.44685  0.00000  0.10630
      22     H     0.44679  0.44679  0.00000  0.10642
      23     C     3.14972  3.14972  0.00000 -0.29943
      24     H     0.45599  0.45599  0.00000  0.08802
      25     H     0.45592  0.45592  0.00000  0.08815
      26     H     0.45391  0.45391  0.00000  0.09219
      27     H     0.45388  0.45388  0.00000  0.09224
      28     H     0.44874  0.44874  0.00000  0.10251

   Total alpha = 40.00000, Total beta = 40.00000, Total charge =  0.00000

*** Psi4 exiting successfully. Buy a developer a beer!
