  ==> Input File <==

--------------------------------------------------------------------------
set {
	reference rhf
	basis 6-31G*
}

set_num_threads( 4 )
memory 2 gb

molecule MOL {
0 1

O	 1.763701	 0.480270	 0.549133
C	 2.701189	 0.057885	 -0.047330
C	 3.313190	 0.679030	 -1.279573
O	 3.347903	 -1.046386	 0.304773
C	 2.609594	 1.961789	 -1.717292
H	 4.363692	 0.844352	 -1.064387
H	 3.285763	 -0.070282	 -2.066642
C	 3.151796	 2.547498	 -3.025518
H	 2.684523	 2.700268	 -0.924731
H	 1.551470	 1.753467	 -1.833041
C	 4.592199	 3.062502	 -2.953953
H	 2.503421	 3.369131	 -3.320904
H	 3.073509	 1.802655	 -3.816144
C	 5.048416	 3.735713	 -4.249967
H	 4.678355	 3.770788	 -2.131319
H	 5.271628	 2.244553	 -2.725244
C	 6.488085	 4.249619	 -4.191802
H	 4.380853	 4.564625	 -4.479093
H	 4.952361	 3.031335	 -5.074786
C	 6.934603	 4.923910	 -5.488588
H	 6.586082	 4.952857	 -3.367487
H	 7.157326	 3.421704	 -3.967182
H	 7.958576	 5.277275	 -5.416337
H	 6.305767	 5.778232	 -5.722885
H	 6.880789	 4.235389	 -6.327227
C	 4.728119	 -1.109107	 -0.004993
H	 4.882018	 -1.033965	 -1.071845
H	 5.068212	 -2.067527	 0.355250
H	 5.265056	 -0.311663	 0.488280

	symmetry c1
}
set optking {
	frozen_dihedral = ("
		1 2 4 26
	")
}

ee = optimize('scf')
oeprop('DIPOLE', 'QUADRUPOLE', 'MULLIKEN_CHARGES')
f=open( 'psi4out.xyz', 'w' )
f.write( "29  " )
f.write( str(ee) + "\n" )
f.write( MOL.save_string_xyz() )
f.close()
--------------------------------------------------------------------------

    Molecular point group: c1
  Charge       = 0
  Multiplicity = 1
  Basis Set: 6-31G*
  Basis Set:
  @DF-RHF Final Energy:  -501.01793611568178
    Total Energy =                       -501.0179361156824598
    Molecular point group: c1
  Basis Set: 6-31G*
  Basis Set:
  Basis Set: 6-31G*
  Basis Set:
  @DF-RHF Final Energy:  -501.01751381109750
    Total Energy =                       -501.0175138110975013
  Basis Set: 6-31G*
  Basis Set:
  Basis Set: 6-31G*
  Basis Set:
  @DF-RHF Final Energy:  -501.02536805253874
    Total Energy =                       -501.0253680525383970
  Basis Set: 6-31G*
  Basis Set:
  Basis Set: 6-31G*
  Basis Set:
  @DF-RHF Final Energy:  -501.02675321071695
    Total Energy =                       -501.0267532107175157
  Basis Set: 6-31G*
  Basis Set:
  @DF-RHF Final Energy:  -501.02584253528551
    Total Energy =                       -501.0258425352857330
  @DF-RHF Final Energy:  -501.02715879454945
    Total Energy =                       -501.0271587945488818
  Basis Set: 6-31G*
  Basis Set:
  @DF-RHF Final Energy:  -501.02723895854672
    Total Energy =                       -501.0272389585460360
  Basis Set: 6-31G*
  Basis Set:
  Basis Set: 6-31G*
  Basis Set:
  @DF-RHF Final Energy:  -501.02722222053342
    Total Energy =                       -501.0272222205335311
  Basis Set: 6-31G*
  Basis Set:
  Basis Set: 6-31G*
  Basis Set:
  @DF-RHF Final Energy:  -501.02724192863320
    Total Energy =                       -501.0272419286334298
  Basis Set: 6-31G*
  Basis Set:
  Charge       = 0
  Multiplicity = 1
  Basis Set: 6-31G*
  Basis Set:

    Orbital Energies (a.u.)
    -----------------------

    Doubly Occupied:

       1A    -20.597773     2A    -20.543092     3A    -11.373588
       4A    -11.295810     5A    -11.243904     6A    -11.223394
       7A    -11.221582     8A    -11.220495     9A    -11.219293
      10A    -11.218107    11A    -11.211856    12A     -1.461303
      13A     -1.365543    14A     -1.101749    15A     -1.068680
      16A     -1.014794    17A     -0.983753    18A     -0.945140
      19A     -0.870140    20A     -0.805685    21A     -0.795091
      22A     -0.762693    23A     -0.703519    24A     -0.684833
      25A     -0.673748    26A     -0.654441    27A     -0.633637
      28A     -0.610731    29A     -0.596407    30A     -0.589951
      31A     -0.572063    32A     -0.552370    33A     -0.547961
      34A     -0.534975    35A     -0.523480    36A     -0.508150
      37A     -0.496429    38A     -0.481983    39A     -0.474052
      40A     -0.466027    41A     -0.463643    42A     -0.451071
      43A     -0.441652    44A     -0.430946

  @DF-RHF Final Energy:  -501.02724196318400

   => Energetics <=

    Nuclear Repulsion Energy =            614.9995091980961206
    One-Electron Energy =               -1900.7824346748998323
    Two-Electron Energy =                 784.7556835136197151
    DFT Exchange-Correlation Energy =       0.0000000000000000
    Empirical Dispersion Energy =           0.0000000000000000
    PCM Polarization Energy =               0.0000000000000000
    EFP Energy =                            0.0000000000000000
    Total Energy =                       -501.0272419631839966
    Molecular point group: c1
  Basis Set: 6-31G*
  Basis Set:

  -Total Gradient:
     Atom            X                  Y                   Z
    ------   -----------------  -----------------  -----------------
       1        0.002119020682     0.001513869450     0.001835544985
       2       -0.002642010988    -0.001562659794    -0.001287349912
       3       -0.000001355513    -0.000016835081    -0.000010495898
       4       -0.000140243622    -0.001061881483    -0.002952068082
       5       -0.000015419229     0.000000493435    -0.000007976829
       6        0.000010295999     0.000001694312     0.000007418978
       7        0.000000000324     0.000007246920     0.000004174465
       8        0.000004721946     0.000019442956     0.000009997593
       9       -0.000004187922     0.000002187706     0.000000376489
      10        0.000004082397    -0.000001171769    -0.000001974433
      11        0.000000928641    -0.000014991617    -0.000003429448
      12        0.000002767976     0.000004625447    -0.000006244953
      13       -0.000000308691    -0.000003897084     0.000007423641
      14       -0.000004273890     0.000003346286    -0.000000153739
      15       -0.000001522170    -0.000008889962     0.000000660264
      16        0.000000863354    -0.000006342888     0.000003213525
      17       -0.000002304181     0.000004668787     0.000001415225
      18       -0.000002337152    -0.000000172181    -0.000003854686
      19        0.000003000487    -0.000000187889     0.000001462090
      20       -0.000000082496     0.000001034338     0.000000453831
      21        0.000001248401     0.000000156638     0.000000493530
      22       -0.000001223156    -0.000000032291    -0.000000351390
      23        0.000000178545    -0.000000032770    -0.000000185848
      24        0.000000216709     0.000000015610    -0.000000103473
      25       -0.000000212753    -0.000000142810    -0.000000033937
      26        0.000656701951     0.001113772837     0.002398730625
      27        0.000006010335    -0.000002353790     0.000005644088
      28        0.000003252179    -0.000000990482    -0.000002836477
      29        0.000002191845     0.000008027178     0.000000049775

  **** Optimization is complete! (in 10 steps) ****
    Final optimized geometry and variables:
    Molecular point group: c1

    Geometry (in Angstrom), charge = 0, multiplicity = 1:

    O           -2.181562846133    -1.143601300339     2.564314672811
    C           -1.297842816118    -1.647210022887     1.960001191674
    C           -0.686801500745    -1.045835658448     0.709586647016
    O           -0.811542602931    -2.826827257467     2.369017744388
    C           -1.433028262562     0.200094423200     0.233621288253
    H            0.355025689297    -0.817822846750     0.913212282016
    H           -0.682650343222    -1.809291610431    -0.064934203693
    C           -0.897724503049     0.773226996668    -1.082935668573
    H           -1.393999453408     0.956949709196     1.009996246682
    H           -2.480853555642    -0.051034778836     0.112700478368
    C            0.520945380486     1.345579408569    -1.010670950377
    H           -1.573694041837     1.562245131121    -1.403799234029
    H           -0.939798882771     0.008192589289    -1.856924436695
    C            0.960505052326     2.012781116452    -2.315567842329
    H            0.573240739479     2.071123515428    -0.200438205113
    H            1.231050813237     0.559344124931    -0.762982919043
    C            2.378759321500     2.583095994084    -2.257176896674
    H            0.263066079878     2.810935073077    -2.563508726568
    H            0.897424246151     1.290882876643    -3.128320695862
    C            2.807949847721     3.251588492210    -3.562768949431
    H            2.443618662794     3.303762241889    -1.444775160513
    H            3.078125314745     1.785794512440    -2.013833246086
    H            3.816999010622     3.645368350460    -3.490199476756
    H            2.148383430334     4.076824506317    -3.815756854621
    H            2.786436312800     2.547201838020    -4.389583291440
    C            0.532076750820    -3.191039992135     2.156514497689
    H            0.753920624475    -3.331784346000     1.105973313164
    H            0.668904486284    -4.128094969439     2.673231876271
    H            1.208269414126    -2.455396793541     2.575497461442

  Mulliken Charges: (a.u.)
   Center  Symbol    Alpha    Beta     Spin     Total
       1     O     4.26275  4.26275  0.00000 -0.52549
       2     C     2.60097  2.60097  0.00000  0.79806
       3     C     3.23256  3.23256  0.00000 -0.46512
       4     O     4.30555  4.30555  0.00000 -0.61110
       5     C     3.15089  3.15089  0.00000 -0.30178
       6     H     0.40322  0.40322  0.00000  0.19357
       7     H     0.40349  0.40349  0.00000  0.19303
       8     C     3.15722  3.15722  0.00000 -0.31444
       9     H     0.40962  0.40962  0.00000  0.18076
      10     H     0.40718  0.40718  0.00000  0.18563
      11     C     3.15491  3.15491  0.00000 -0.30983
      12     H     0.41685  0.41685  0.00000  0.16631
      13     H     0.42413  0.42413  0.00000  0.15174
      14     C     3.15031  3.15031  0.00000 -0.30062
      15     H     0.42171  0.42171  0.00000  0.15657
      16     H     0.42644  0.42644  0.00000  0.14713
      17     C     3.15150  3.15150  0.00000 -0.30299
      18     H     0.42242  0.42242  0.00000  0.15516
      19     H     0.42396  0.42396  0.00000  0.15207
      20     C     3.23943  3.23943  0.00000 -0.47887
      21     H     0.42238  0.42238  0.00000  0.15524
      22     H     0.42427  0.42427  0.00000  0.15146
      23     H     0.41891  0.41891  0.00000  0.16219
      24     H     0.42102  0.42102  0.00000  0.15796
      25     H     0.42177  0.42177  0.00000  0.15647
      26     C     3.09415  3.09415  0.00000 -0.18831
      27     H     0.41793  0.41793  0.00000  0.16414
      28     H     0.39865  0.39865  0.00000  0.20270
      29     H     0.41581  0.41581  0.00000  0.16837

   Total alpha = 44.00000, Total beta = 44.00000, Total charge = -0.00000
