  ==> Input File <==

--------------------------------------------------------------------------
set {
	reference rhf
	basis 6-31G*
}

set_num_threads( 4 )
memory 2 gb

molecule MOL {
0 1

H	 -3.161837	 0.500524	 -0.000234
C	 -2.367097	 -0.232926	 -0.000000
O	 -1.158440	 0.455814	 -0.000122
H	 -2.468853	 -0.861886	 -0.882833
H	 -2.468942	 -0.861421	 0.883154
C	 -0.029776	 -0.365156	 0.000148
C	 1.212077	 0.508798	 0.025998
H	 -0.027387	 -1.000336	 -0.886666
H	 -0.046152	 -1.025542	 0.868208
C	 2.502583	 -0.309415	 0.027715
H	 1.187183	 1.167870	 -0.836362
H	 1.168636	 1.142822	 0.906240
H	 2.577348	 -0.933710	 -0.858338
H	 3.372114	 0.338965	 0.046805
H	 2.558388	 -0.959564	 0.896390

	symmetry c1
}
set optking {
	frozen_dihedral = ("
		8 6 3 2
	")
}

ee = optimize('scf')
oeprop('DIPOLE', 'QUADRUPOLE', 'MULLIKEN_CHARGES')
f=open( 'psi4out.xyz', 'w' )
f.write( "15  " )
f.write( str(ee) + "\n" )
f.write( MOL.save_string_xyz() )
f.close()
--------------------------------------------------------------------------

    Molecular point group: c1
  Charge       = 0
  Multiplicity = 1
  Basis Set: 6-31G*
  Basis Set:
  @DF-RHF Final Energy:  -232.13945189894514
    Total Energy =                       -232.1394518989450830
    Molecular point group: c1
  Basis Set: 6-31G*
  Basis Set:
  Charge       = 0
  Multiplicity = 1
  Basis Set: 6-31G*
  Basis Set:

    Orbital Energies (a.u.)
    -----------------------

    Doubly Occupied:

       1A    -20.553459     2A    -11.266284     3A    -11.264015
       4A    -11.214275     5A    -11.212948     6A     -1.378363
       7A     -1.057288     8A     -0.955320     9A     -0.877267
      10A     -0.809081    11A     -0.674940    12A     -0.654006
      13A     -0.630249    14A     -0.607617    15A     -0.565520
      16A     -0.541252    17A     -0.502800    18A     -0.489077
      19A     -0.478058    20A     -0.461417    21A     -0.413887

  @DF-RHF Final Energy:  -232.13945214019068

   => Energetics <=

    Nuclear Repulsion Energy =            189.7307059314093465
    One-Electron Energy =                -690.5260714236555941
    Two-Electron Energy =                 268.6559133520556770
    DFT Exchange-Correlation Energy =       0.0000000000000000
    Empirical Dispersion Energy =           0.0000000000000000
    PCM Polarization Energy =               0.0000000000000000
    EFP Energy =                            0.0000000000000000
    Total Energy =                       -232.1394521401905422
    Molecular point group: c1
  Basis Set: 6-31G*
  Basis Set:

  -Total Gradient:
     Atom            X                  Y                   Z
    ------   -----------------  -----------------  -----------------
       1       -0.000018608230    -0.000006153007     0.000002804373
       2       -0.000029957574     0.000043387543     0.000100929412
       3        0.000057288092    -0.000019842561    -0.000225242323
       4        0.000010765130    -0.000002832608     0.000005666583
       5        0.000031117574     0.000006601703    -0.000000039599
       6       -0.000137223322    -0.000084767530     0.000235775871
       7       -0.000028886982    -0.000020783995    -0.000028686584
       8        0.000088072616     0.000118693086    -0.000099658473
       9        0.000025658052    -0.000037002794     0.000019078919
      10        0.000002343003    -0.000006863277    -0.000008340725
      11        0.000014695977     0.000021224243    -0.000004264950
      12       -0.000015880782    -0.000017052373    -0.000001702848
      13       -0.000002318593     0.000002222728     0.000007163218
      14        0.000002762366     0.000002258622    -0.000004729240
      15        0.000000172677     0.000000910219     0.000001246366

  **** Optimization is complete! (in 2 steps) ****
    Final optimized geometry and variables:
    Molecular point group: c1

    Geometry (in Angstrom), charge = 0, multiplicity = 1:

    H           -3.162113917042     0.500650723297    -0.013492288417
    C           -2.367077701199    -0.232535621973    -0.011745745575
    O           -1.158288009883     0.455904912312    -0.010560694528
    H           -2.467492832357    -0.862184835423    -0.894251602859
    H           -2.469593089685    -0.860469546439     0.871695087501
    C           -0.029726907475    -0.365457447240    -0.008789306015
    C            1.211980359218     0.508752193726     0.016231015811
    H           -0.026889939440    -1.000601616668    -0.895633915367
    H           -0.046168559485    -1.024931003634     0.859934186674
    C            2.502681014021    -0.309243983177     0.016049554336
    H            1.186008012031     1.168516799998    -0.845608097677
    H            1.169350635904     1.142059911685     0.897014525306
    H            2.576031386999    -0.933614480042    -0.870054190408
    H            3.372256510965     0.339167004600     0.033540210261
    H            2.559988332539    -0.959443812666     0.884610093582

  Mulliken Charges: (a.u.)
   Center  Symbol    Alpha    Beta     Spin     Total
       1     H     0.41216  0.41216  0.00000  0.17568
       2     C     3.07930  3.07930  0.00000 -0.15860
       3     O     4.30582  4.30582  0.00000 -0.61164
       4     H     0.43046  0.43046  0.00000  0.13908
       5     H     0.43040  0.43040  0.00000  0.13920
       6     C     2.98151  2.98151  0.00000  0.03697
       7     C     3.15983  3.15983  0.00000 -0.31966
       8     H     0.43335  0.43335  0.00000  0.13330
       9     H     0.43347  0.43347  0.00000  0.13307
      10     C     3.24791  3.24791  0.00000 -0.49582
      11     H     0.41427  0.41427  0.00000  0.17147
      12     H     0.41440  0.41440  0.00000  0.17120
      13     H     0.42083  0.42083  0.00000  0.15833
      14     H     0.41541  0.41541  0.00000  0.16918
      15     H     0.42088  0.42088  0.00000  0.15825

   Total alpha = 21.00000, Total beta = 21.00000, Total charge =  0.00000
