  ==> Input File <==

--------------------------------------------------------------------------
set {
	reference rhf
	basis 6-31G*
}

set_num_threads( 4 )
memory 2 gb

molecule MOL {
0 1

H	 -1.353220	 1.368631	 -0.149850
C	 -0.779043	 0.441595	 -0.184658
N	 0.538815	 0.649616	 0.000000
O	 -1.300198	 -0.618515	 -0.368433
C	 1.521968	 -0.411503	 0.000000
H	 0.844109	 1.584796	 0.143238
H	 2.150599	 -0.357004	 -0.881901
H	 0.999455	 -1.354525	 0.000000
H	 2.150599	 -0.357004	 0.881901

	symmetry c1
}
set optking {
	frozen_dihedral = ("
		6 3 5 7
	")
}

ee = optimize('scf')
oeprop('DIPOLE', 'QUADRUPOLE', 'MULLIKEN_CHARGES')
f=open( 'psi4out.xyz', 'w' )
f.write( "9  " )
f.write( str(ee) + "\n" )
f.write( MOL.save_string_xyz() )
f.close()
--------------------------------------------------------------------------

    Molecular point group: c1
  Charge       = 0
  Multiplicity = 1
  Basis Set: 6-31G*
  Basis Set:
  @DF-RHF Final Energy:  -207.96094864490075
    Total Energy =                       -207.9609486449007250
    Molecular point group: c1
  Basis Set: 6-31G*
  Basis Set:
  Basis Set: 6-31G*
  Basis Set:
  @DF-RHF Final Energy:  -207.96096653352788
    Total Energy =                       -207.9609665335279090
  Basis Set: 6-31G*
  Basis Set:
  Basis Set: 6-31G*
  Basis Set:
  @DF-RHF Final Energy:  -207.96096441601964
    Total Energy =                       -207.9609644160196069
  Basis Set: 6-31G*
  Basis Set:
  Basis Set: 6-31G*
  Basis Set:
  @DF-RHF Final Energy:  -207.96098027039656
    Total Energy =                       -207.9609802703964760
  Basis Set: 6-31G*
  Basis Set:
  Basis Set: 6-31G*
  Basis Set:
  @DF-RHF Final Energy:  -207.96099236509835
    Total Energy =                       -207.9609923650982921
  Basis Set: 6-31G*
  Basis Set:
  Charge       = 0
  Multiplicity = 1
  Basis Set: 6-31G*
  Basis Set:

    Orbital Energies (a.u.)
    -----------------------

    Doubly Occupied:

       1A    -20.525500     2A    -15.591134     3A    -11.344265
       4A    -11.260273     5A     -1.388980     6A     -1.236640
       7A     -0.968656     8A     -0.807306     9A     -0.746497
      10A     -0.641678    11A     -0.626242    12A     -0.593371
      13A     -0.554414    14A     -0.537146    15A     -0.423788
      16A     -0.390555

  @DF-RHF Final Energy:  -207.96099374506431

   => Energetics <=

    Nuclear Repulsion Energy =            122.4774554701713498
    One-Electron Energy =                -525.6040078515716232
    Two-Electron Energy =                 195.1655586363359021
    DFT Exchange-Correlation Energy =       0.0000000000000000
    Empirical Dispersion Energy =           0.0000000000000000
    PCM Polarization Energy =               0.0000000000000000
    EFP Energy =                            0.0000000000000000
    Total Energy =                       -207.9609937450643997
    Molecular point group: c1
  Basis Set: 6-31G*
  Basis Set:

  -Total Gradient:
     Atom            X                  Y                   Z
    ------   -----------------  -----------------  -----------------
       1       -0.000012109882    -0.000015682749     0.000004831491
       2        0.000132233440     0.000076427430     0.000038014313
       3       -0.000068550874     0.000017792695     0.000147100131
       4       -0.000061995617    -0.000069562311    -0.000030280113
       5       -0.000110466444    -0.000081359148     0.000033814740
       6        0.000031585785    -0.000004829802    -0.000154542851
       7        0.000066001117     0.000086455073     0.000030067633
       8        0.000001650724    -0.000001541902    -0.000040169260
       9        0.000021651756    -0.000007699285    -0.000028836085

  **** Optimization is complete! (in 6 steps) ****
    Final optimized geometry and variables:
    Molecular point group: c1

    Geometry (in Angstrom), charge = 0, multiplicity = 1:

    H           -1.363498756454     1.359962147473    -0.011354283369
    C           -0.786285893689     0.435078616417    -0.052942671684
    N            0.523571430424     0.637041768591     0.187582538683
    O           -1.298862167214    -0.620930269852    -0.279752792794
    C            1.508792154160    -0.421363823157     0.146900070803
    H            0.833731051027     1.574316001051     0.304144921929
    H            2.096108638468    -0.384488807002    -0.764875927703
    H            0.993449125318    -1.367502048587     0.190595842719
    H            2.176651985232    -0.342254474526     0.996297128103

  Mulliken Charges: (a.u.)
   Center  Symbol    Alpha    Beta     Spin     Total
       1     H     0.42747  0.42747  0.00000  0.14506
       2     C     2.74495  2.74495  0.00000  0.51011
       3     N     3.87470  3.87470  0.00000 -0.74941
       4     O     4.28433  4.28433  0.00000 -0.56866
       5     C     3.14392  3.14392  0.00000 -0.28784
       6     H     0.30958  0.30958  0.00000  0.38084
       7     H     0.41378  0.41378  0.00000  0.17243
       8     H     0.38716  0.38716  0.00000  0.22567
       9     H     0.41410  0.41410  0.00000  0.17180

   Total alpha = 16.00000, Total beta = 16.00000, Total charge = -0.00000
