  ==> Input File <==

--------------------------------------------------------------------------
set {
	reference rhf
	basis 6-31G*
}

set_num_threads( 1 )
memory 2 gb

molecule MOL {
0 1

H	 -2.646374	 -0.642757	 1.268656
C	 -2.083525	 -0.384536	 0.393091
O	 -0.807605	 -0.127164	 0.768327
F	 -2.118945	 -1.383102	 -0.486752
F	 -2.621877	 0.670592	 -0.209486
C	 -0.597284	 0.366782	 2.042874
C	 0.364404	 1.540718	 1.911762
Cl	 0.082620	 -0.881631	 3.099477
H	 -1.504592	 0.722075	 2.499309
F	 0.602706	 2.073511	 3.091373
F	 -0.192220	 2.462348	 1.151363
F	 1.504460	 1.188168	 1.369587

	symmetry c1
}
set optking {
	frozen_dihedral = ("
		10 7 6 9,
		9 6 3 2
	")
}

ee = energy('scf')
oeprop('DIPOLE', 'QUADRUPOLE', 'MULLIKEN_CHARGES')
f=open( 'psi4out.xyz', 'w' )
f.write( "12  " )
f.write( str(ee) + "\n" )
f.write( MOL.save_string_xyz() )
f.close()
--------------------------------------------------------------------------

    Molecular point group: c1

    Geometry (in Angstrom), charge = 0, multiplicity = 1:

       Center              X                  Y                   Z               Mass
    ------------   -----------------  -----------------  -----------------  -----------------
           H         -2.126206908019    -1.081426873823    -0.199193724346     1.007825032070
           C         -1.563357908019    -0.823205873823    -1.074758724346    12.000000000000
           O         -0.287437908019    -0.565833873823    -0.699522724346    15.994914619560
           F         -1.598777908019    -1.821771873823    -1.954601724346    18.998403224000
           F         -2.101709908019     0.231922126177    -1.677335724346    18.998403224000
           C         -0.077116908019    -0.071887873823     0.575024275654    12.000000000000
           C          0.884571091981     1.102048126177     0.443912275654    12.000000000000
          CL          0.602787091981    -1.320300873823     1.631627275654    34.968852682000
           H         -0.984424908019     0.283405126177     1.031459275654     1.007825032070
           F          1.122873091981     1.634841126177     1.623523275654    18.998403224000
           F          0.327947091981     2.023678126177    -0.316486724346    18.998403224000
           F          2.024627091981     0.749498126177    -0.098262724346    18.998403224000

  Charge       = 0
  Multiplicity = 1
  Basis Set: 6-31G*
  Basis Set:

    Orbital Energies (a.u.)
    -----------------------

    Doubly Occupied:

       1A   -104.854352     2A    -26.365419     3A    -26.362602
       4A    -26.361417     5A    -26.341904     6A    -26.341083
       7A    -20.651661     8A    -11.533534     9A    -11.490981
      10A    -11.412750    11A    -10.589071    12A     -8.058407
      13A     -8.054890    14A     -8.054771    15A     -1.765439
      16A     -1.710144    17A     -1.662299    18A     -1.659964
      19A     -1.631803    20A     -1.491579    21A     -1.187918
      22A     -1.056681    23A     -0.984106    24A     -0.932525
      25A     -0.860769    26A     -0.858746    27A     -0.849869
      28A     -0.820116    29A     -0.810837    30A     -0.791841
      31A     -0.731017    32A     -0.727910    33A     -0.695138
      34A     -0.693018    35A     -0.681910    36A     -0.677736
      37A     -0.662015    38A     -0.659764    39A     -0.653901
      40A     -0.641983    41A     -0.613569    42A     -0.566237
      43A     -0.525879    44A     -0.487236    45A     -0.479595

  @DF-RHF Final Energy: -1146.30685016940402

   => Energetics <=

    Nuclear Repulsion Energy =            726.1057494158940244
    One-Electron Energy =               -3034.7362167277610752
    Two-Electron Energy =                1162.3236171424630356
    DFT Exchange-Correlation Energy =       0.0000000000000000
    Empirical Dispersion Energy =           0.0000000000000000
    PCM Polarization Energy =               0.0000000000000000
    EFP Energy =                            0.0000000000000000
    Total Energy =                      -1146.3068501694040151

  Mulliken Charges: (a.u.)
   Center  Symbol    Alpha    Beta     Spin     Total
       1     H     0.42389  0.42389  0.00000  0.15223
       2     C     2.56571  2.56571  0.00000  0.86858
       3     O     4.29517  4.29517  0.00000 -0.59035
       4     F     4.67577  4.67577  0.00000 -0.35155
       5     F     4.67807  4.67807  0.00000 -0.35615
       6     C     3.04431  3.04431  0.00000 -0.08862
       7     C     2.43013  2.43013  0.00000  1.13975
       8    CL     8.49707  8.49707  0.00000  0.00586
       9     H     0.37472  0.37472  0.00000  0.25056
      10     F     4.67368  4.67368  0.00000 -0.34735
      11     F     4.67479  4.67479  0.00000 -0.34958
      12     F     4.66669  4.66669  0.00000 -0.33338

   Total alpha = 45.00000, Total beta = 45.00000, Total charge = -0.00000
