  ==> Input File <==

--------------------------------------------------------------------------
set {
	reference rhf
	basis cc-pvtz
}

set_num_threads( 4 )
memory 2 gb

molecule MOL {
0 1

H	 3.891268	 0.351838	 -0.035377
N	 3.091618	 -0.244489	 -0.011457
C	 1.860978	 0.530248	 0.016256
H	 3.172917	 -0.813501	 0.805222
C	 0.644130	 -0.381765	 -0.031064
H	 1.857104	 1.177247	 -0.854539
H	 1.788444	 1.180250	 0.889292
C	 -0.678115	 0.376691	 0.025731
H	 0.693998	 -0.977147	 -0.936845
H	 0.693309	 -1.082142	 0.800523
C	 -1.900706	 -0.535531	 -0.022488
H	 -0.725296	 1.079516	 -0.802982
H	 -0.715474	 0.974884	 0.933278
C	 -3.220513	 0.226854	 0.028039
H	 -1.865036	 -1.134397	 -0.928236
H	 -1.857948	 -1.236381	 0.806820
H	 -3.309098	 0.911849	 -0.808725
H	 -4.066838	 -0.449485	 -0.008086
H	 -3.301685	 0.809374	 0.939860

	symmetry c1
}
set optking {
	frozen_dihedral = ("
		6 3 5 9
	")
}

ee = optimize('scf')
oeprop('DIPOLE', 'QUADRUPOLE', 'MULLIKEN_CHARGES')
f=open( 'psi4out.xyz', 'w' )
f.write( "19  " )
f.write( str(ee) + "\n" )
f.write( MOL.save_string_xyz() )
f.close()
--------------------------------------------------------------------------

    Molecular point group: c1
  Charge       = 0
  Multiplicity = 1
  Basis Set: CC-PVTZ
  Basis Set:
  @DF-RHF Final Energy:  -251.44812233497484
    Total Energy =                       -251.4481223349746983
    Molecular point group: c1
  Basis Set: CC-PVTZ
  Basis Set:
  Basis Set: CC-PVTZ
  Basis Set:
  @DF-RHF Final Energy:  -251.44812541758782
    Total Energy =                       -251.4481254175876757
  Basis Set: CC-PVTZ
  Basis Set:
  Charge       = 0
  Multiplicity = 1
  Basis Set: CC-PVTZ
  Basis Set:

    Orbital Energies (a.u.)
    -----------------------

    Doubly Occupied:

       1A    -15.526333     2A    -11.237944     3A    -11.211872
       4A    -11.210422     5A    -11.207694     6A    -11.205458
       7A     -1.178097     8A     -1.074283     9A     -0.999600
      10A     -0.900946    11A     -0.813337    12A     -0.789551
      13A     -0.666437    14A     -0.642905    15A     -0.618052
      16A     -0.589382    17A     -0.565926    18A     -0.549387
      19A     -0.530332    20A     -0.499171    21A     -0.480921
      22A     -0.465115    23A     -0.461520    24A     -0.450902
      25A     -0.383763

  @DF-RHF Final Energy:  -251.44812646779212

   => Energetics <=

    Nuclear Repulsion Energy =            246.0660394765012597
    One-Electron Energy =                -826.5096285562714229
    Two-Electron Energy =                 328.9954626119782688
    DFT Exchange-Correlation Energy =       0.0000000000000000
    Empirical Dispersion Energy =           0.0000000000000000
    PCM Polarization Energy =               0.0000000000000000
    EFP Energy =                            0.0000000000000000
    Total Energy =                       -251.4481264677918944
    Molecular point group: c1
  Basis Set: CC-PVTZ
  Basis Set:

  -Total Gradient:
     Atom            X                  Y                   Z
    ------   -----------------  -----------------  -----------------
       1        0.000006962481    -0.000004617318     0.000001682377
       2       -0.000025968074     0.000016724321     0.000006085535
       3       -0.000371096813     0.000475263117     0.000253233342
       4        0.000009071777    -0.000011343125     0.000001971441
       5        0.000370602845    -0.000477654310     0.000242775732
       6        0.000251241925    -0.000333284573    -0.000267935319
       7        0.000002340076     0.000011708638     0.000016773601
       8        0.000018931628    -0.000017779211    -0.000015451308
       9       -0.000257958643     0.000342288178    -0.000255914450
      10        0.000002058014    -0.000006427803     0.000009253540
      11       -0.000004085197     0.000003343030     0.000013388558
      12       -0.000000955838     0.000003013249    -0.000001297026
      13       -0.000004388552    -0.000002642319    -0.000003718968
      14        0.000001442148    -0.000000831055    -0.000004401792
      15        0.000000199651     0.000007019339     0.000001797800
      16        0.000001295682    -0.000003897232     0.000001335598
      17        0.000000456616     0.000001707228     0.000001121422
      18       -0.000000959403    -0.000000492385    -0.000001602940
      19        0.000000809671    -0.000002097769     0.000000902856

  **** Optimization is complete! (in 3 steps) ****
    Final optimized geometry and variables:
    Molecular point group: c1

    Geometry (in Angstrom), charge = 0, multiplicity = 1:

    H            3.891014872774     0.351654449893    -0.058333227107
    N            3.091309937009    -0.244189518703    -0.025397565018
    C            1.860837202588     0.530772245180     0.007802730576
    H            3.178836511344    -0.809515402251     0.793179198544
    C            0.644388433916    -0.382266039321    -0.033470687765
    H            1.853762358870     1.174439039228    -0.865443294543
    H            1.792850226158     1.182161718101     0.880097614320
    C           -0.677888630320     0.376735802638     0.018669304730
    H            0.692309105100    -0.980794113700    -0.937262069416
    H            0.693606588564    -1.078008398404     0.801804961576
    C           -1.900563916616    -0.534976814606    -0.035275263953
    H           -0.721659803615     1.080490621274    -0.809526822029
    H           -0.718614352250     0.973961327632     0.926656948655
    C           -3.220208146622     0.227573405973     0.015928532955
    H           -1.863540064313    -1.130264557603    -0.943295546481
    H           -1.859432210593    -1.239014927073     0.791422389059
    H           -3.306880817789     0.916145491423    -0.818090733855
    H           -4.066687646014    -0.448359494397    -0.024727381875
    H           -3.302940815799     0.806192061313     0.930090594896

  Mulliken Charges: (a.u.)
   Center  Symbol    Alpha    Beta     Spin     Total
       1     H     0.43019  0.43019  0.00000  0.13963
       2     N     3.68939  3.68939  0.00000 -0.37877
       3     C     3.02709  3.02709  0.00000 -0.05418
       4     H     0.43098  0.43098  0.00000  0.13804
       5     C     3.08099  3.08099  0.00000 -0.16199
       6     H     0.45684  0.45684  0.00000  0.08631
       7     H     0.46858  0.46858  0.00000  0.06284
       8     C     3.09338  3.09338  0.00000 -0.18676
       9     H     0.44917  0.44917  0.00000  0.10165
      10     H     0.46021  0.46021  0.00000  0.07958
      11     C     3.08334  3.08334  0.00000 -0.16668
      12     H     0.45515  0.45515  0.00000  0.08971
      13     H     0.45672  0.45672  0.00000  0.08657
      14     C     3.14982  3.14982  0.00000 -0.29965
      15     H     0.45378  0.45378  0.00000  0.09243
      16     H     0.45496  0.45496  0.00000  0.09008
      17     H     0.45522  0.45522  0.00000  0.08957
      18     H     0.44854  0.44854  0.00000  0.10291
      19     H     0.45565  0.45565  0.00000  0.08870

   Total alpha = 25.00000, Total beta = 25.00000, Total charge = -0.00000
