  ==> Input File <==

--------------------------------------------------------------------------
set {
	reference rhf
	basis 6-31G*
}

set_num_threads( 4 )
memory 2 gb

molecule MOL {
0 1

H	 -3.161837	 0.500524	 -0.000234
C	 -2.367097	 -0.232926	 -0.000000
O	 -1.158440	 0.455814	 -0.000122
H	 -2.468853	 -0.861886	 -0.882833
H	 -2.468942	 -0.861421	 0.883154
C	 -0.029776	 -0.365156	 0.000148
C	 0.204696	 -0.875688	 1.411191
H	 0.839949	 0.192247	 -0.350252
H	 -0.173383	 -1.200970	 -0.685928
C	 1.427100	 -1.787495	 1.507189
H	 0.321225	 -0.021686	 2.071315
H	 -0.684958	 -1.405213	 1.738022
H	 2.333288	 -1.268562	 1.207265
H	 1.570345	 -2.137280	 2.524035
H	 1.320288	 -2.661704	 0.870985

	symmetry c1
}
set optking {
	frozen_dihedral = ("
		8 6 3 2
	")
}

ee = optimize('scf')
oeprop('DIPOLE', 'QUADRUPOLE', 'MULLIKEN_CHARGES')
f=open( 'psi4out.xyz', 'w' )
f.write( "15  " )
f.write( str(ee) + "\n" )
f.write( MOL.save_string_xyz() )
f.close()
--------------------------------------------------------------------------

    Molecular point group: c1
  Charge       = 0
  Multiplicity = 1
  Basis Set: 6-31G*
  Basis Set:
  @DF-RHF Final Energy:  -232.13432236560143
    Total Energy =                       -232.1343223656014061
    Molecular point group: c1
  Basis Set: 6-31G*
  Basis Set:
  Basis Set: 6-31G*
  Basis Set:
  @DF-RHF Final Energy:  -232.13590690617966
    Total Energy =                       -232.1359069061794571
  Basis Set: 6-31G*
  Basis Set:
  Basis Set: 6-31G*
  Basis Set:
  @DF-RHF Final Energy:  -232.13674030055859
    Total Energy =                       -232.1367403005585857
  Basis Set: 6-31G*
  Basis Set:
  Basis Set: 6-31G*
  Basis Set:
  @DF-RHF Final Energy:  -232.13676859027547
    Total Energy =                       -232.1367685902755511
  Basis Set: 6-31G*
  Basis Set:
  Basis Set: 6-31G*
  Basis Set:
  @DF-RHF Final Energy:  -232.13677023314139
    Total Energy =                       -232.1367702331414193
  Basis Set: 6-31G*
  Basis Set:
  Charge       = 0
  Multiplicity = 1
  Basis Set: 6-31G*
  Basis Set:

    Orbital Energies (a.u.)
    -----------------------

    Doubly Occupied:

       1A    -20.552122     2A    -11.266257     3A    -11.263538
       4A    -11.216428     5A    -11.214936     6A     -1.374875
       7A     -1.056437     8A     -0.958988     9A     -0.882581
      10A     -0.805686    11A     -0.669506    12A     -0.656655
      13A     -0.635031    14A     -0.600991    15A     -0.566484
      16A     -0.532812    17A     -0.519217    18A     -0.497766
      19A     -0.483759    20A     -0.456867    21A     -0.406018

  @DF-RHF Final Energy:  -232.13677040473010

   => Energetics <=

    Nuclear Repulsion Energy =            191.3396602246853035
    One-Electron Energy =                -693.7189498013206048
    Two-Electron Energy =                 270.2425191719049735
    DFT Exchange-Correlation Energy =       0.0000000000000000
    Empirical Dispersion Energy =           0.0000000000000000
    PCM Polarization Energy =               0.0000000000000000
    EFP Energy =                            0.0000000000000000
    Total Energy =                       -232.1367704047303278
    Molecular point group: c1
  Basis Set: 6-31G*
  Basis Set:

  -Total Gradient:
     Atom            X                  Y                   Z
    ------   -----------------  -----------------  -----------------
       1       -0.000002710096     0.000003357589     0.000004060250
       2       -0.000011100951    -0.000005163819     0.000054403802
       3        0.000023681055    -0.000015950167    -0.000066917371
       4       -0.000000027576    -0.000000561704    -0.000002152961
       5        0.000011624639     0.000004909844     0.000001489384
       6        0.000018467688    -0.000037358724    -0.000058699155
       7       -0.000019954189    -0.000002952301     0.000031709418
       8        0.000002229359     0.000037565260     0.000056017531
       9       -0.000005191771     0.000006212972    -0.000002214149
      10       -0.000008493931     0.000003374718    -0.000020062946
      11        0.000003835480     0.000002006235    -0.000008621334
      12       -0.000006733704    -0.000005142069     0.000018461241
      13        0.000011064383     0.000004953719     0.000007055988
      14       -0.000016495556     0.000006974128    -0.000008102699
      15       -0.000000194830    -0.000002225681    -0.000006427001

  **** Optimization is complete! (in 6 steps) ****
    Final optimized geometry and variables:
    Molecular point group: c1

    Geometry (in Angstrom), charge = 0, multiplicity = 1:

    H           -2.747538712411     1.167710683090    -0.748766945727
    C           -2.004863731778     0.392760450796    -0.616032789196
    O           -0.758346743546     1.013978110688    -0.592337233694
    H           -2.081241137519    -0.310186453349    -1.443775654446
    H           -2.221222500900    -0.137328371596     0.307596378764
    C            0.347775966492     0.159667440116    -0.529429182296
    C            0.631549900339    -0.363286098475     0.875507619613
    H            1.193569337861     0.742666363981    -0.875009937735
    H            0.220238880690    -0.671624655001    -1.223219753350
    C            1.904329071976    -1.208606299847     0.924551611944
    H            0.720919144707     0.487419920273     1.544667725233
    H           -0.207895647119    -0.954311438508     1.230656617108
    H            2.771196248695    -0.634820583843     0.609141373449
    H            2.095387549511    -1.567180625113     1.930419080576
    H            1.828483624412    -2.076324043501     0.274935430971

  Mulliken Charges: (a.u.)
   Center  Symbol    Alpha    Beta     Spin     Total
       1     H     0.41215  0.41215  0.00000  0.17570
       2     C     3.08087  3.08087  0.00000 -0.16174
       3     O     4.30686  4.30686  0.00000 -0.61372
       4     H     0.43064  0.43064  0.00000  0.13872
       5     H     0.42950  0.42950  0.00000  0.14100
       6     C     2.98611  2.98611  0.00000  0.02778
       7     C     3.16571  3.16571  0.00000 -0.33141
       8     H     0.41637  0.41637  0.00000  0.16727
       9     H     0.43312  0.43312  0.00000  0.13376
      10     C     3.24749  3.24749  0.00000 -0.49498
      11     H     0.41395  0.41395  0.00000  0.17210
      12     H     0.42120  0.42120  0.00000  0.15760
      13     H     0.41958  0.41958  0.00000  0.16084
      14     H     0.41554  0.41554  0.00000  0.16892
      15     H     0.42092  0.42092  0.00000  0.15816

   Total alpha = 21.00000, Total beta = 21.00000, Total charge =  0.00000
