  ==> Input File <==

--------------------------------------------------------------------------
set {
	reference rhf
	basis 6-31G*
}

set_num_threads( 4 )
memory 2 gb

molecule MOL {
0 1

H	 2.405084	 -1.718571	 -0.805430
N	 1.419705	 -1.545139	 -0.823084
C	 1.153765	 -0.164492	 -1.183364
C	 0.821620	 -1.884837	 0.455044
H	 1.601925	 0.039569	 -2.149946
H	 1.569991	 0.543056	 -0.462411
C	 -0.350415	 0.048782	 -1.263270
H	 1.029248	 -2.926613	 0.674961
H	 1.217729	 -1.281485	 1.275230
C	 -0.682355	 -1.670498	 0.374123
H	 -0.752043	 -0.547313	 -2.088173
H	 -0.558370	 1.092084	 -1.477332
N	 -0.975995	 -0.298722	 0.000000
H	 -1.130024	 -1.868801	 1.342530
H	 -1.106220	 -2.381779	 -0.341081
C	 -2.393863	 -0.024976	 0.000000
H	 -2.854032	 -0.467193	 -0.876721
H	 -2.854032	 -0.467193	 0.876721
H	 -2.623281	 1.044943	 0.000000

	symmetry c1
}
set optking {
	frozen_dihedral = ("
		7 13 16 19
	")
}

ee = optimize('scf')
oeprop('DIPOLE', 'QUADRUPOLE', 'MULLIKEN_CHARGES')
f=open( 'psi4out.xyz', 'w' )
f.write( "19  " )
f.write( str(ee) + "\n" )
f.write( MOL.save_string_xyz() )
f.close()
--------------------------------------------------------------------------

    Molecular point group: c1
  Charge       = 0
  Multiplicity = 1
  Basis Set: 6-31G*
  Basis Set:
  @DF-RHF Final Energy:  -305.19816714088114
    Total Energy =                       -305.1981671408809689
    Molecular point group: c1
  Basis Set: 6-31G*
  Basis Set:
  Basis Set: 6-31G*
  Basis Set:
  @DF-RHF Final Energy:  -305.19899395579131
    Total Energy =                       -305.1989939557914795
  Basis Set: 6-31G*
  Basis Set:
  Basis Set: 6-31G*
  Basis Set:
  @DF-RHF Final Energy:  -305.19909918109607
    Total Energy =                       -305.1990991810958462
  Basis Set: 6-31G*
  Basis Set:
  Charge       = 0
  Multiplicity = 1
  Basis Set: 6-31G*
  Basis Set:

    Orbital Energies (a.u.)
    -----------------------

    Doubly Occupied:

       1A    -15.541442     2A    -15.536567     3A    -11.238570
       4A    -11.238545     5A    -11.237195     6A    -11.237044
       7A    -11.234866     8A     -1.247345     9A     -1.185656
      10A     -1.022703    11A     -0.964532    12A     -0.860453
      13A     -0.857282    14A     -0.757586    15A     -0.691203
      16A     -0.633383    17A     -0.626007    18A     -0.608650
      19A     -0.602838    20A     -0.579529    21A     -0.542901
      22A     -0.530692    23A     -0.510931    24A     -0.490207
      25A     -0.465496    26A     -0.456705    27A     -0.363343
      28A     -0.346817

  @DF-RHF Final Energy:  -305.19909999545217

   => Energetics <=

    Nuclear Repulsion Energy =            339.8634106669193784
    One-Electron Energy =               -1086.9080459182362119
    Two-Electron Energy =                 441.8455352558646609
    DFT Exchange-Correlation Energy =       0.0000000000000000
    Empirical Dispersion Energy =           0.0000000000000000
    PCM Polarization Energy =               0.0000000000000000
    EFP Energy =                            0.0000000000000000
    Total Energy =                       -305.1990999954521158
    Molecular point group: c1
  Basis Set: 6-31G*
  Basis Set:

  -Total Gradient:
     Atom            X                  Y                   Z
    ------   -----------------  -----------------  -----------------
       1       -0.000004787661     0.000003311193    -0.000008064553
       2        0.000017717393    -0.000013204361    -0.000029444733
       3        0.000023601641    -0.000006723980     0.000002082075
       4        0.000007282189     0.000035178149    -0.000014900022
       5        0.000001938678    -0.000011337642     0.000004587556
       6        0.000001063851     0.000006908892    -0.000001061866
       7       -0.000416046647    -0.001927122630    -0.000639358237
       8       -0.000013046055     0.000006519585    -0.000005884497
       9       -0.000008394333    -0.000003875443     0.000011817640
      10       -0.000063855036     0.000049516935     0.000084949604
      11       -0.000008622581    -0.000011487973     0.000013490501
      12        0.000012833881     0.000016480208    -0.000047383057
      13        0.000476020552     0.002659521013     0.001637004662
      14       -0.000009638413    -0.000037242464     0.000014742948
      15        0.000013291889     0.000013007815    -0.000005778757
      16       -0.000036319887    -0.000780195048    -0.003880374062
      17       -0.000012190825    -0.000010251973    -0.000016001745
      18        0.000026567832    -0.000011761532     0.000007950680
      19       -0.000007416468     0.000022759256     0.002871625864

  **** Optimization is complete! (in 4 steps) ****
    Final optimized geometry and variables:
    Molecular point group: c1

    Geometry (in Angstrom), charge = 0, multiplicity = 1:

    H            2.564499040071    -0.916274413724    -0.449139376900
    N            1.578356574781    -0.747877102308    -0.471187479535
    C            1.306234433317     0.631923826758    -0.829740145340
    C            0.975308789120    -1.094381144470     0.802727096742
    H            1.752954776030     0.839140744482    -1.796371764171
    H            1.719222045369     1.340965716202    -0.108469447936
    C           -0.198935419256     0.837123859300    -0.908738193367
    H            1.185229004524    -2.136362696151     1.019706104310
    H            1.365489737193    -0.493027821640     1.627213770785
    C           -0.529186890518    -0.884612199798     0.717854962161
    H           -0.599045529360     0.234349556705    -1.729133297141
    H           -0.413080961575     1.878242156750    -1.129094736100
    N           -0.824985858865     0.491683904595     0.355762800277
    H           -0.977964066388    -1.093653683662     1.683193336802
    H           -0.947066448521    -1.591342593092    -0.005176454288
    C           -2.245486631521     0.760460632413     0.338393912854
    H           -2.758579278530     0.311226330956    -0.515933609008
    H           -2.699813024732     0.372143805370     1.243092185080
    H           -2.419133950632     1.831392042645     0.329119538275

  Mulliken Charges: (a.u.)
   Center  Symbol    Alpha    Beta     Spin     Total
       1     H     0.32951  0.32951  0.00000  0.34099
       2     N     3.85424  3.85424  0.00000 -0.70849
       3     C     3.06317  3.06317  0.00000 -0.12633
       4     C     3.06343  3.06343  0.00000 -0.12685
       5     H     0.41760  0.41760  0.00000  0.16481
       6     H     0.42756  0.42756  0.00000  0.14487
       7     C     3.05625  3.05625  0.00000 -0.11249
       8     H     0.41762  0.41762  0.00000  0.16477
       9     H     0.42757  0.42757  0.00000  0.14487
      10     C     3.05607  3.05607  0.00000 -0.11214
      11     H     0.42752  0.42752  0.00000  0.14496
      12     H     0.41850  0.41850  0.00000  0.16301
      13     N     3.78711  3.78711  0.00000 -0.57423
      14     H     0.41848  0.41848  0.00000  0.16304
      15     H     0.42801  0.42801  0.00000  0.14398
      16     C     3.14066  3.14066  0.00000 -0.28132
      17     H     0.43235  0.43235  0.00000  0.13530
      18     H     0.41826  0.41826  0.00000  0.16348
      19     H     0.41611  0.41611  0.00000  0.16778

   Total alpha = 28.00000, Total beta = 28.00000, Total charge = -0.00000
