                              Psi4 1.0.54 Driver

  ==> Input File <==

--------------------------------------------------------------------------
set {
	reference rhf
	basis cc-pvtz
}

set_num_threads( 4 )
memory 2 gb

molecule MOL {
0 1

O	 -1.278239	 1.034789	 -0.784693
C	 -1.204115	 0.062668	 -0.112312
C	 -2.386398	 -0.667698	 0.460323
O	 -0.068058	 -0.518372	 0.226882
H	 -2.382952	 -1.693172	 0.114333
H	 -3.296656	 -0.175702	 0.158400
H	 -2.312537	 -0.685191	 1.540100
C	 1.169086	 0.037484	 -0.230612
C	 2.266668	 -0.724602	 0.484686
C	 1.200216	 1.528673	 0.052219
H	 1.234310	 -0.130180	 -1.294907
H	 2.206122	 -1.782102	 0.261578
H	 3.237191	 -0.362612	 0.167258
H	 2.186970	 -0.596254	 1.557584
H	 2.141374	 1.948998	 -0.282518
H	 0.399862	 2.035157	 -0.468891
H	 1.101556	 1.715800	 1.115484

	symmetry c1
}
set optking {
	frozen_dihedral = ("
		11 8 4 2
	")
}

ee,wfn = optimize('scf', return_wfn=True)
oeprop( wfn, 'DIPOLE', 'QUADRUPOLE', 'MULLIKEN_CHARGES')
f=open( 'psi4out.xyz', 'w' )
f.write( "17  " )
f.write( str(ee) + "\n" )
f.write( MOL.save_string_xyz() )
f.close()
--------------------------------------------------------------------------

    Molecular point group: c1
  Charge       = 0
  Multiplicity = 1
  Basis Set: CC-PVTZ
  Basis Set:
  @DF-RHF Final Energy:  -345.03273437327255
    Total Energy =                       -345.0327343732725467
    Molecular point group: c1
  Basis Set: CC-PVTZ
  Basis Set:
  Basis Set: CC-PVTZ
  Basis Set:
  @DF-RHF Final Energy:  -345.03879881179262
    Total Energy =                       -345.0387988117930718
  Basis Set: CC-PVTZ
  Basis Set:
  Basis Set: CC-PVTZ
  Basis Set:
  @DF-RHF Final Energy:  -345.03934230759978
    Total Energy =                       -345.0393423076001227
  Basis Set: CC-PVTZ
  Basis Set:
  Basis Set: CC-PVTZ
  Basis Set:
  @DF-RHF Final Energy:  -345.03825547338965
    Total Energy =                       -345.0382554733895404
  Basis Set: CC-PVTZ
  Basis Set:
  @DF-RHF Final Energy:  -345.03943595823290
    Total Energy =                       -345.0394359582327297
  Basis Set: CC-PVTZ
  Basis Set:
  @DF-RHF Final Energy:  -345.03944519983656
    Total Energy =                       -345.0394451998363365
  Basis Set: CC-PVTZ
  Basis Set:
  Basis Set: CC-PVTZ
  Basis Set:
  @DF-RHF Final Energy:  -345.03944706834278
    Total Energy =                       -345.0394470683428381
  Basis Set: CC-PVTZ
  Basis Set:
  Basis Set: CC-PVTZ
  Basis Set:
  @DF-RHF Final Energy:  -345.03944825366767
    Total Energy =                       -345.0394482536679561
  Basis Set: CC-PVTZ
  Basis Set:
  Charge       = 0
  Multiplicity = 1
  Basis Set: CC-PVTZ
  Basis Set:

    Orbital Energies (a.u.)
    -----------------------

    Doubly Occupied:

       1A    -20.590645     2A    -20.530983     3A    -11.366584
       4A    -11.292052     5A    -11.229955     6A    -11.217222
       7A    -11.211989     8A     -1.466665     9A     -1.364744
      10A     -1.080253    11A     -1.005132    12A     -0.947522
      13A     -0.854683    14A     -0.757723    15A     -0.694162
      16A     -0.678931    17A     -0.661058    18A     -0.616883
      19A     -0.586535    20A     -0.579208    21A     -0.554461
      22A     -0.550166    23A     -0.541862    24A     -0.520273
      25A     -0.502980    26A     -0.484721    27A     -0.451328
      28A     -0.435249

  @DF-RHF Final Energy:  -345.03944921913461

   => Energetics <=

    Nuclear Repulsion Energy =            324.3554987176638065
    One-Electron Energy =               -1113.2419596874144645
    Two-Electron Energy =                 443.8470117506157635
    DFT Exchange-Correlation Energy =       0.0000000000000000
    Empirical Dispersion Energy =           0.0000000000000000
    PCM Polarization Energy =               0.0000000000000000
    EFP Energy =                            0.0000000000000000
    Total Energy =                       -345.0394492191349514
    Molecular point group: c1
  Basis Set: CC-PVTZ
  Basis Set:

  -Total Gradient:
     Atom            X                  Y                   Z
    ------   -----------------  -----------------  -----------------
       1       -0.000016750155    -0.000106170866     0.000060360252
       2       -0.000398761388     0.003512181532     0.004390525364
       3        0.000006963970     0.000073393945     0.000008644259
       4        0.001357144198    -0.006204733633    -0.006470609741
       5        0.000019358148    -0.000064019738    -0.000036560620
       6       -0.000048682879     0.000002782255    -0.000013390874
       7        0.000018486775     0.000002733942     0.000069802626
       8       -0.004333634323     0.007773225767     0.000698406497
       9       -0.000009775305    -0.000009711417    -0.000028402813
      10       -0.000025668914     0.000059515576    -0.000000096847
      11        0.003365412629    -0.005048319380     0.001307103549
      12        0.000014802539    -0.000012889438     0.000004190941
      13       -0.000003994534     0.000002984911     0.000000941776
      14       -0.000005277971    -0.000000297575    -0.000008006045
      15        0.000026681243     0.000010871857    -0.000012080505
      16        0.000032521750     0.000008307580     0.000005145210
      17        0.000001174218     0.000000144684     0.000024026976

  **** Optimization is complete! (in 9 steps) ****
    Final optimized geometry and variables:
    Molecular point group: c1

    Geometry (in Angstrom), charge = 0, multiplicity = 1:

    O           -1.386892221654     0.622055696916    -0.993848045781
    C           -1.172025279730    -0.192799419745    -0.162542053608
    C           -2.239616060651    -0.937675410728     0.590125992751
    O            0.033392681159    -0.585345179462     0.205816614674
    H           -2.098665692409    -2.003271088017     0.464532281655
    H           -3.210826417434    -0.643862047453     0.226270039155
    H           -2.156489037008    -0.717824054894     1.647038553675
    C            1.216115468497     0.095539161149    -0.230812691937
    C            2.349598537169    -0.604993004668     0.499642585491
    C            1.196638873642     1.586008681211     0.059419107176
    H            1.334068783268    -0.102878125237    -1.288676371272
    H            2.328456047689    -1.669066937178     0.303279952771
    H            3.303480191256    -0.213337661029     0.168036143920
    H            2.268257540268    -0.453236665407     1.569410973190
    H            2.170308837765     1.999306608666    -0.176097262844
    H            0.452725333588     2.105207004253    -0.520411446587
    H            1.007013435999     1.758356530803     1.113674479757

  Mulliken Charges: (a.u.)
   Center  Symbol    Alpha    Beta     Spin     Total
       1     O     4.19960  4.19960  0.00000 -0.39919
       2     C     2.80643  2.80643  0.00000  0.38714
       3     C     3.13795  3.13795  0.00000 -0.27591
       4     O     4.16099  4.16099  0.00000 -0.32197
       5     H     0.44497  0.44497  0.00000  0.11007
       6     H     0.43846  0.43846  0.00000  0.12309
       7     H     0.44729  0.44729  0.00000  0.10541
       8     C     2.92802  2.92802  0.00000  0.14396
       9     C     3.13886  3.13886  0.00000 -0.27773
      10     C     3.16401  3.16401  0.00000 -0.32803
      11     H     0.44834  0.44834  0.00000  0.10331
      12     H     0.44620  0.44620  0.00000  0.10760
      13     H     0.45502  0.45502  0.00000  0.08995
      14     H     0.45308  0.45308  0.00000  0.09383
      15     H     0.44924  0.44924  0.00000  0.10151
      16     H     0.42760  0.42760  0.00000  0.14480
      17     H     0.45393  0.45393  0.00000  0.09213

   Total alpha = 28.00000, Total beta = 28.00000, Total charge = -0.00000

*** Psi4 exiting successfully. Buy a developer a beer!
