  ==> Input File <==

--------------------------------------------------------------------------
set {
	reference rhf
	basis 6-31G*
}

set_num_threads( 4 )
memory 2 gb

molecule MOL {
0 1

H	 2.418873	 -0.710358	 -0.355353
C	 1.696394	 0.086421	 -0.427626
O	 0.464886	 -0.454746	 -0.000158
H	 1.637551	 0.424231	 -1.455462
H	 2.003451	 0.907082	 0.209785
C	 -0.590998	 0.343045	 0.000118
O	 -1.699443	 -0.054298	 0.000227
H	 -0.340329	 1.404368	 0.000207

	symmetry c1
}
set optking {
	frozen_dihedral = ("
		2 3 6 7
	")
}

ee = optimize('scf')
oeprop('DIPOLE', 'QUADRUPOLE', 'MULLIKEN_CHARGES')
f=open( 'psi4out.xyz', 'w' )
f.write( "8  " )
f.write( str(ee) + "\n" )
f.write( MOL.save_string_xyz() )
f.close()
--------------------------------------------------------------------------

    Molecular point group: c1
  Charge       = 0
  Multiplicity = 1
  Basis Set: 6-31G*
  Basis Set:
  @DF-RHF Final Energy:  -227.77793788983692
    Total Energy =                       -227.7779378898369202
    Molecular point group: c1
  Basis Set: 6-31G*
  Basis Set:
  Basis Set: 6-31G*
  Basis Set:
  @DF-RHF Final Energy:  -227.77794419706930
    Total Energy =                       -227.7779441970695018
  Basis Set: 6-31G*
  Basis Set:
  Basis Set: 6-31G*
  Basis Set:
  @DF-RHF Final Energy:  -227.77801459338320
    Total Energy =                       -227.7780145933830909
  Basis Set: 6-31G*
  Basis Set:
  Basis Set: 6-31G*
  Basis Set:
  @DF-RHF Final Energy:  -227.77807430782894
    Total Energy =                       -227.7780743078291152
  Basis Set: 6-31G*
  Basis Set:
  Basis Set: 6-31G*
  Basis Set:
  @DF-RHF Final Energy:  -227.77807604967626
    Total Energy =                       -227.7780760496762866
  Basis Set: 6-31G*
  Basis Set:
  Charge       = 0
  Multiplicity = 1
  Basis Set: 6-31G*
  Basis Set:

    Orbital Energies (a.u.)
    -----------------------

    Doubly Occupied:

       1A    -20.615502     2A    -20.559296     3A    -11.382465
       4A    -11.304638     5A     -1.476316     6A     -1.383251
       7A     -0.993448     8A     -0.848726     9A     -0.738464
      10A     -0.685457    11A     -0.681437    12A     -0.608218
      13A     -0.570933    14A     -0.537501    15A     -0.462678
      16A     -0.453761

  @DF-RHF Final Energy:  -227.77807632106720

   => Energetics <=

    Nuclear Repulsion Energy =            121.2060607376722174
    One-Electron Energy =                -551.3640935464691211
    Two-Electron Energy =                 202.3799564877295438
    DFT Exchange-Correlation Energy =       0.0000000000000000
    Empirical Dispersion Energy =           0.0000000000000000
    PCM Polarization Energy =               0.0000000000000000
    EFP Energy =                            0.0000000000000000
    Total Energy =                       -227.7780763210673740
    Molecular point group: c1
  Basis Set: 6-31G*
  Basis Set:

  -Total Gradient:
     Atom            X                  Y                   Z
    ------   -----------------  -----------------  -----------------
       1        0.000001424575     0.000001706557     0.000006788593
       2       -0.000518616460    -0.000357823147    -0.002416121882
       3        0.000850639134     0.000754192104     0.002074313812
       4       -0.000018955886    -0.000002274766    -0.000002014524
       5       -0.000002273615    -0.000010130501    -0.000001228209
       6       -0.000336861238    -0.000792140565     0.003496895588
       7        0.000008879661     0.000432073940    -0.003153818796
       8        0.000015763831    -0.000025603621    -0.000004814583

  **** Optimization is complete! (in 6 steps) ****
    Final optimized geometry and variables:
    Molecular point group: c1

    Geometry (in Angstrom), charge = 0, multiplicity = 1:

    H            2.454443651328    -0.661738661386    -0.124661238627
    C            1.710479954416     0.095765719826    -0.311926481327
    O            0.466442325318    -0.462024962740     0.050274947089
    H            1.718067464393     0.357173696597    -1.362696667886
    H            1.937011709498     0.973516469178     0.283389330457
    C           -0.569897809764     0.355972621041     0.162217903557
    O           -1.688885841166    -0.007323451267     0.119235664275
    H           -0.289173319356     1.401177389097     0.296266550874

  Mulliken Charges: (a.u.)
   Center  Symbol    Alpha    Beta     Spin     Total
       1     H     0.39729  0.39729  0.00000  0.20541
       2     C     3.09908  3.09908  0.00000 -0.19817
       3     O     4.27804  4.27804  0.00000 -0.55608
       4     H     0.41022  0.41022  0.00000  0.17955
       5     H     0.41654  0.41654  0.00000  0.16692
       6     C     2.72210  2.72210  0.00000  0.55579
       7     O     4.24476  4.24476  0.00000 -0.48952
       8     H     0.43196  0.43196  0.00000  0.13609

   Total alpha = 16.00000, Total beta = 16.00000, Total charge = -0.00000
