  ==> Input File <==

--------------------------------------------------------------------------
set {
	reference rhf
	basis cc-pvtz
}

set_num_threads( 4 )
memory 2 gb

molecule MOL {
0 1

O	 -2.374409	 1.338660	 -0.336961
C	 -2.104891	 0.204655	 -0.107126
C	 -0.881910	 -0.448129	 -0.720509
C	 -2.949910	 -0.638219	 0.818225
C	 0.407760	 0.123484	 -0.118136
H	 -0.904258	 -0.250889	 -1.784796
H	 -0.914111	 -1.522215	 -0.571618
C	 1.659886	 -0.504112	 -0.727078
H	 0.407938	 1.195339	 -0.270956
H	 0.413899	 -0.039668	 0.956872
C	 2.976112	 -0.012882	 -0.121976
H	 1.666511	 -0.319166	 -1.798400
H	 1.604523	 -1.582364	 -0.604971
C	 3.288626	 1.458232	 -0.384727
H	 3.782669	 -0.617573	 -0.524619
H	 2.968294	 -0.194914	 0.949536
H	 3.297154	 1.670107	 -1.448976
H	 4.263301	 1.719342	 0.011000
H	 2.563471	 2.117027	 0.077248
H	 -3.440322	 -1.417144	 0.243099
H	 -3.694377	 -0.025850	 1.303346
H	 -2.331085	 -1.129829	 1.560495

	symmetry c1
}
set optking {
	frozen_dihedral = ("
		6 3 2 1
	")
}

ee = optimize('scf')
oeprop('DIPOLE', 'QUADRUPOLE', 'MULLIKEN_CHARGES')
f=open( 'psi4out.xyz', 'w' )
f.write( "22  " )
f.write( str(ee) + "\n" )
f.write( MOL.save_string_xyz() )
f.close()
--------------------------------------------------------------------------

    Molecular point group: c1
  Charge       = 0
  Multiplicity = 1
  Basis Set: CC-PVTZ
  Basis Set:
  @DF-RHF Final Energy:  -348.22337098159835
    Total Energy =                       -348.2233709815982365
    Molecular point group: c1
  Basis Set: CC-PVTZ
  Basis Set:
  Basis Set: CC-PVTZ
  Basis Set:
  @DF-RHF Final Energy:  -348.22336503723818
    Total Energy =                       -348.2233650372381817
  Basis Set: CC-PVTZ
  Basis Set:
  Basis Set: CC-PVTZ
  Basis Set:
  @DF-RHF Final Energy:  -348.22336064549233
    Total Energy =                       -348.2233606454923347
  Basis Set: CC-PVTZ
  Basis Set:
  Basis Set: CC-PVTZ
  Basis Set:
  @DF-RHF Final Energy:  -348.22340935043536
    Total Energy =                       -348.2234093504353609
  Basis Set: CC-PVTZ
  Basis Set:
  Basis Set: CC-PVTZ
  Basis Set:
  @DF-RHF Final Energy:  -348.22341130901532
    Total Energy =                       -348.2234113090154324
  Basis Set: CC-PVTZ
  Basis Set:
  Basis Set: CC-PVTZ
  Basis Set:
  @DF-RHF Final Energy:  -348.22342922172862
    Total Energy =                       -348.2234292217282814
  Basis Set: CC-PVTZ
  Basis Set:
  Basis Set: CC-PVTZ
  Basis Set:
  @DF-RHF Final Energy:  -348.22343048953167
    Total Energy =                       -348.2234304895320065
  Basis Set: CC-PVTZ
  Basis Set:
  Charge       = 0
  Multiplicity = 1
  Basis Set: CC-PVTZ
  Basis Set:

    Orbital Energies (a.u.)
    -----------------------

    Doubly Occupied:

       1A    -20.536760     2A    -11.319720     3A    -11.227848
       4A    -11.227303     5A    -11.224979     6A    -11.219208
       7A    -11.217801     8A    -11.208178     9A     -1.397211
      10A     -1.095677    11A     -1.044691    12A     -1.001218
      13A     -0.937879    14A     -0.857201    15A     -0.785685
      16A     -0.733952    17A     -0.663735    18A     -0.646355
      19A     -0.625840    20A     -0.623371    21A     -0.597930
      22A     -0.583284    23A     -0.564530    24A     -0.543796
      25A     -0.534177    26A     -0.517613    27A     -0.499970
      28A     -0.488521    29A     -0.470263    30A     -0.463529
      31A     -0.460644    32A     -0.398737

  @DF-RHF Final Energy:  -348.22343034403548

   => Energetics <=

    Nuclear Repulsion Energy =            373.5450048941199839
    One-Electron Energy =               -1212.1016623718237497
    Two-Electron Energy =                 490.3332271336682311
    DFT Exchange-Correlation Energy =       0.0000000000000000
    Empirical Dispersion Energy =           0.0000000000000000
    PCM Polarization Energy =               0.0000000000000000
    EFP Energy =                            0.0000000000000000
    Total Energy =                       -348.2234303440355347
    Molecular point group: c1
  Basis Set: CC-PVTZ
  Basis Set:

  -Total Gradient:
     Atom            X                  Y                   Z
    ------   -----------------  -----------------  -----------------
       1        0.000098772949     0.000049690648     0.000111471983
       2       -0.000167102371    -0.000092014076    -0.000167197251
       3        0.000151566841     0.000198364939     0.000113103302
       4        0.000038440871     0.000017536623     0.000038469131
       5        0.000028814376     0.000001853220    -0.000031573441
       6       -0.000104942409    -0.000147016253    -0.000042132540
       7        0.000001074263    -0.000002752445    -0.000019027002
       8       -0.000026928633    -0.000023260423     0.000049735828
       9        0.000011321402     0.000018298720     0.000001120774
      10        0.000014181583     0.000003367950     0.000006921501
      11        0.000024022815    -0.000009414865    -0.000042581612
      12        0.000013380434     0.000003761292     0.000006021644
      13       -0.000023387138    -0.000000511815     0.000001834580
      14       -0.000021745960    -0.000004972154     0.000013393715
      15        0.000003490841     0.000003942253    -0.000009470334
      16        0.000007016565    -0.000002442898    -0.000005966531
      17        0.000010467639    -0.000008408400     0.000004779792
      18       -0.000002833798     0.000004581667     0.000014079211
      19       -0.000040346975     0.000009505044    -0.000005242580
      20       -0.000000222113    -0.000001015816    -0.000016913960
      21       -0.000006249128    -0.000004071311    -0.000021932371
      22       -0.000008792055    -0.000015021900     0.000001106160

  **** Optimization is complete! (in 8 steps) ****
    Final optimized geometry and variables:
    Molecular point group: c1

    Geometry (in Angstrom), charge = 0, multiplicity = 1:

    O           -2.374432262139     1.135460821798    -0.137914995602
    C           -2.110044007459     0.002563319205     0.102666208309
    C           -0.885914047558    -0.656921425111    -0.505526632651
    C           -2.960047245666    -0.830408801286     1.030507163453
    C            0.405632088526    -0.085378189277     0.089081327204
    H           -0.911535514408    -0.464213166151    -1.571949486328
    H           -0.921019806602    -1.730807365745    -0.360207076707
    C            1.655554600872    -0.705769320763    -0.530893968094
    H            0.399079048300     0.986734193017    -0.055584058167
    H            0.416790329805    -0.256159818867     1.163268730531
    C            2.973155333683    -0.220851468682     0.076162082097
    H            1.659338024872    -0.507624150987    -1.600051026906
    H            1.601853187566    -1.785618632466    -0.422117415831
    C            3.280106205830     1.255120004633    -0.164796371006
    H            3.779861004689    -0.817050229136    -0.338769200917
    H            2.969755835054    -0.419250083939     1.144766484097
    H            3.288656542779     1.482499597867    -1.225868883044
    H            4.253462803509     1.514268297048     0.235506127648
    H            2.551734505400     1.903977944941     0.305983398642
    H           -3.387951734875    -1.662499448303     0.480753105985
    H           -3.749607505761    -0.229326294178     1.454498511935
    H           -2.348029543804    -1.251453274423     1.821240374148

  Mulliken Charges: (a.u.)
   Center  Symbol    Alpha    Beta     Spin     Total
       1     O     4.17759  4.17759  0.00000 -0.35517
       2     C     2.85851  2.85851  0.00000  0.28297
       3     C     3.09995  3.09995  0.00000 -0.19989
       4     C     3.15417  3.15417  0.00000 -0.30833
       5     C     3.10010  3.10010  0.00000 -0.20020
       6     H     0.44044  0.44044  0.00000  0.11912
       7     H     0.44815  0.44815  0.00000  0.10370
       8     C     3.09676  3.09676  0.00000 -0.19352
       9     H     0.43719  0.43719  0.00000  0.12563
      10     H     0.45338  0.45338  0.00000  0.09323
      11     C     3.09072  3.09072  0.00000 -0.18145
      12     H     0.45168  0.45168  0.00000  0.09665
      13     H     0.44921  0.44921  0.00000  0.10158
      14     C     3.15184  3.15184  0.00000 -0.30367
      15     H     0.44790  0.44790  0.00000  0.10420
      16     H     0.45466  0.45466  0.00000  0.09068
      17     H     0.45407  0.45407  0.00000  0.09186
      18     H     0.44643  0.44643  0.00000  0.10713
      19     H     0.45187  0.45187  0.00000  0.09626
      20     H     0.44857  0.44857  0.00000  0.10287
      21     H     0.43631  0.43631  0.00000  0.12737
      22     H     0.45050  0.45050  0.00000  0.09899

   Total alpha = 32.00000, Total beta = 32.00000, Total charge = -0.00000
