  ==> Input File <==

--------------------------------------------------------------------------
set {
	reference rhf
	basis 6-31G*
}

set_num_threads( 4 )
memory 2 gb

molecule MOL {
0 1

O	 1.495567	 1.909057	 -0.431871
C	 0.671536	 1.919224	 -1.288602
C	 -0.630374	 1.156135	 -1.264211
O	 0.793446	 2.626166	 -2.405073
C	 -0.823008	 0.326187	 0.001381
H	 -1.432559	 1.878701	 -1.387140
H	 -0.657105	 0.531228	 -2.152746
C	 -2.149452	 -0.435131	 -0.000098
H	 -0.772801	 0.978257	 0.867679
H	 0.002753	 -0.371345	 0.100759
C	 -3.368779	 0.488503	 -0.000883
H	 -2.193746	 -1.087250	 -0.871175
H	 -2.195311	 -1.087803	 0.870418
C	 -4.693822	 -0.272754	 -0.001129
H	 -3.325798	 1.139422	 -0.871284
H	 -3.326423	 1.139959	 0.869145
H	 -4.781274	 -0.907928	 -0.878124
H	 -5.538651	 0.408946	 -0.001420
H	 -4.781694	 -0.907783	 0.875984
C	 1.974215	 3.393289	 -2.554278
H	 2.056247	 4.122702	 -1.761337
H	 1.886453	 3.887349	 -3.509306
H	 2.846143	 2.755259	 -2.541438

	symmetry c1
}
set optking {
	frozen_dihedral = ("
		9 5 8 12
	")
}

ee = optimize('scf')
oeprop('DIPOLE', 'QUADRUPOLE', 'MULLIKEN_CHARGES')
f=open( 'psi4out.xyz', 'w' )
f.write( "23  " )
f.write( str(ee) + "\n" )
f.write( MOL.save_string_xyz() )
f.close()
--------------------------------------------------------------------------

    Molecular point group: c1
  Charge       = 0
  Multiplicity = 1
  Basis Set: 6-31G*
  Basis Set:
  @DF-RHF Final Energy:  -422.97386624766148
    Total Energy =                       -422.9738662476617037
    Molecular point group: c1
  Basis Set: 6-31G*
  Basis Set:
  Basis Set: 6-31G*
  Basis Set:
  @DF-RHF Final Energy:  -422.97422911509199
    Total Energy =                       -422.9742291150915889
  Basis Set: 6-31G*
  Basis Set:
  Basis Set: 6-31G*
  Basis Set:
  @DF-RHF Final Energy:  -422.97433972531485
    Total Energy =                       -422.9743397253140529
  Basis Set: 6-31G*
  Basis Set:
  Basis Set: 6-31G*
  Basis Set:
  @DF-RHF Final Energy:  -422.97469683692248
    Total Energy =                       -422.9746968369224760
  Basis Set: 6-31G*
  Basis Set:
  Basis Set: 6-31G*
  Basis Set:
  @DF-RHF Final Energy:  -422.97471472965316
    Total Energy =                       -422.9747147296534422
  Basis Set: 6-31G*
  Basis Set:
  Basis Set: 6-31G*
  Basis Set:
  @DF-RHF Final Energy:  -422.97472160604309
    Total Energy =                       -422.9747216060426354
  Basis Set: 6-31G*
  Basis Set:
  Charge       = 0
  Multiplicity = 1
  Basis Set: 6-31G*
  Basis Set:

    Orbital Energies (a.u.)
    -----------------------

    Doubly Occupied:

       1A    -20.603545     2A    -20.545383     3A    -11.372214
       4A    -11.280796     5A    -11.235050     6A    -11.219438
       7A    -11.218628     8A    -11.217861     9A    -11.210994
      10A     -1.469250    11A     -1.362703    12A     -1.093527
      13A     -1.042183    14A     -0.987164    15A     -0.933053
      16A     -0.850152    17A     -0.792516    18A     -0.763925
      19A     -0.701119    20A     -0.682432    21A     -0.672201
      22A     -0.637777    23A     -0.620791    24A     -0.599711
      25A     -0.576486    26A     -0.557174    27A     -0.555867
      28A     -0.527877    29A     -0.520571    30A     -0.507895
      31A     -0.491360    32A     -0.467742    33A     -0.465240
      34A     -0.458102    35A     -0.452736    36A     -0.437380

  @DF-RHF Final Energy:  -422.97472182161215

   => Energetics <=

    Nuclear Repulsion Energy =            457.1746884220344214
    One-Electron Energy =               -1482.0371330653858877
    Two-Electron Energy =                 601.8877228217388620
    DFT Exchange-Correlation Energy =       0.0000000000000000
    Empirical Dispersion Energy =           0.0000000000000000
    PCM Polarization Energy =               0.0000000000000000
    EFP Energy =                            0.0000000000000000
    Total Energy =                       -422.9747218216125475
    Molecular point group: c1
  Basis Set: 6-31G*
  Basis Set:

  -Total Gradient:
     Atom            X                  Y                   Z
    ------   -----------------  -----------------  -----------------
       1       -0.000011648653     0.000015070912     0.000004787953
       2        0.000005579105    -0.000018248166    -0.000015149922
       3        0.000021010025    -0.000039560237    -0.000006772148
       4        0.000008047821     0.000002648836     0.000001554589
       5       -0.000028169438     0.000043780316     0.000006700194
       6       -0.000007300511     0.000001895369     0.000015501112
       7       -0.000002214599     0.000016492675    -0.000001290440
       8        0.000000445293     0.000004887994    -0.000031318439
       9        0.000015150180    -0.000012718639     0.000011553074
      10        0.000002677021     0.000003912501    -0.000005993695
      11        0.000012825388    -0.000014932197     0.000031294150
      12        0.000010955028    -0.000017698782     0.000001476417
      13       -0.000025036623    -0.000000418945    -0.000004215052
      14       -0.000006732931     0.000007405466    -0.000006672982
      15        0.000003684859    -0.000011148680     0.000004825321
      16        0.000000161383     0.000008518239    -0.000003239034
      17        0.000003261464    -0.000001190588     0.000004151067
      18       -0.000007727667    -0.000002648609    -0.000001550987
      19        0.000001403094     0.000006306576     0.000000413349
      20        0.000000648392     0.000004413565    -0.000006038434
      21        0.000000459822    -0.000000093904    -0.000000133894
      22        0.000002977518     0.000002157439    -0.000000098020
      23       -0.000000455970     0.000001168852     0.000000215817

  **** Optimization is complete! (in 7 steps) ****
    Final optimized geometry and variables:
    Molecular point group: c1

    Geometry (in Angstrom), charge = 0, multiplicity = 1:

    O            2.244723964839     0.600148794796     0.455283162371
    C            1.417837451372     0.672036853658    -0.395676317679
    C            0.077165523031    -0.021654787283    -0.380867734100
    O            1.572665986714     1.393030409357    -1.499171931767
    C           -0.149800017294    -0.861460111222     0.874294807566
    H           -0.679703636144     0.746906175917    -0.498234223837
    H            0.019885004850    -0.633937804747    -1.277186019302
    C           -1.461460644149    -1.653556135174     0.857737191632
    H           -0.120378013775    -0.216752599089     1.747549635924
    H            0.680206065367    -1.551057847085     0.983642194609
    C           -2.732344867071    -0.800070798184     0.894350014014
    H           -1.485740196536    -2.298278066506    -0.019780935294
    H           -1.465900443397    -2.317748729015     1.719021932594
    C           -4.004098861437    -1.643426748576     0.983310740965
    H           -2.787842285969    -0.171506340024     0.009415408092
    H           -2.686247927916    -0.125552550418     1.747001135362
    H           -4.091708293062    -2.311309839777     0.130932571288
    H           -4.890673298542    -1.017366522759     1.004973658383
    H           -4.007542033832    -2.253702836827     1.881890065399
    C            2.792602008894     2.097878053965    -1.640368985716
    H            2.917604076409     2.806511864457    -0.834315329855
    H            2.727458423701     2.614209346002    -2.585430333190
    H            3.628741889863     1.413497195187    -1.644431202359

  Mulliken Charges: (a.u.)
   Center  Symbol    Alpha    Beta     Spin     Total
       1     O     4.28592  4.28592  0.00000 -0.57184
       2     C     2.60490  2.60490  0.00000  0.79021
       3     C     3.20962  3.20962  0.00000 -0.41924
       4     O     4.30744  4.30744  0.00000 -0.61487
       5     C     3.15397  3.15397  0.00000 -0.30794
       6     H     0.39890  0.39890  0.00000  0.20220
       7     H     0.40119  0.40119  0.00000  0.19761
       8     C     3.15535  3.15535  0.00000 -0.31071
       9     H     0.41296  0.41296  0.00000  0.17408
      10     H     0.40877  0.40877  0.00000  0.18246
      11     C     3.15464  3.15464  0.00000 -0.30927
      12     H     0.42411  0.42411  0.00000  0.15179
      13     H     0.41846  0.41846  0.00000  0.16307
      14     C     3.23913  3.23913  0.00000 -0.47826
      15     H     0.42277  0.42277  0.00000  0.15446
      16     H     0.42174  0.42174  0.00000  0.15652
      17     H     0.42152  0.42152  0.00000  0.15696
      18     H     0.41870  0.41870  0.00000  0.16260
      19     H     0.42085  0.42085  0.00000  0.15830
      20     C     3.09242  3.09242  0.00000 -0.18484
      21     H     0.40907  0.40907  0.00000  0.18186
      22     H     0.40848  0.40848  0.00000  0.18304
      23     H     0.40910  0.40910  0.00000  0.18181

   Total alpha = 36.00000, Total beta = 36.00000, Total charge =  0.00000
