                              Psi4 1.0.54 Driver

  ==> Input File <==

--------------------------------------------------------------------------
set {
	reference rhf
	basis cc-pvtz
}

set_num_threads( 4 )
memory 2 gb

molecule MOL {
0 1

H	 -1.835082	 1.385983	 0.000069
C	 -1.300516	 0.441153	 -0.000028
O	 -0.006604	 0.654344	 -0.000106
O	 -1.828920	 -0.612308	 0.000113
C	 0.717119	 0.336242	 -1.185373
C	 2.170491	 0.665621	 -0.940591
H	 0.310944	 0.909023	 -2.006898
H	 0.577593	 -0.711822	 -1.409111
H	 2.294661	 1.716926	 -0.714073
H	 2.750492	 0.434463	 -1.826039
H	 2.562648	 0.087950	 -0.113258

	symmetry c1
}
set optking {
	frozen_dihedral = ("
		5 3 2 4
	")
}

ee,wfn = optimize('scf', return_wfn=True)
oeprop( wfn, 'DIPOLE', 'QUADRUPOLE', 'MULLIKEN_CHARGES')
f=open( 'psi4out.xyz', 'w' )
f.write( "11  " )
f.write( str(ee) + "\n" )
f.write( MOL.save_string_xyz() )
f.close()
--------------------------------------------------------------------------

    Molecular point group: c1
  Charge       = 0
  Multiplicity = 1
  Basis Set: CC-PVTZ
  Basis Set:
  @DF-RHF Final Energy:  -266.91431648313130
    Total Energy =                       -266.9143164831313584
    Molecular point group: c1
  Basis Set: CC-PVTZ
  Basis Set:
  Basis Set: CC-PVTZ
  Basis Set:
  @DF-RHF Final Energy:  -266.90896953813353
    Total Energy =                       -266.9089695381336469
  Basis Set: CC-PVTZ
  Basis Set:
  Basis Set: CC-PVTZ
  Basis Set:
  @DF-RHF Final Energy:  -266.91431666271023
    Total Energy =                       -266.9143166627101209
  Basis Set: CC-PVTZ
  Basis Set:
  Basis Set: CC-PVTZ
  Basis Set:
  @DF-RHF Final Energy:  -266.91545761013003
    Total Energy =                       -266.9154576101300336
  Basis Set: CC-PVTZ
  Basis Set:
  Basis Set: CC-PVTZ
  Basis Set:
  @DF-RHF Final Energy:  -266.91548234720096
    Total Energy =                       -266.9154823472009639
  Basis Set: CC-PVTZ
  Basis Set:
  Basis Set: CC-PVTZ
  Basis Set:
  @DF-RHF Final Energy:  -266.91548513567022
    Total Energy =                       -266.9154851356702238
  Basis Set: CC-PVTZ
  Basis Set:
  Charge       = 0
  Multiplicity = 1
  Basis Set: CC-PVTZ
  Basis Set:

    Orbital Energies (a.u.)
    -----------------------

    Doubly Occupied:

       1A    -20.587156     2A    -20.558074     3A    -11.373225
       4A    -11.296927     5A    -11.225802     6A     -1.470144
       7A     -1.380156     8A     -1.050120     9A     -0.892660
      10A     -0.820052    11A     -0.743198    12A     -0.691667
      13A     -0.656240    14A     -0.633809    15A     -0.563762
      16A     -0.543462    17A     -0.534304    18A     -0.508806
      19A     -0.467157    20A     -0.454037

  @DF-RHF Final Energy:  -266.91548594973659

   => Energetics <=

    Nuclear Repulsion Energy =            177.8468417855306711
    One-Electron Energy =                -716.6231388900025649
    Two-Electron Energy =                 271.8608111547352451
    DFT Exchange-Correlation Energy =       0.0000000000000000
    Empirical Dispersion Energy =           0.0000000000000000
    PCM Polarization Energy =               0.0000000000000000
    EFP Energy =                            0.0000000000000000
    Total Energy =                       -266.9154859497367056
    Molecular point group: c1
  Basis Set: CC-PVTZ
  Basis Set:

  -Total Gradient:
     Atom            X                  Y                   Z
    ------   -----------------  -----------------  -----------------
       1       -0.000025204136    -0.000013696148     0.000004373491
       2       -0.000726903882     0.001571326519    -0.010766955626
       3        0.001602318343    -0.006469644377     0.006234165305
       4        0.000135735498     0.000435571925     0.006519992874
       5       -0.000999126799     0.004478497634    -0.002011439195
       6       -0.000009946024     0.000003291733     0.000026692708
       7        0.000024206582    -0.000009657738    -0.000007991928
       8        0.000006249513     0.000003852989     0.000003666136
       9        0.000002162525     0.000004836742    -0.000000169629
      10       -0.000012818556    -0.000001415878    -0.000002893786
      11        0.000003326933    -0.000002963401     0.000000559652

  **** Optimization is complete! (in 7 steps) ****
    Final optimized geometry and variables:
    Molecular point group: c1

    Geometry (in Angstrom), charge = 0, multiplicity = 1:

    H           -1.866818359707     1.057214717978     0.480301532936
    C           -1.267021272968     0.150266095212     0.442549000100
    O            0.039736381541     0.411174645989     0.396342345414
    O           -1.733171965154    -0.923237288219     0.518596155145
    C            0.743610391489     0.045743000137    -0.786387565893
    C            2.210091165208     0.329010900585    -0.567071917769
    H            0.358032386377     0.627433727190    -1.616697612766
    H            0.572665250720    -1.002601142473    -0.990704600350
    H            2.369565731605     1.377537839870    -0.350856245206
    H            2.770370828625     0.070986053305    -1.457971486132
    H            2.589222587720    -0.255088616062     0.261245527085

  Mulliken Charges: (a.u.)
   Center  Symbol    Alpha    Beta     Spin     Total
       1     H     0.46070  0.46070  0.00000  0.07860
       2     C     2.83765  2.83765  0.00000  0.32471
       3     O     4.16063  4.16063  0.00000 -0.32125
       4     O     4.16995  4.16995  0.00000 -0.33991
       5     C     2.96856  2.96856  0.00000  0.06287
       6     C     3.13458  3.13458  0.00000 -0.26915
       7     H     0.46394  0.46394  0.00000  0.07212
       8     H     0.45130  0.45130  0.00000  0.09741
       9     H     0.44993  0.44993  0.00000  0.10014
      10     H     0.45588  0.45588  0.00000  0.08825
      11     H     0.44689  0.44689  0.00000  0.10622

   Total alpha = 20.00000, Total beta = 20.00000, Total charge =  0.00000

*** Psi4 exiting successfully. Buy a developer a beer!
