  ==> Input File <==

--------------------------------------------------------------------------
set {
	reference rhf
	basis cc-pvtz
}

set_num_threads( 4 )
memory 2 gb

molecule MOL {
0 1

H	 -3.436473	 1.252944	 -1.023892
O	 -3.458596	 0.315260	 -0.960865
C	 -3.176635	 -0.080824	 0.355601
C	 -1.763371	 0.265266	 0.799691
H	 -3.321825	 -1.153438	 0.379502
H	 -3.895468	 0.357385	 1.043382
C	 -0.673390	 -0.426948	 -0.013392
H	 -1.631049	 1.344913	 0.747560
H	 -1.664587	 -0.001624	 1.849167
C	 0.737842	 -0.043159	 0.423759
H	 -0.806103	 -0.190518	 -1.063345
H	 -0.797221	 -1.503753	 0.074146
C	 1.824000	 -0.743224	 -0.390623
H	 0.850588	 1.033777	 0.343840
H	 0.868587	 -0.286314	 1.476203
C	 3.255957	 -0.453067	 0.062319
H	 1.718250	 -0.470599	 -1.438164
H	 1.658105	 -1.815850	 -0.339904
C	 3.441165	 -0.363477	 1.575202
H	 3.572585	 0.485508	 -0.382202
H	 3.919690	 -1.215512	 -0.337126
H	 2.785132	 0.387599	 2.003666
H	 4.460594	 -0.089531	 1.822103
H	 3.230165	 -1.305655	 2.066513

	symmetry c1
}
set optking {
	frozen_dihedral = ("
		20 16 13 17
	")
}

ee = optimize('scf')
oeprop('DIPOLE', 'QUADRUPOLE', 'MULLIKEN_CHARGES')
f=open( 'psi4out.xyz', 'w' )
f.write( "24  " )
f.write( str(ee) + "\n" )
f.write( MOL.save_string_xyz() )
f.close()
--------------------------------------------------------------------------

    Molecular point group: c1
  Charge       = 0
  Multiplicity = 1
  Basis Set: CC-PVTZ
  Basis Set:
  @DF-RHF Final Energy:  -349.37639326161826
    Total Energy =                       -349.3763932616186594
    Molecular point group: c1
  Basis Set: CC-PVTZ
  Basis Set:
  Basis Set: CC-PVTZ
  Basis Set:
  @DF-RHF Final Energy:  -349.37761924425564
    Total Energy =                       -349.3776192442561523
  Basis Set: CC-PVTZ
  Basis Set:
  Basis Set: CC-PVTZ
  Basis Set:
  @DF-RHF Final Energy:  -349.37835330630816
    Total Energy =                       -349.3783533063080995
  Basis Set: CC-PVTZ
  Basis Set:
  Basis Set: CC-PVTZ
  Basis Set:
  @DF-RHF Final Energy:  -349.37840138940908
    Total Energy =                       -349.3784013894086797
  Basis Set: CC-PVTZ
  Basis Set:
  Basis Set: CC-PVTZ
  Basis Set:
  @DF-RHF Final Energy:  -349.37840851320618
    Total Energy =                       -349.3784085132056703
  Basis Set: CC-PVTZ
  Basis Set:
  Basis Set: CC-PVTZ
  Basis Set:
  @DF-RHF Final Energy:  -349.37840982190028
    Total Energy =                       -349.3784098219006182
  Basis Set: CC-PVTZ
  Basis Set:
  Charge       = 0
  Multiplicity = 1
  Basis Set: CC-PVTZ
  Basis Set:

    Orbital Energies (a.u.)
    -----------------------

    Doubly Occupied:

       1A    -20.546223     2A    -11.265424     3A    -11.215019
       4A    -11.212103     5A    -11.209976     6A    -11.209408
       7A    -11.208694     8A    -11.205637     9A     -1.364062
      10A     -1.089427    11A     -1.048733    12A     -0.986171
      13A     -0.916477    14A     -0.853506    15A     -0.802241
      16A     -0.771888    17A     -0.681687    18A     -0.656799
      19A     -0.627404    20A     -0.619400    21A     -0.595787
      22A     -0.587396    23A     -0.556237    24A     -0.544380
      25A     -0.519042    26A     -0.506468    27A     -0.501573
      28A     -0.471208    29A     -0.469125    30A     -0.460468
      31A     -0.455351    32A     -0.450331    33A     -0.420628

  @DF-RHF Final Energy:  -349.37840986136126

   => Energetics <=

    Nuclear Repulsion Energy =            385.3917735190598819
    One-Electron Energy =               -1237.4838184210143481
    Two-Electron Energy =                 502.7136350405933740
    DFT Exchange-Correlation Energy =       0.0000000000000000
    Empirical Dispersion Energy =           0.0000000000000000
    PCM Polarization Energy =               0.0000000000000000
    EFP Energy =                            0.0000000000000000
    Total Energy =                       -349.3784098613611491
    Molecular point group: c1
  Basis Set: CC-PVTZ
  Basis Set:

  -Total Gradient:
     Atom            X                  Y                   Z
    ------   -----------------  -----------------  -----------------
       1        0.000000838232    -0.000001708630     0.000001188545
       2        0.000004887439    -0.000005720768    -0.000003424219
       3       -0.000005319714     0.000014266797     0.000003021730
       4        0.000003186566    -0.000008771422    -0.000000505981
       5        0.000001684155     0.000001891327    -0.000000784306
       6       -0.000002442114    -0.000000673439     0.000001037418
       7       -0.000000561805     0.000000752137    -0.000000850006
       8       -0.000003335059    -0.000001909810    -0.000000239779
       9        0.000001291674    -0.000001019602     0.000000674229
      10        0.000001303513    -0.000002730266     0.000007503004
      11       -0.000002176566    -0.000000454899    -0.000006307272
      12       -0.000002737304     0.000001487801     0.000001870453
      13        0.002277248441    -0.005864625347    -0.002363035067
      14        0.000004832646    -0.000001583048     0.000001059304
      15       -0.000000781230    -0.000005188662    -0.000002089769
      16       -0.002371844085     0.003916513234     0.005002002065
      17       -0.001553766970     0.004362174652     0.001203523378
      18        0.000005067712     0.000003915704    -0.000000556385
      19       -0.000002410740     0.000003158204    -0.000003763063
      20        0.001644445419    -0.002406446835    -0.003838615460
      21        0.000001873571    -0.000007771106     0.000000597253
      22       -0.000003232685     0.000002263991     0.000001250698
      23       -0.000001661029     0.000001395998    -0.000000921131
      24        0.000003609933     0.000000783987    -0.000002635636

  **** Optimization is complete! (in 7 steps) ****
    Final optimized geometry and variables:
    Molecular point group: c1

    Geometry (in Angstrom), charge = 0, multiplicity = 1:

    H           -3.354689493167     1.497035220320    -1.267463909377
    O           -3.397177108727     0.558393776923    -1.238772923054
    C           -3.169693465044     0.111027615876     0.071736928952
    C           -1.766528184105     0.412244432341     0.576516096440
    H           -3.336350500478    -0.958558390715     0.052074537347
    H           -3.903948876757     0.539497139471     0.749302350910
    C           -0.661893687837    -0.271958821584    -0.223499941249
    H           -1.611948465893     1.490205737149     0.568414333250
    H           -1.709799610951     0.106070571370     1.618314531469
    C            0.740357161106     0.069158260434     0.273972413409
    H           -0.755617969916     0.001653465623    -1.268507117893
    H           -0.807411761303    -1.348837467371    -0.176813187200
    C            1.837603651027    -0.641626535029    -0.519611226958
    H            0.890462843502     1.145187339878     0.210629863331
    H            0.815545688015    -0.187106138665     1.326138384148
    C            3.271905939304    -0.229753293680    -0.163387178178
    H            1.672428291478    -0.411511449321    -1.568044992630
    H            1.723108080361    -1.715304462623    -0.401305382471
    C            3.594104509633    -0.152398909187     1.325337006319
    H            3.507567812741     0.711379091880    -0.652344336989
    H            3.943818157901    -0.951066459247    -0.620922293897
    H            3.041335744336     0.635691894300     1.821607048796
    H            4.649419318248     0.044426482046     1.475445914664
    H            3.359799097838    -1.086718082631     1.825879023297

  Mulliken Charges: (a.u.)
   Center  Symbol    Alpha    Beta     Spin     Total
       1     H     0.39532  0.39532  0.00000  0.20936
       2     O     4.20372  4.20372  0.00000 -0.40745
       3     C     2.97789  2.97789  0.00000  0.04422
       4     C     3.10167  3.10167  0.00000 -0.20333
       5     H     0.45881  0.45881  0.00000  0.08238
       6     H     0.46027  0.46027  0.00000  0.07947
       7     C     3.08877  3.08877  0.00000 -0.17755
       8     H     0.45920  0.45920  0.00000  0.08160
       9     H     0.45343  0.45343  0.00000  0.09315
      10     C     3.09224  3.09224  0.00000 -0.18447
      11     H     0.44577  0.44577  0.00000  0.10845
      12     H     0.45547  0.45547  0.00000  0.08906
      13     C     3.09525  3.09525  0.00000 -0.19050
      14     H     0.45488  0.45488  0.00000  0.09024
      15     H     0.45299  0.45299  0.00000  0.09403
      16     C     3.08944  3.08944  0.00000 -0.17888
      17     H     0.45095  0.45095  0.00000  0.09810
      18     H     0.45190  0.45190  0.00000  0.09620
      19     C     3.15627  3.15627  0.00000 -0.31254
      20     H     0.45333  0.45333  0.00000  0.09334
      21     H     0.45075  0.45075  0.00000  0.09851
      22     H     0.45238  0.45238  0.00000  0.09525
      23     H     0.44537  0.44537  0.00000  0.10926
      24     H     0.45394  0.45394  0.00000  0.09212

   Total alpha = 33.00000, Total beta = 33.00000, Total charge = -0.00000
