  ==> Input File <==

--------------------------------------------------------------------------
set {
	reference rhf
	basis cc-pvtz
}

set_num_threads( 4 )
memory 2 gb

molecule MOL {
0 1

H	 -2.422505	 1.541272	 -1.826908
O	 -2.451128	 2.023938	 -1.020269
C	 -1.207678	 1.966058	 -0.392489
C	 -0.793473	 0.591216	 0.050087
H	 -1.270447	 2.615403	 0.472794
H	 -0.430222	 2.378093	 -1.033183
C	 -1.534243	 -0.493009	 -0.013340
H	 0.205059	 0.530400	 0.450692
H	 -1.101195	 -1.466332	 -0.144046
H	 -2.604242	 -0.437780	 0.050785

	symmetry c1
}
set optking {
	frozen_dihedral = ("
		3 4 7 9
	")
}

ee = optimize('scf')
oeprop('DIPOLE', 'QUADRUPOLE', 'MULLIKEN_CHARGES')
f=open( 'psi4out.xyz', 'w' )
f.write( "10  " )
f.write( str(ee) + "\n" )
f.write( MOL.save_string_xyz() )
f.close()
--------------------------------------------------------------------------

    Molecular point group: c1
  Charge       = 0
  Multiplicity = 1
  Basis Set: CC-PVTZ
  Basis Set:
  @DF-RHF Final Energy:  -191.97904016227596
    Total Energy =                       -191.9790401622760783
    Molecular point group: c1
  Basis Set: CC-PVTZ
  Basis Set:
  Basis Set: CC-PVTZ
  Basis Set:
  @DF-RHF Final Energy:  -191.98891125025438
    Total Energy =                       -191.9889112502543753
  Basis Set: CC-PVTZ
  Basis Set:
  Basis Set: CC-PVTZ
  Basis Set:
  @DF-RHF Final Energy:  -191.99021070005790
    Total Energy =                       -191.9902107000579576
  Basis Set: CC-PVTZ
  Basis Set:
  Basis Set: CC-PVTZ
  Basis Set:
  @DF-RHF Final Energy:  -191.99027331713955
    Total Energy =                       -191.9902733171395823
  Basis Set: CC-PVTZ
  Basis Set:
  @DF-RHF Final Energy:  -191.99027789626902
    Total Energy =                       -191.9902778962690775
  @DF-RHF Final Energy:  -191.99013483295352
    Total Energy =                       -191.9901348329535438
  Basis Set: CC-PVTZ
  Basis Set:
  @DF-RHF Final Energy:  -191.99027688662767
    Total Energy =                       -191.9902768866275267
  Basis Set: CC-PVTZ
  Basis Set:
  Basis Set: CC-PVTZ
  Basis Set:
  @DF-RHF Final Energy:  -191.99027677274421
    Total Energy =                       -191.9902767727441528
  Basis Set: CC-PVTZ
  Basis Set:
  Basis Set: CC-PVTZ
  Basis Set:
  @DF-RHF Final Energy:  -191.99019643751564
    Total Energy =                       -191.9901964375155785
  Basis Set: CC-PVTZ
  Basis Set:
  Charge       = 0
  Multiplicity = 1
  Basis Set: CC-PVTZ
  Basis Set:

    Orbital Energies (a.u.)
    -----------------------

    Doubly Occupied:

       1A    -20.555103     2A    -11.280575     3A    -11.233894
       4A    -11.218445     5A     -1.376132     6A     -1.063662
       7A     -0.934273     8A     -0.773167     9A     -0.694350
      10A     -0.664359    11A     -0.622041    12A     -0.576771
      13A     -0.537563    14A     -0.501629    15A     -0.452367
      16A     -0.366177

  @DF-RHF Final Energy:  -191.99027744090728

   => Energetics <=

    Nuclear Repulsion Energy =            119.4735234631284442
    One-Electron Energy =                -497.2265872005111760
    Two-Electron Energy =                 185.7627862964752978
    DFT Exchange-Correlation Energy =       0.0000000000000000
    Empirical Dispersion Energy =           0.0000000000000000
    PCM Polarization Energy =               0.0000000000000000
    EFP Energy =                            0.0000000000000000
    Total Energy =                       -191.9902774409074198
    Molecular point group: c1
  Basis Set: CC-PVTZ
  Basis Set:

  -Total Gradient:
     Atom            X                  Y                   Z
    ------   -----------------  -----------------  -----------------
       1        0.000004252684     0.000007264690     0.000002473618
       2        0.000006750442     0.000014229069    -0.000002518514
       3        0.006733838464    -0.002762750085    -0.012117767669
       4       -0.010700794300     0.005366173339     0.012019640732
       5       -0.000028464425    -0.000000434640    -0.000006684822
       6       -0.000011468544    -0.000008903870    -0.000009218449
       7        0.002898982352    -0.004228775188     0.018774205426
       8       -0.000050458783    -0.000010369004     0.000193207647
       9        0.001130255861     0.001618747826    -0.018835808260
      10        0.000017106246     0.000004817868    -0.000017529710

  **** Optimization is complete! (in 10 steps) ****
    Final optimized geometry and variables:
    Molecular point group: c1

    Geometry (in Angstrom), charge = 0, multiplicity = 1:

    H           -0.974578684345     0.401763498237    -1.341003715083
    O           -0.920619034866     0.974486068067    -0.596987499764
    C            0.346573800957     0.885970316103    -0.026510870748
    C            0.716939834786    -0.477707783041     0.487585027360
    H            0.376657996347     1.625935767831     0.764607894811
    H            1.118689695785     1.163786925266    -0.741308872477
    C            0.016652160483    -1.584534100079     0.351558622766
    H            1.750061594121    -0.554370119188     0.788790346146
    H            0.487101678539    -2.548112403899     0.298561112965
    H           -1.008389205991    -1.549140701617     0.029098791231

  Mulliken Charges: (a.u.)
   Center  Symbol    Alpha    Beta     Spin     Total
       1     H     0.39119  0.39119  0.00000  0.21763
       2     O     4.19899  4.19899  0.00000 -0.39799
       3     C     2.94860  2.94860  0.00000  0.10280
       4     C     3.07909  3.07909  0.00000 -0.15817
       5     H     0.45285  0.45285  0.00000  0.09430
       6     H     0.46911  0.46911  0.00000  0.06179
       7     C     3.17739  3.17739  0.00000 -0.35478
       8     H     0.42615  0.42615  0.00000  0.14770
       9     H     0.42675  0.42675  0.00000  0.14650
      10     H     0.42989  0.42989  0.00000  0.14022

   Total alpha = 16.00000, Total beta = 16.00000, Total charge = -0.00000
