  ==> Input File <==

--------------------------------------------------------------------------
set {
	reference rhf
	basis 6-31G*
}

set_num_threads( 1 )
memory 2 gb

molecule MOL {
0 1

H	 3.815641	 4.741262	 -1.659539
C	 3.304956	 3.855221	 -1.326498
C	 1.975801	 3.928330	 -0.937718
C	 3.977726	 2.644113	 -1.287387
H	 1.455207	 4.868223	 -0.968532
C	 1.319835	 2.788630	 -0.509612
H	 5.008043	 2.589374	 -1.589143
C	 3.323118	 1.501959	 -0.859199
H	 0.291493	 2.826447	 -0.205056
C	 1.991004	 1.571915	 -0.468888
H	 3.839848	 0.562653	 -0.827329
C	 1.239129	 0.373821	 0.000060
O	 1.970282	 -0.730723	 0.000018
O	 0.098305	 0.395768	 0.341961
C	 3.377318	 -0.566646	 -0.000065
H	 3.695437	 -0.028981	 -0.881264
H	 3.789299	 -1.563704	 0.000236
H	 3.695516	 -0.028316	 0.880770

	symmetry c1
}
set optking {
	frozen_dihedral = ("
		12 13 15 16,
		13 12 10 6
	")
}

ee = energy('scf')
oeprop('DIPOLE', 'QUADRUPOLE', 'MULLIKEN_CHARGES')
f=open( 'psi4out.xyz', 'w' )
f.write( "18  " )
f.write( str(ee) + "\n" )
f.write( MOL.save_string_xyz() )
f.close()
--------------------------------------------------------------------------

    Molecular point group: c1

    Geometry (in Angstrom), charge = 0, multiplicity = 1:

       Center              X                  Y                   Z               Mass
    ------------   -----------------  -----------------  -----------------  -----------------
           H          1.573973960781     3.257372369978    -1.185510740220     1.007825032070
           C          1.063288960781     2.371331369978    -0.852469740220    12.000000000000
           C         -0.265866039219     2.444440369978    -0.463689740220    12.000000000000
           C          1.736058960781     1.160223369978    -0.813358740220    12.000000000000
           H         -0.786460039219     3.384333369978    -0.494503740220     1.007825032070
           C         -0.921832039219     1.304740369978    -0.035583740220    12.000000000000
           H          2.766375960781     1.105484369978    -1.115114740220     1.007825032070
           C          1.081450960781     0.018069369978    -0.385170740220    12.000000000000
           H         -1.950174039219     1.342557369978     0.268972259780     1.007825032070
           C         -0.250663039219     0.088025369978     0.005140259780    12.000000000000
           H          1.598180960781    -0.921236630022    -0.353300740220     1.007825032070
           C         -1.002538039219    -1.110068630022     0.474088259780    12.000000000000
           O         -0.271385039219    -2.214612630022     0.474046259780    15.994914619560
           O         -2.143362039219    -1.088121630022     0.815989259780    15.994914619560
           C          1.135650960781    -2.050535630022     0.473963259780    12.000000000000
           H          1.453769960781    -1.512870630022    -0.407235740220     1.007825032070
           H          1.547631960781    -3.047593630022     0.474264259780     1.007825032070
           H          1.453848960781    -1.512205630022     1.354798259780     1.007825032070

  Charge       = 0
  Multiplicity = 1
  Basis Set: 6-31G*
  Basis Set:

    Orbital Energies (a.u.)
    -----------------------

    Doubly Occupied:

       1A    -20.615084     2A    -20.543564     3A    -11.380348
       4A    -11.284929     5A    -11.252884     6A    -11.250132
       7A    -11.248033     8A    -11.243360     9A    -11.241788
      10A    -11.223350    11A     -1.475530    12A     -1.371886
      13A     -1.183650    14A     -1.110733    15A     -1.043955
      16A     -1.010316    17A     -0.894880    18A     -0.871618
      19A     -0.808131    20A     -0.748371    21A     -0.727756
      22A     -0.685943    23A     -0.669927    24A     -0.649341
      25A     -0.624911    26A     -0.615180    27A     -0.578581
      28A     -0.566825    29A     -0.550170    30A     -0.520530
      31A     -0.516986    32A     -0.471189    33A     -0.443038
      34A     -0.377401    35A     -0.352386    36A     -0.346338

  @DF-RHF Final Energy:  -457.05058599288287

   => Energetics <=

    Nuclear Repulsion Energy =            509.9265995056496763
    One-Electron Energy =               -1632.9564195351663329
    Two-Electron Energy =                 665.9792340366341250
    DFT Exchange-Correlation Energy =       0.0000000000000000
    Empirical Dispersion Energy =           0.0000000000000000
    PCM Polarization Energy =               0.0000000000000000
    EFP Energy =                            0.0000000000000000
    Total Energy =                       -457.0505859928825885

  Mulliken Charges: (a.u.)
   Center  Symbol    Alpha    Beta     Spin     Total
       1     H     0.39607  0.39607  0.00000  0.20786
       2     C     3.08918  3.08918  0.00000 -0.17835
       3     C     3.10559  3.10559  0.00000 -0.21117
       4     C     3.10850  3.10850  0.00000 -0.21701
       5     H     0.39353  0.39353  0.00000  0.21295
       6     C     3.08276  3.08276  0.00000 -0.16551
       7     H     0.39866  0.39866  0.00000  0.20269
       8     C     3.11811  3.11811  0.00000 -0.23621
       9     H     0.37327  0.37327  0.00000  0.25345
      10     C     3.09399  3.09399  0.00000 -0.18797
      11     H     0.38842  0.38842  0.00000  0.22316
      12     C     2.57102  2.57102  0.00000  0.85796
      13     O     4.30488  4.30488  0.00000 -0.60976
      14     O     4.27869  4.27869  0.00000 -0.55738
      15     C     3.10650  3.10650  0.00000 -0.21299
      16     H     0.38779  0.38779  0.00000  0.22442
      17     H     0.40328  0.40328  0.00000  0.19344
      18     H     0.39979  0.39979  0.00000  0.20042

   Total alpha = 36.00000, Total beta = 36.00000, Total charge =  0.00000
