  ==> Input File <==

--------------------------------------------------------------------------
set {
	reference rhf
	basis cc-pvtz
}

set_num_threads( 4 )
memory 2 gb

molecule MOL {
0 1

H	 -0.716912	 0.656892	 3.192690
O	 -0.543252	 0.379019	 2.312529
C	 -0.238002	 1.488005	 1.506930
C	 0.027642	 1.012027	 0.090274
H	 0.646819	 1.995967	 1.882208
H	 -1.054588	 2.204520	 1.522915
C	 -1.138737	 0.285728	 -0.581921
H	 0.887441	 0.350484	 0.115033
H	 0.313005	 1.876385	 -0.504426
C	 -1.933983	 -0.631436	 0.343653
H	 -0.763151	 -0.285569	 -1.422081
H	 -1.808359	 1.035291	 -0.992333
H	 -2.789188	 -1.049673	 -0.174718
H	 -1.335629	 -1.461368	 0.700418
H	 -2.305435	 -0.092167	 1.209725

	symmetry c1
}
set optking {
	frozen_dihedral = ("
		8 4 7 11
	")
}

ee = optimize('scf')
oeprop('DIPOLE', 'QUADRUPOLE', 'MULLIKEN_CHARGES')
f=open( 'psi4out.xyz', 'w' )
f.write( "15  " )
f.write( str(ee) + "\n" )
f.write( MOL.save_string_xyz() )
f.close()
--------------------------------------------------------------------------

    Molecular point group: c1
  Charge       = 0
  Multiplicity = 1
  Basis Set: CC-PVTZ
  Basis Set:
  @DF-RHF Final Energy:  -232.22547908574273
    Total Energy =                       -232.2254790857431317
    Molecular point group: c1
  Basis Set: CC-PVTZ
  Basis Set:
  Basis Set: CC-PVTZ
  Basis Set:
  @DF-RHF Final Energy:  -232.23163836538669
    Total Energy =                       -232.2316383653866296
  Basis Set: CC-PVTZ
  Basis Set:
  Basis Set: CC-PVTZ
  Basis Set:
  @DF-RHF Final Energy:  -232.23332409365096
    Total Energy =                       -232.2333240936507650
  Basis Set: CC-PVTZ
  Basis Set:
  Basis Set: CC-PVTZ
  Basis Set:
  @DF-RHF Final Energy:  -232.23374803396271
    Total Energy =                       -232.2337480339626268
  Basis Set: CC-PVTZ
  Basis Set:
  Basis Set: CC-PVTZ
  Basis Set:
  @DF-RHF Final Energy:  -232.23381754125523
    Total Energy =                       -232.2338175412554051
  Basis Set: CC-PVTZ
  Basis Set:
  Basis Set: CC-PVTZ
  Basis Set:
  @DF-RHF Final Energy:  -232.23383415857930
    Total Energy =                       -232.2338341585791568
  Basis Set: CC-PVTZ
  Basis Set:
  Basis Set: CC-PVTZ
  Basis Set:
  @DF-RHF Final Energy:  -232.23383597439718
    Total Energy =                       -232.2338359743969249
  Basis Set: CC-PVTZ
  Basis Set:
  Charge       = 0
  Multiplicity = 1
  Basis Set: CC-PVTZ
  Basis Set:

    Orbital Energies (a.u.)
    -----------------------

    Doubly Occupied:

       1A    -20.546063     2A    -11.267089     3A    -11.211670
       4A    -11.210716     5A    -11.195642     6A     -1.364297
       7A     -1.063111     8A     -0.971125     9A     -0.867381
      10A     -0.775158    11A     -0.706403    12A     -0.650126
      13A     -0.609057    14A     -0.570392    15A     -0.560082
      16A     -0.538521    17A     -0.507745    18A     -0.476334
      19A     -0.463809    20A     -0.453826    21A     -0.429505

  @DF-RHF Final Energy:  -232.23383667953473

   => Energetics <=

    Nuclear Repulsion Energy =            192.9609987717491606
    One-Electron Energy =                -697.5135615244153087
    Two-Electron Energy =                 272.3187260731312449
    DFT Exchange-Correlation Energy =       0.0000000000000000
    Empirical Dispersion Energy =           0.0000000000000000
    PCM Polarization Energy =               0.0000000000000000
    EFP Energy =                            0.0000000000000000
    Total Energy =                       -232.2338366795349316
    Molecular point group: c1
  Basis Set: CC-PVTZ
  Basis Set:

  -Total Gradient:
     Atom            X                  Y                   Z
    ------   -----------------  -----------------  -----------------
       1       -0.000000640023    -0.000008553031     0.000009432611
       2        0.000001680509     0.000032948480     0.000015030849
       3        0.000029808400    -0.000031208504     0.000009422428
       4       -0.001867255765    -0.002779127067     0.005457081184
       5        0.000003292640     0.000004078160     0.000021075158
       6        0.000009324531    -0.000009922684    -0.000012655983
       7       -0.000056795523     0.004793879721    -0.004118405023
       8        0.001527206589     0.001651945629    -0.003950432091
       9        0.000008859711    -0.000004645546    -0.000003589976
      10       -0.000004333274    -0.000004275071    -0.000001355094
      11        0.000377942357    -0.003642199081     0.002576256539
      12       -0.000004436674    -0.000002877010     0.000004335502
      13       -0.000014245131    -0.000014440961    -0.000003213043
      14       -0.000005800365     0.000013229879    -0.000010876038
      15       -0.000004607982     0.000001167084     0.000007892982

  **** Optimization is complete! (in 8 steps) ****
    Final optimized geometry and variables:
    Molecular point group: c1

    Geometry (in Angstrom), charge = 0, multiplicity = 1:

    H            0.293886518810     0.284738611056     2.505171292957
    O            0.461352730093    -0.055519434756     1.645809437349
    C            0.503579144621     0.993295991539     0.713178173216
    C            0.755176762840     0.439774845840    -0.677753199622
    H            1.304579960896     1.681916551597     0.968800974142
    H           -0.427539938797     1.557154025554     0.727929466991
    C           -0.435272503670    -0.202271752535    -1.404271644113
    H            1.589889698450    -0.252317470667    -0.639062228565
    H            1.101599545066     1.267810956565    -1.291261039786
    C           -1.289191161862    -1.166158084371    -0.580497538184
    H           -0.040616240965    -0.762016741253    -2.246400273732
    H           -1.072236310417     0.578528761132    -1.808801015792
    H           -2.056764395661    -1.607675675081    -1.207060512527
    H           -0.689833451434    -1.966947365623    -0.165332503544
    H           -1.779865515932    -0.669727252805     0.246333273214

  Mulliken Charges: (a.u.)
   Center  Symbol    Alpha    Beta     Spin     Total
       1     H     0.39603  0.39603  0.00000  0.20795
       2     O     4.19798  4.19798  0.00000 -0.39597
       3     C     2.98294  2.98294  0.00000  0.03411
       4     C     3.09351  3.09351  0.00000 -0.18703
       5     H     0.45931  0.45931  0.00000  0.08139
       6     H     0.46985  0.46985  0.00000  0.06030
       7     C     3.09267  3.09267  0.00000 -0.18534
       8     H     0.45007  0.45007  0.00000  0.09985
       9     H     0.45159  0.45159  0.00000  0.09682
      10     C     3.14064  3.14064  0.00000 -0.28127
      11     H     0.45167  0.45167  0.00000  0.09667
      12     H     0.45470  0.45470  0.00000  0.09059
      13     H     0.45233  0.45233  0.00000  0.09534
      14     H     0.45024  0.45024  0.00000  0.09952
      15     H     0.45646  0.45646  0.00000  0.08708

   Total alpha = 21.00000, Total beta = 21.00000, Total charge = -0.00000
