  ==> Input File <==

--------------------------------------------------------------------------
set {
	reference rhf
	basis cc-pvtz
}

set_num_threads( 4 )
memory 2 gb

molecule MOL {
0 1

H	 1.000583	 -2.447585	 1.022331
C	 1.036375	 -1.515789	 1.602096
C	 -0.204505	 -0.669893	 1.528103
O	 2.005836	 -1.240914	 2.220339
C	 -0.554654	 -0.292621	 0.086567
H	 -0.057132	 0.209557	 2.141036
H	 -1.019314	 -1.249085	 1.957639
C	 -1.846385	 0.513195	 -0.016346
H	 0.263161	 0.280276	 -0.341109
H	 -0.645639	 -1.194685	 -0.513162
C	 -3.089953	 -0.365049	 -0.098564
H	 -1.798267	 1.154820	 -0.891143
H	 -1.925398	 1.173265	 0.842889
H	 -3.055079	 -1.012299	 -0.968245
H	 -3.988403	 0.236438	 -0.170014
H	 -3.183055	 -0.995885	 0.779079

	symmetry c1
}
set optking {
	frozen_dihedral = ("
		9 5 8 12
	")
}

ee = optimize('scf')
oeprop('DIPOLE', 'QUADRUPOLE', 'MULLIKEN_CHARGES')
f=open( 'psi4out.xyz', 'w' )
f.write( "16  " )
f.write( str(ee) + "\n" )
f.write( MOL.save_string_xyz() )
f.close()
--------------------------------------------------------------------------

    Molecular point group: c1
  Charge       = 0
  Multiplicity = 1
  Basis Set: CC-PVTZ
  Basis Set:
  @DF-RHF Final Energy:  -270.11621235956261
    Total Energy =                       -270.1162123595626667
    Molecular point group: c1
  Basis Set: CC-PVTZ
  Basis Set:
  Basis Set: CC-PVTZ
  Basis Set:
  @DF-RHF Final Energy:  -270.11641134847901
    Total Energy =                       -270.1164113484787208
  Basis Set: CC-PVTZ
  Basis Set:
  Basis Set: CC-PVTZ
  Basis Set:
  @DF-RHF Final Energy:  -270.11591531529535
    Total Energy =                       -270.1159153152952399
  Basis Set: CC-PVTZ
  Basis Set:
  Basis Set: CC-PVTZ
  Basis Set:
  @DF-RHF Final Energy:  -270.11645635301295
    Total Energy =                       -270.1164563530130636
  Basis Set: CC-PVTZ
  Basis Set:
  Basis Set: CC-PVTZ
  Basis Set:
  @DF-RHF Final Energy:  -270.11646120667291
    Total Energy =                       -270.1164612066728523
  Basis Set: CC-PVTZ
  Basis Set:
  Basis Set: CC-PVTZ
  Basis Set:
  @DF-RHF Final Energy:  -270.11646707903981
    Total Energy =                       -270.1164670790399214
  Basis Set: CC-PVTZ
  Basis Set:
  Charge       = 0
  Multiplicity = 1
  Basis Set: CC-PVTZ
  Basis Set:

    Orbital Energies (a.u.)
    -----------------------

    Doubly Occupied:

       1A    -20.552085     2A    -11.321269     3A    -11.234704
       4A    -11.234058     5A    -11.227562     6A    -11.218380
       7A     -1.406849     8A     -1.097279     9A     -1.018115
      10A     -0.912181    11A     -0.810527    12A     -0.794123
      13A     -0.680682    14A     -0.645430    15A     -0.635309
      16A     -0.607266    17A     -0.574266    18A     -0.565804
      19A     -0.526347    20A     -0.517224    21A     -0.488852
      22A     -0.483632    23A     -0.472153    24A     -0.411809

  @DF-RHF Final Energy:  -270.11646746436884

   => Energetics <=

    Nuclear Repulsion Energy =            231.3501932163152048
    One-Electron Energy =                -824.0615104125279231
    Two-Electron Energy =                 322.5948497318440218
    DFT Exchange-Correlation Energy =       0.0000000000000000
    Empirical Dispersion Energy =           0.0000000000000000
    PCM Polarization Energy =               0.0000000000000000
    EFP Energy =                            0.0000000000000000
    Total Energy =                       -270.1164674643686681
    Molecular point group: c1
  Basis Set: CC-PVTZ
  Basis Set:

  -Total Gradient:
     Atom            X                  Y                   Z
    ------   -----------------  -----------------  -----------------
       1        0.000004501670     0.000002280427    -0.000001493494
       2       -0.000006485336     0.000002822843    -0.000001012368
       3        0.000000640325     0.000004446627    -0.000034101629
       4        0.000004054945    -0.000006935709     0.000012053360
       5        0.000856153951     0.002052700042     0.003709597618
       6       -0.000001582432    -0.000000293054    -0.000001151250
       7       -0.000001271007    -0.000002565922     0.000011334160
       8       -0.001525256227    -0.003010503359    -0.002667876027
       9       -0.000485770828    -0.001238721298    -0.002676788789
      10       -0.000007796250    -0.000001257521     0.000000474281
      11        0.000004743103    -0.000003564258    -0.000000826698
      12        0.001146507635     0.002196610325     0.001640240727
      13        0.000003112509    -0.000004815307     0.000007049214
      14        0.000003991246     0.000003215264     0.000002565024
      15        0.000000105859     0.000004526336     0.000000309013
      16        0.000004350844     0.000002054563    -0.000000373142

  **** Optimization is complete! (in 7 steps) ****
    Final optimized geometry and variables:
    Molecular point group: c1

    Geometry (in Angstrom), charge = 0, multiplicity = 1:

    H            1.422309622383    -1.856589111905     0.135049755423
    C            1.476239168653    -0.924170144522     0.712347528950
    C            0.247408177625    -0.060177919312     0.645959464668
    O            2.454227030860    -0.661938547338     1.322616673931
    C           -0.096136596737     0.332445587964    -0.793512389543
    H            0.409178685324     0.814699744933     1.261561591895
    H           -0.571871561629    -0.630890727966     1.076809256600
    C           -1.409675816263     1.113590027607    -0.919317905326
    H            0.716676833284     0.914995766324    -1.213668636923
    H           -0.158217114473    -0.563973641172    -1.406212513092
    C           -2.652552024053     0.232269250059    -0.985523546559
    H           -1.361523610163     1.747700869327    -1.797707382872
    H           -1.496747025579     1.796003276247    -0.078379599028
    H           -2.626874647827    -0.411191341030    -1.858304298155
    H           -3.551909714809     0.833828849196    -1.044060074484
    H           -2.741626141816    -0.401963333606    -0.110266268931

  Mulliken Charges: (a.u.)
   Center  Symbol    Alpha    Beta     Spin     Total
       1     H     0.46495  0.46495  0.00000  0.07010
       2     C     2.90848  2.90848  0.00000  0.18304
       3     C     3.07751  3.07751  0.00000 -0.15502
       4     O     4.16374  4.16374  0.00000 -0.32748
       5     C     3.10915  3.10915  0.00000 -0.21830
       6     H     0.44217  0.44217  0.00000  0.11566
       7     H     0.45076  0.45076  0.00000  0.09849
       8     C     3.09055  3.09055  0.00000 -0.18111
       9     H     0.43888  0.43888  0.00000  0.12223
      10     H     0.45323  0.45323  0.00000  0.09353
      11     C     3.14796  3.14796  0.00000 -0.29592
      12     H     0.44483  0.44483  0.00000  0.11035
      13     H     0.45312  0.45312  0.00000  0.09375
      14     H     0.45380  0.45380  0.00000  0.09241
      15     H     0.44540  0.44540  0.00000  0.10920
      16     H     0.45546  0.45546  0.00000  0.08908

   Total alpha = 24.00000, Total beta = 24.00000, Total charge =  0.00000
