                              Psi4 1.0.54 Driver

  ==> Input File <==

--------------------------------------------------------------------------
set {
	reference rhf
	basis cc-pvtz
}

set_num_threads( 4 )
memory 2 gb

molecule MOL {
0 1

O	 -2.081319	 -0.951530	 -0.502732
N	 -1.613558	 0.006676	 0.014756
C	 -0.329345	 -0.171618	 0.743966
O	 -2.068523	 1.100482	 -0.024385
C	 0.835904	 0.041968	 -0.213982
H	 -0.346048	 -1.174374	 1.137184
H	 -0.333613	 0.555559	 1.538590
C	 2.177039	 -0.130175	 0.494460
H	 0.754456	 -0.665923	 -1.030569
H	 0.765464	 1.037260	 -0.637266
C	 2.173753	 -1.302099	 1.469684
H	 2.423438	 0.783237	 1.027754
H	 2.959312	 -0.277005	 -0.244389
H	 1.423231	 -1.166909	 2.240488
H	 1.960828	 -2.234711	 0.959179
H	 3.135730	 -1.402738	 1.957161

	symmetry c1
}
set optking {
	frozen_dihedral = ("
		11 8 5 9
	")
}

ee,wfn = optimize('scf', return_wfn=True)
oeprop( wfn, 'DIPOLE', 'QUADRUPOLE', 'MULLIKEN_CHARGES')
f=open( 'psi4out.xyz', 'w' )
f.write( "16  " )
f.write( str(ee) + "\n" )
f.write( MOL.save_string_xyz() )
f.close()
--------------------------------------------------------------------------

    Molecular point group: c1
  Charge       = 0
  Multiplicity = 1
  Basis Set: CC-PVTZ
  Basis Set:
  @DF-RHF Final Energy:  -360.90383889074479
    Total Energy =                       -360.9038388907445665
    Molecular point group: c1
  Basis Set: CC-PVTZ
  Basis Set:
  Basis Set: CC-PVTZ
  Basis Set:
  @DF-RHF Final Energy:  -360.53938514738815
    Total Energy =                       -360.5393851473880886
  Basis Set: CC-PVTZ
  Basis Set:
  Basis Set: CC-PVTZ
  Basis Set:
  @DF-RHF Final Energy:  -360.71689897363558
    Total Energy =                       -360.7168989736352387
  Basis Set: CC-PVTZ
  Basis Set:
  Basis Set: CC-PVTZ
  Basis Set:
  @DF-RHF Final Energy:  -360.87595449335919
    Total Energy =                       -360.8759544933594157
  Basis Set: CC-PVTZ
  Basis Set:
  @DF-RHF Final Energy:  -360.90443169110034
    Total Energy =                       -360.9044316911001715
  @DF-RHF Final Energy:  -360.90578950029180
    Total Energy =                       -360.9057895002915188
  @DF-RHF Final Energy:  -360.88941537864793
    Total Energy =                       -360.8894153786478114
  @DF-RHF Final Energy:  -360.89990811983586
    Total Energy =                       -360.8999081198356862
  @DF-RHF Final Energy:  -360.90598730539267
    Total Energy =                       -360.9059873053925003
  @DF-RHF Final Energy:  -360.90606068847956
    Total Energy =                       -360.9060606884797835
  Basis Set: CC-PVTZ
  Basis Set:
  @DF-RHF Final Energy:  -360.90606610299278
    Total Energy =                       -360.9060661029930088
  Basis Set: CC-PVTZ
  Basis Set:
  Basis Set: CC-PVTZ
  Basis Set:
  @DF-RHF Final Energy:  -360.90606985132422
    Total Energy =                       -360.9060698513243324
  Basis Set: CC-PVTZ
  Basis Set:
  Basis Set: CC-PVTZ
  Basis Set:
  @DF-RHF Final Energy:  -360.90607200769335
    Total Energy =                       -360.9060720076932967
  Basis Set: CC-PVTZ
  Basis Set:
  Charge       = 0
  Multiplicity = 1
  Basis Set: CC-PVTZ
  Basis Set:

    Orbital Energies (a.u.)
    -----------------------

    Doubly Occupied:

       1A    -20.589712     2A    -20.589318     3A    -15.836115
       4A    -11.296127     5A    -11.250644     6A    -11.241954
       7A    -11.229232     8A     -1.635157     9A     -1.419403
      10A     -1.136324    11A     -1.057581    12A     -0.952518
      13A     -0.856004    14A     -0.816922    15A     -0.761701
      16A     -0.737689    17A     -0.723899    18A     -0.670460
      19A     -0.624430    20A     -0.606619    21A     -0.575452
      22A     -0.552951    23A     -0.511569    24A     -0.500675
      25A     -0.492682    26A     -0.485055    27A     -0.471999
      28A     -0.451753

  @DF-RHF Final Energy:  -360.90607233958440

   => Energetics <=

    Nuclear Repulsion Energy =            316.8464710386892875
    One-Electron Energy =               -1119.3571901580528447
    Two-Electron Energy =                 441.6046467797791024
    DFT Exchange-Correlation Energy =       0.0000000000000000
    Empirical Dispersion Energy =           0.0000000000000000
    PCM Polarization Energy =               0.0000000000000000
    EFP Energy =                            0.0000000000000000
    Total Energy =                       -360.9060723395844548
    Molecular point group: c1
  Basis Set: CC-PVTZ
  Basis Set:

  -Total Gradient:
     Atom            X                  Y                   Z
    ------   -----------------  -----------------  -----------------
       1       -0.000050516060     0.000065694867    -0.000005825234
       2       -0.000025264354     0.000056645558    -0.000016875469
       3        0.000020906232     0.000003047976     0.000011198365
       4        0.000038117165    -0.000130348515     0.000009773161
       5       -0.000254283789    -0.001563000230     0.006066556431
       6       -0.000002043961     0.000007369379    -0.000016604079
       7        0.000005668493    -0.000001603909    -0.000001560266
       8        0.001798492595    -0.003029497418    -0.003886565661
       9       -0.000248293776     0.002106472272    -0.004163245650
      10       -0.000001391376    -0.000004448088     0.000013182276
      11       -0.001290030743     0.002485283450     0.001992090255
      12       -0.000001775872    -0.000009002771     0.000008081284
      13        0.000019499335    -0.000002299354     0.000008184074
      14        0.000000468762     0.000007336406    -0.000008950837
      15       -0.000006960684     0.000013711967    -0.000002978748
      16       -0.000002591971    -0.000005361588    -0.000006459901

  **** Optimization is complete! (in 14 steps) ****
    Final optimized geometry and variables:
    Molecular point group: c1

    Geometry (in Angstrom), charge = 0, multiplicity = 1:

    O           -1.671107583330    -1.480165101217     0.070047664933
    N           -1.468099406786    -0.315980319401     0.162301784278
    C           -0.081194925362     0.107217280704     0.495588360799
    O           -2.270973942130     0.537765152975    -0.014201828909
    C            0.727693197493     0.218172418745    -0.790563512628
    H            0.303083338355    -0.645655748546     1.161146806411
    H           -0.171860011610     1.057069618442     0.996079876477
    C            2.136241309180     0.790329078750    -0.588059092778
    H            0.778875467028    -0.747122226544    -1.279868441081
    H            0.189381036062     0.868318792019    -1.470835211013
    C            2.908201428920     0.232180654709     0.605408247458
    H            2.062079009170     1.867615996442    -0.475146685161
    H            2.697773401918     0.619220307368    -1.498628733564
    H            2.444239263540     0.499414704231     1.547532460240
    H            2.981461953487    -0.849783251081     0.564495896211
    H            3.915888777959     0.628626474243     0.619477433714

  Mulliken Charges: (a.u.)
   Center  Symbol    Alpha    Beta     Spin     Total
       1     O     4.17450  4.17450  0.00000 -0.34901
       2     N     3.27517  3.27517  0.00000  0.44965
       3     C     3.04281  3.04281  0.00000 -0.08562
       4     O     4.17336  4.17336  0.00000 -0.34673
       5     C     3.11014  3.11014  0.00000 -0.22028
       6     H     0.43256  0.43256  0.00000  0.13487
       7     H     0.43317  0.43317  0.00000  0.13367
       8     C     3.09565  3.09565  0.00000 -0.19131
       9     H     0.43543  0.43543  0.00000  0.12914
      10     H     0.43448  0.43448  0.00000  0.13103
      11     C     3.15853  3.15853  0.00000 -0.31706
      12     H     0.44787  0.44787  0.00000  0.10426
      13     H     0.44288  0.44288  0.00000  0.11423
      14     H     0.45376  0.45376  0.00000  0.09248
      15     H     0.44903  0.44903  0.00000  0.10195
      16     H     0.44064  0.44064  0.00000  0.11873

   Total alpha = 28.00000, Total beta = 28.00000, Total charge = -0.00000

*** Psi4 exiting successfully. Buy a developer a beer!
