  ==> Input File <==

--------------------------------------------------------------------------
set {
	reference rhf
	basis 6-31G*
}

set_num_threads( 1 )
memory 2 gb

molecule MOL {
0 1

H	 1.067147	 -1.573042	 -3.896059
O	 1.989860	 -1.364103	 -3.892150
C	 2.160210	 0.029076	 -3.956076
C	 1.802303	 0.738769	 -2.654936
H	 3.206683	 0.187513	 -4.182937
H	 1.583981	 0.445964	 -4.781269
C	 0.327207	 0.616900	 -2.264927
H	 2.424476	 0.335905	 -1.859971
H	 2.062970	 1.790648	 -2.759675
C	 -0.011139	 1.384696	 -0.983978
H	 0.077591	 -0.432539	 -2.135560
H	 -0.294575	 0.989191	 -3.079253
C	 -1.493883	 1.366210	 -0.594786
H	 0.581686	 0.988088	 -0.161721
H	 0.299065	 2.420006	 -1.108900
C	 -2.037799	 -0.007733	 -0.193645
H	 -1.637299	 2.052256	 0.237432
H	 -2.086489	 1.762510	 -1.417952
C	 -3.489788	 0.042957	 0.286558
H	 -1.413751	 -0.424406	 0.595697
H	 -1.969181	 -0.696774	 -1.031987
C	 -4.216917	 1.317354	 -0.141063
H	 -4.025645	 -0.823308	 -0.095450
H	 -3.513059	 -0.038752	 1.371301
H	 -4.239342	 1.411634	 -1.223113
H	 -5.243387	 1.322503	 0.212445
H	 -3.726170	 2.201406	 0.256408

	symmetry c1
}
set optking {
	frozen_dihedral = ("
		14 10 7 4,
		14 10 13 16,
		10 7 4 8,
		8 4 3 2,
		10 13 16 20,
		4 3 2 1
	")
}

ee = energy('scf')
oeprop('DIPOLE', 'QUADRUPOLE', 'MULLIKEN_CHARGES')
f=open( 'psi4out.xyz', 'w' )
f.write( "27  " )
f.write( str(ee) + "\n" )
f.write( MOL.save_string_xyz() )
f.close()
--------------------------------------------------------------------------

    Molecular point group: c1

    Geometry (in Angstrom), charge = 0, multiplicity = 1:

       Center              X                  Y                   Z               Mass
    ------------   -----------------  -----------------  -----------------  -----------------
           H          1.594804751089    -2.003762216796    -2.255114972580     1.007825032070
           O          2.517517751089    -1.794823216796    -2.251205972580    15.994914619560
           C          2.687867751089    -0.401644216796    -2.315131972580    12.000000000000
           C          2.329960751089     0.308048783204    -1.013991972580    12.000000000000
           H          3.734340751089    -0.243207216796    -2.541992972580     1.007825032070
           H          2.111638751089     0.015243783204    -3.140324972580     1.007825032070
           C          0.854864751089     0.186179783204    -0.623982972580    12.000000000000
           H          2.952133751089    -0.094815216796    -0.219026972580     1.007825032070
           H          2.590627751089     1.359927783204    -1.118730972580     1.007825032070
           C          0.516518751089     0.953975783204     0.656966027420    12.000000000000
           H          0.605248751089    -0.863259216796    -0.494615972580     1.007825032070
           H          0.233082751089     0.558470783204    -1.438308972580     1.007825032070
           C         -0.966225248911     0.935489783204     1.046158027420    12.000000000000
           H          1.109343751089     0.557367783204     1.479223027420     1.007825032070
           H          0.826722751089     1.989285783204     0.532044027420     1.007825032070
           C         -1.510141248911    -0.438453216796     1.447299027420    12.000000000000
           H         -1.109641248911     1.621535783204     1.878376027420     1.007825032070
           H         -1.558831248911     1.331789783204     0.222992027420     1.007825032070
           C         -2.962130248911    -0.387763216796     1.927502027420    12.000000000000
           H         -0.886093248911    -0.855126216796     2.236641027420     1.007825032070
           H         -1.441523248911    -1.127494216796     0.608957027420     1.007825032070
           C         -3.689259248911     0.886633783204     1.499881027420    12.000000000000
           H         -3.497987248911    -1.254028216796     1.545494027420     1.007825032070
           H         -2.985401248911    -0.469472216796     3.012245027420     1.007825032070
           H         -3.711684248911     0.980913783204     0.417831027420     1.007825032070
           H         -4.715729248911     0.891782783204     1.853389027420     1.007825032070
           H         -3.198512248911     1.770685783204     1.897352027420     1.007825032070

  Charge       = 0
  Multiplicity = 1
  Basis Set: 6-31G*
  Basis Set:

    Orbital Energies (a.u.)
    -----------------------

    Doubly Occupied:

       1A    -20.552100     2A    -11.266826     3A    -11.219320
       4A    -11.216233     5A    -11.214920     6A    -11.214873
       7A    -11.214275     8A    -11.213094     9A    -11.207803
      10A     -1.358842    11A     -1.096877    12A     -1.062637
      13A     -1.006883    14A     -0.943394    15A     -0.897004
      16A     -0.832825    17A     -0.798152    18A     -0.760366
      19A     -0.693342    20A     -0.652559    21A     -0.638810
      22A     -0.615177    23A     -0.607385    24A     -0.587796
      25A     -0.575727    26A     -0.557509    27A     -0.536566
      28A     -0.524193    29A     -0.513970    30A     -0.498347
      31A     -0.482444    32A     -0.476240    33A     -0.469954
      34A     -0.451262    35A     -0.445770    36A     -0.439932
      37A     -0.422669

  @DF-RHF Final Energy:  -388.26971629196640

   => Energetics <=

    Nuclear Repulsion Energy =            465.7330826356316607
    One-Electron Energy =               -1449.4738418717458899
    Two-Electron Energy =                 595.4710429441507813
    DFT Exchange-Correlation Energy =       0.0000000000000000
    Empirical Dispersion Energy =           0.0000000000000000
    PCM Polarization Energy =               0.0000000000000000
    EFP Energy =                            0.0000000000000000
    Total Energy =                       -388.2697162919633911

  Mulliken Charges: (a.u.)
   Center  Symbol    Alpha    Beta     Spin     Total
       1     H     0.27993  0.27993  0.00000  0.44013
       2     O     4.37096  4.37096  0.00000 -0.74193
       3     C     2.99734  2.99734  0.00000  0.00532
       4     C     3.16089  3.16089  0.00000 -0.32178
       5     H     0.41450  0.41450  0.00000  0.17099
       6     H     0.43213  0.43213  0.00000  0.13574
       7     C     3.16332  3.16332  0.00000 -0.32663
       8     H     0.41500  0.41500  0.00000  0.17000
       9     H     0.42441  0.42441  0.00000  0.15117
      10     C     3.14951  3.14951  0.00000 -0.29901
      11     H     0.42295  0.42295  0.00000  0.15411
      12     H     0.42584  0.42584  0.00000  0.14832
      13     C     3.16096  3.16096  0.00000 -0.32192
      14     H     0.42220  0.42220  0.00000  0.15560
      15     H     0.42206  0.42206  0.00000  0.15588
      16     C     3.15516  3.15516  0.00000 -0.31031
      17     H     0.42011  0.42011  0.00000  0.15979
      18     H     0.42065  0.42065  0.00000  0.15871
      19     C     3.15395  3.15395  0.00000 -0.30790
      20     H     0.42065  0.42065  0.00000  0.15870
      21     H     0.42213  0.42213  0.00000  0.15575
      22     C     3.24567  3.24567  0.00000 -0.49134
      23     H     0.42028  0.42028  0.00000  0.15944
      24     H     0.42084  0.42084  0.00000  0.15833
      25     H     0.42161  0.42161  0.00000  0.15678
      26     H     0.41825  0.41825  0.00000  0.16350
      27     H     0.41872  0.41872  0.00000  0.16256

   Total alpha = 37.00000, Total beta = 37.00000, Total charge = -0.00000
