  ==> Input File <==

--------------------------------------------------------------------------
set {
	reference rhf
	basis 6-31G*
}

set_num_threads( 4 )
memory 2 gb

molecule MOL {
0 1

H	 1.148083	 -1.049780	 0.784252
O	 1.319262	 -0.618148	 -0.041729
C	 0.709265	 0.639550	 -0.033818
C	 0.625041	 1.276071	 1.328653
H	 -0.289237	 0.493845	 -0.430010
H	 1.217867	 1.320628	 -0.715347
C	 0.927817	 0.683447	 2.466145
H	 0.281930	 2.299176	 1.332566
H	 1.255114	 -0.339812	 2.501443
H	 0.844681	 1.199956	 3.405444

	symmetry c1
}
set optking {
	frozen_dihedral = ("
		5 3 2 1
	")
}

ee = optimize('scf')
oeprop('DIPOLE', 'QUADRUPOLE', 'MULLIKEN_CHARGES')
f=open( 'psi4out.xyz', 'w' )
f.write( "10  " )
f.write( str(ee) + "\n" )
f.write( MOL.save_string_xyz() )
f.close()
--------------------------------------------------------------------------

    Molecular point group: c1
  Charge       = 0
  Multiplicity = 1
  Basis Set: 6-31G*
  Basis Set:
  @DF-RHF Final Energy:  -191.91125939414150
    Total Energy =                       -191.9112593941414673
    Molecular point group: c1
  Basis Set: 6-31G*
  Basis Set:
  Basis Set: 6-31G*
  Basis Set:
  @DF-RHF Final Energy:  -191.91364825309134
    Total Energy =                       -191.9136482530914805
  Basis Set: 6-31G*
  Basis Set:
  Basis Set: 6-31G*
  Basis Set:
  @DF-RHF Final Energy:  -191.91443999535949
    Total Energy =                       -191.9144399953595439
  Basis Set: 6-31G*
  Basis Set:
  Basis Set: 6-31G*
  Basis Set:
  @DF-RHF Final Energy:  -191.91475093845915
    Total Energy =                       -191.9147509384592638
  Basis Set: 6-31G*
  Basis Set:
  @DF-RHF Final Energy:  -191.91500362988975
    Total Energy =                       -191.9150036298897817
  Basis Set: 6-31G*
  Basis Set:
  @DF-RHF Final Energy:  -191.91520566897719
    Total Energy =                       -191.9152056689771939
  Basis Set: 6-31G*
  Basis Set:
  Basis Set: 6-31G*
  Basis Set:
  @DF-RHF Final Energy:  -191.91550302808190
    Total Energy =                       -191.9155030280819574
  Basis Set: 6-31G*
  Basis Set:
  Basis Set: 6-31G*
  Basis Set:
  @DF-RHF Final Energy:  -191.91550989498782
    Total Energy =                       -191.9155098949877356
  Basis Set: 6-31G*
  Basis Set:
  Charge       = 0
  Multiplicity = 1
  Basis Set: 6-31G*
  Basis Set:

    Orbital Energies (a.u.)
    -----------------------

    Doubly Occupied:

       1A    -20.558005     2A    -11.278024     3A    -11.238442
       4A    -11.226716     5A     -1.367384     6A     -1.063072
       7A     -0.931876     8A     -0.774589     9A     -0.684070
      10A     -0.662350    11A     -0.620711    12A     -0.570805
      13A     -0.551407    14A     -0.483091    15A     -0.452003
      16A     -0.369660

  @DF-RHF Final Energy:  -191.91551084038795

   => Energetics <=

    Nuclear Repulsion Energy =            119.4057502660063790
    One-Electron Energy =                -496.9781118107715656
    Two-Electron Energy =                 185.6568507043770921
    DFT Exchange-Correlation Energy =       0.0000000000000000
    Empirical Dispersion Energy =           0.0000000000000000
    PCM Polarization Energy =               0.0000000000000000
    EFP Energy =                            0.0000000000000000
    Total Energy =                       -191.9155108403880661
    Molecular point group: c1
  Basis Set: 6-31G*
  Basis Set:

  -Total Gradient:
     Atom            X                  Y                   Z
    ------   -----------------  -----------------  -----------------
       1        0.002861216471     0.000979980355     0.002099622072
       2       -0.003056443265    -0.001052209646    -0.003255498575
       3       -0.001458794309    -0.000566163566     0.003788226983
       4       -0.000097370018    -0.000038221615     0.000027338767
       5        0.001716757870     0.000637419421    -0.002638490990
       6        0.000002878997     0.000019662699    -0.000027896002
       7       -0.000066883635    -0.000050211507     0.000043175433
       8        0.000026469937     0.000019630440     0.000000748194
       9        0.000030649446     0.000013192083    -0.000024644529
      10        0.000041518504     0.000036921338    -0.000012581353

  **** Optimization is complete! (in 9 steps) ****
    Final optimized geometry and variables:
    Molecular point group: c1

    Geometry (in Angstrom), charge = 0, multiplicity = 1:

    H           -0.050260098123    -1.570146414575    -0.191207991899
    O            0.321359574011    -1.100834078696    -0.925004182934
    C           -0.149329631855     0.215873138777    -0.918020657853
    C           -0.353122544664     0.805109587861     0.452185122913
    H           -1.068687951979     0.292827118790    -1.496161013244
    H            0.587437360760     0.807387681723    -1.452657596005
    C            0.138482755198     0.321930413179     1.576326772348
    H           -0.946176040121     1.705444652701     0.476800092076
    H            0.759550806740    -0.556171236556     1.601544075516
    H           -0.048352175941     0.801857189551     2.519741157155

  Mulliken Charges: (a.u.)
   Center  Symbol    Alpha    Beta     Spin     Total
       1     H     0.28019  0.28019  0.00000  0.43962
       2     O     4.37126  4.37126  0.00000 -0.74251
       3     C     2.99209  2.99209  0.00000  0.01582
       4     C     3.09642  3.09642  0.00000 -0.19283
       5     H     0.42415  0.42415  0.00000  0.15170
       6     H     0.40992  0.40992  0.00000  0.18015
       7     C     3.20184  3.20184  0.00000 -0.40368
       8     H     0.40681  0.40681  0.00000  0.18638
       9     H     0.40923  0.40923  0.00000  0.18153
      10     H     0.40809  0.40809  0.00000  0.18382

   Total alpha = 16.00000, Total beta = 16.00000, Total charge =  0.00000
