  ==> Input File <==

--------------------------------------------------------------------------
set {
	reference rhf
	basis 6-31G*
}

set_num_threads( 4 )
memory 2 gb

molecule MOL {
0 1

H	 -2.422168	 1.238814	 -1.276178
N	 -1.432904	 1.218955	 -1.121462
C	 -0.803668	 0.200390	 -1.943467
H	 -1.286164	 1.005315	 -0.154025
C	 0.684734	 0.160003	 -1.667489
H	 -1.209227	 -0.800477	 -1.789227
H	 -0.954484	 0.455473	 -2.987961
O	 0.874168	 -0.245412	 -0.342030
H	 1.174780	 -0.537855	 -2.346081
H	 1.112769	 1.147560	 -1.824818
C	 2.202317	 -0.244239	 0.074611
H	 2.711377	 -1.041390	 -0.449894
H	 2.692099	 0.699270	 -0.159667
H	 2.283185	 -0.418429	 1.145558

	symmetry c1
}
set optking {
	frozen_dihedral = ("
		5 8 11 13
	")
}

ee = optimize('scf')
oeprop('DIPOLE', 'QUADRUPOLE', 'MULLIKEN_CHARGES')
f=open( 'psi4out.xyz', 'w' )
f.write( "14  " )
f.write( str(ee) + "\n" )
f.write( MOL.save_string_xyz() )
f.close()
--------------------------------------------------------------------------

    Molecular point group: c1
  Charge       = 0
  Multiplicity = 1
  Basis Set: 6-31G*
  Basis Set:
  @DF-RHF Final Energy:  -248.12396884149186
    Total Energy =                       -248.1239688414917737
    Molecular point group: c1
  Basis Set: 6-31G*
  Basis Set:
  Basis Set: 6-31G*
  Basis Set:
  @DF-RHF Final Energy:  -248.12475468700694
    Total Energy =                       -248.1247546870068845
  Basis Set: 6-31G*
  Basis Set:
  Basis Set: 6-31G*
  Basis Set:
  @DF-RHF Final Energy:  -248.12497908873729
    Total Energy =                       -248.1249790887375184
  Basis Set: 6-31G*
  Basis Set:
  Basis Set: 6-31G*
  Basis Set:
  @DF-RHF Final Energy:  -248.12498033416847
    Total Energy =                       -248.1249803341683560
  Basis Set: 6-31G*
  Basis Set:
  Charge       = 0
  Multiplicity = 1
  Basis Set: 6-31G*
  Basis Set:

    Orbital Energies (a.u.)
    -----------------------

    Doubly Occupied:

       1A    -20.557285     2A    -15.528390     3A    -11.266266
       4A    -11.265751     5A    -11.240784     6A     -1.381203
       7A     -1.173562     8A     -0.999078     9A     -0.907271
      10A     -0.815270    11A     -0.683430    12A     -0.673967
      13A     -0.645630    14A     -0.609924    15A     -0.605404
      16A     -0.540656    17A     -0.529968    18A     -0.497323
      19A     -0.472779    20A     -0.417124    21A     -0.380047

  @DF-RHF Final Energy:  -248.12498076884322

   => Energetics <=

    Nuclear Repulsion Energy =            194.6644633703830323
    One-Electron Energy =                -723.1966671034190313
    Two-Electron Energy =                 280.4072229641926128
    DFT Exchange-Correlation Energy =       0.0000000000000000
    Empirical Dispersion Energy =           0.0000000000000000
    PCM Polarization Energy =               0.0000000000000000
    EFP Energy =                            0.0000000000000000
    Total Energy =                       -248.1249807688433862
    Molecular point group: c1
  Basis Set: 6-31G*
  Basis Set:

  -Total Gradient:
     Atom            X                  Y                   Z
    ------   -----------------  -----------------  -----------------
       1        0.000000373638    -0.000000167993     0.000004928568
       2       -0.000004194207    -0.000003736601     0.000001202466
       3        0.000008787498     0.000020015585    -0.000004626632
       4       -0.000003269247    -0.000003580368     0.000002560834
       5       -0.000113083568     0.001174766375     0.000363325935
       6        0.000011180142     0.000006415525     0.000004958123
       7       -0.000001613002     0.000000997294    -0.000004955073
       8        0.000291516805    -0.001852481825    -0.000927705909
       9        0.000003877822    -0.000002357525     0.000006112782
      10       -0.000007865487    -0.000004313030     0.000002756672
      11       -0.000596191292     0.001239498036     0.001969702423
      12       -0.000006431154    -0.000000307911    -0.000003729716
      13        0.000424988497    -0.000576964041    -0.001411706982
      14       -0.000008076449     0.000002216480    -0.000002823492

  **** Optimization is complete! (in 5 steps) ****
    Final optimized geometry and variables:
    Molecular point group: c1

    Geometry (in Angstrom), charge = 0, multiplicity = 1:

    H           -2.730244088313     1.021078361112    -0.281326992372
    N           -1.740177506873     1.001297013040    -0.132040581755
    C           -1.114528260963    -0.014186310928    -0.960673572852
    H           -1.588169163776     0.784731738769     0.833902495281
    C            0.375227583222    -0.055655152285    -0.691975744150
    H           -1.519452334923    -1.015570621898    -0.808442124834
    H           -1.269935055705     0.244711121588    -2.003526209224
    O            0.570002451395    -0.461942567245     0.632334385442
    H            0.861273873656    -0.752134797586    -1.375115321112
    H            0.802959754277     0.931835938469    -0.848825680069
    C            1.899333632080    -0.466131718309     1.046594907639
    H            2.458435968886    -1.269129438346     0.569089999227
    H            2.392774938619     0.474567865625     0.812495956317
    H            1.912325717863    -0.619356972475     2.116946423881

  Mulliken Charges: (a.u.)
   Center  Symbol    Alpha    Beta     Spin     Total
       1     H     0.33283  0.33283  0.00000  0.33433
       2     N     3.92529  3.92529  0.00000 -0.85057
       3     C     3.06895  3.06895  0.00000 -0.13790
       4     H     0.32369  0.32369  0.00000  0.35261
       5     C     2.99014  2.99014  0.00000  0.01973
       6     H     0.42661  0.42661  0.00000  0.14679
       7     H     0.42045  0.42045  0.00000  0.15909
       8     O     4.31009  4.31009  0.00000 -0.62018
       9     H     0.43124  0.43124  0.00000  0.13753
      10     H     0.42221  0.42221  0.00000  0.15558
      11     C     3.07849  3.07849  0.00000 -0.15699
      12     H     0.42912  0.42912  0.00000  0.14177
      13     H     0.42829  0.42829  0.00000  0.14343
      14     H     0.41261  0.41261  0.00000  0.17478

   Total alpha = 21.00000, Total beta = 21.00000, Total charge = -0.00000
