  ==> Input File <==

--------------------------------------------------------------------------
set {
	reference rhf
	basis 6-31G*
}

set_num_threads( 1 )
memory 2 gb

molecule MOL {
0 1

O	 3.118491	 -3.180076	 -0.238203
C	 2.643482	 -2.159833	 0.144589
C	 1.194291	 -1.945655	 0.508954
O	 3.347903	 -1.046386	 0.304773
C	 0.344038	 -3.204506	 0.352496
H	 1.174434	 -1.564989	 1.524774
H	 0.819400	 -1.140073	 -0.117297
C	 -1.148302	 -2.978148	 0.617409
H	 0.722156	 -3.977281	 1.015041
H	 0.472179	 -3.585212	 -0.655008
C	 -1.499373	 -2.615554	 2.063225
H	 -1.679874	 -3.888044	 0.348624
H	 -1.521497	 -2.202801	 -0.050102
C	 -3.007106	 -2.508327	 2.300385
H	 -1.082894	 -3.367487	 2.731776
H	 -1.033021	 -1.671763	 2.336623
C	 -3.369559	 -2.141293	 3.740540
H	 -3.480150	 -3.454094	 2.041565
H	 -3.425898	 -1.764215	 1.624657
C	 -4.877149	 -2.039982	 3.969903
H	 -2.950983	 -2.883303	 4.417192
H	 -2.901188	 -1.194051	 3.999659
H	 -5.102152	 -1.778585	 4.999297
H	 -5.370954	 -2.982946	 3.752715
H	 -5.320763	 -1.281096	 3.331488
C	 4.728119	 -1.109107	 -0.004993
H	 4.882018	 -1.033965	 -1.071845
H	 5.068212	 -2.067527	 0.355250
H	 5.265056	 -0.311663	 0.488280

	symmetry c1
}
set optking {
	frozen_dihedral = ("
		21 17 14 11,
		17 14 11 15,
		15 11 8 5,
		6 3 5 9,
		11 8 5 9,
		1 2 4 26,
		6 3 2 1
	")
}

ee = energy('scf')
oeprop('DIPOLE', 'QUADRUPOLE', 'MULLIKEN_CHARGES')
f=open( 'psi4out.xyz', 'w' )
f.write( "29  " )
f.write( str(ee) + "\n" )
f.write( MOL.save_string_xyz() )
f.close()
--------------------------------------------------------------------------

    Molecular point group: c1

    Geometry (in Angstrom), charge = 0, multiplicity = 1:

       Center              X                  Y                   Z               Mass
    ------------   -----------------  -----------------  -----------------  -----------------
           O          2.941777843219    -0.925649330851    -1.482052147316    15.994914619560
           C          2.466768843219     0.094593669149    -1.099260147316    12.000000000000
           C          1.017577843219     0.308771669149    -0.734895147316    12.000000000000
           O          3.171189843219     1.208040669149    -0.939076147316    15.994914619560
           C          0.167324843219    -0.950079330851    -0.891353147316    12.000000000000
           H          0.997720843219     0.689437669149     0.280924852684     1.007825032070
           H          0.642686843219     1.114353669149    -1.361146147316     1.007825032070
           C         -1.325015156781    -0.723721330851    -0.626440147316    12.000000000000
           H          0.545442843219    -1.722854330851    -0.228808147316     1.007825032070
           H          0.295465843219    -1.330785330851    -1.898857147316     1.007825032070
           C         -1.676086156781    -0.361127330851     0.819375852684    12.000000000000
           H         -1.856587156781    -1.633617330851    -0.895225147316     1.007825032070
           H         -1.698210156781     0.051625669149    -1.293951147316     1.007825032070
           C         -3.183819156781    -0.253900330851     1.056535852684    12.000000000000
           H         -1.259607156781    -1.113060330851     1.487926852684     1.007825032070
           H         -1.209734156781     0.582663669149     1.092773852684     1.007825032070
           C         -3.546272156781     0.113133669149     2.496690852684    12.000000000000
           H         -3.656863156781    -1.199667330851     0.797715852684     1.007825032070
           H         -3.602611156781     0.490211669149     0.380807852684     1.007825032070
           C         -5.053862156781     0.214444669149     2.726053852684    12.000000000000
           H         -3.127696156781    -0.628876330851     3.173342852684     1.007825032070
           H         -3.077901156781     1.060375669149     2.755809852684     1.007825032070
           H         -5.278865156781     0.475841669149     3.755447852684     1.007825032070
           H         -5.547667156781    -0.728519330851     2.508865852684     1.007825032070
           H         -5.497476156781     0.973330669149     2.087638852684     1.007825032070
           C          4.551405843219     1.145319669149    -1.248842147316    12.000000000000
           H          4.705304843219     1.220461669149    -2.315694147316     1.007825032070
           H          4.891498843219     0.186899669149    -0.888599147316     1.007825032070
           H          5.088342843219     1.942763669149    -0.755569147316     1.007825032070

  Charge       = 0
  Multiplicity = 1
  Basis Set: 6-31G*
  Basis Set:

    Orbital Energies (a.u.)
    -----------------------

    Doubly Occupied:

       1A    -20.602543     2A    -20.545258     3A    -11.372925
       4A    -11.279069     5A    -11.235052     6A    -11.219281
       7A    -11.217752     8A    -11.216061     9A    -11.215899
      10A    -11.214512    11A    -11.209085    12A     -1.469292
      13A     -1.362625    14A     -1.098212    15A     -1.066937
      16A     -1.019457    17A     -0.976623    18A     -0.928284
      19A     -0.861622    20A     -0.799264    21A     -0.790488
      22A     -0.763057    23A     -0.702201    24A     -0.682398
      25A     -0.673276    26A     -0.651014    27A     -0.629195
      28A     -0.606666    29A     -0.595368    30A     -0.581602
      31A     -0.567024    32A     -0.549881    33A     -0.533070
      34A     -0.525862    35A     -0.515266    36A     -0.510212
      37A     -0.496148    38A     -0.477943    39A     -0.470265
      40A     -0.462517    41A     -0.459011    42A     -0.454980
      43A     -0.441754    44A     -0.435559

  @DF-RHF Final Energy:  -501.04172190143584

   => Energetics <=

    Nuclear Repulsion Energy =            610.3456198540535524
    One-Electron Energy =               -1891.8056978445126788
    Two-Electron Energy =                 780.4183560890253375
    DFT Exchange-Correlation Energy =       0.0000000000000000
    Empirical Dispersion Energy =           0.0000000000000000
    PCM Polarization Energy =               0.0000000000000000
    EFP Energy =                            0.0000000000000000
    Total Energy =                       -501.0417219014336752

  Mulliken Charges: (a.u.)
   Center  Symbol    Alpha    Beta     Spin     Total
       1     O     4.28619  4.28619  0.00000 -0.57239
       2     C     2.60456  2.60456  0.00000  0.79088
       3     C     3.20957  3.20957  0.00000 -0.41914
       4     O     4.30833  4.30833  0.00000 -0.61667
       5     C     3.15390  3.15390  0.00000 -0.30781
       6     H     0.39871  0.39871  0.00000  0.20257
       7     H     0.40098  0.40098  0.00000  0.19805
       8     C     3.15663  3.15663  0.00000 -0.31327
       9     H     0.41309  0.41309  0.00000  0.17381
      10     H     0.40868  0.40868  0.00000  0.18264
      11     C     3.15508  3.15508  0.00000 -0.31017
      12     H     0.41819  0.41819  0.00000  0.16362
      13     H     0.42382  0.42382  0.00000  0.15235
      14     C     3.15030  3.15030  0.00000 -0.30060
      15     H     0.42261  0.42261  0.00000  0.15478
      16     H     0.42358  0.42358  0.00000  0.15283
      17     C     3.15147  3.15147  0.00000 -0.30293
      18     H     0.42332  0.42332  0.00000  0.15337
      19     H     0.42396  0.42396  0.00000  0.15209
      20     C     3.23935  3.23935  0.00000 -0.47871
      21     H     0.42280  0.42280  0.00000  0.15440
      22     H     0.42342  0.42342  0.00000  0.15317
      23     H     0.41922  0.41922  0.00000  0.16156
      24     H     0.42154  0.42154  0.00000  0.15691
      25     H     0.42182  0.42182  0.00000  0.15636
      26     C     3.09530  3.09530  0.00000 -0.19060
      27     H     0.41270  0.41270  0.00000  0.17461
      28     H     0.40221  0.40221  0.00000  0.19559
      29     H     0.40865  0.40865  0.00000  0.18269

   Total alpha = 44.00000, Total beta = 44.00000, Total charge =  0.00000
