  ==> Input File <==

--------------------------------------------------------------------------
set {
	reference rhf
	basis cc-pvtz
}

set_num_threads( 4 )
memory 2 gb

molecule MOL {
0 1

H	 -3.162190	 0.493205	 -0.000107
C	 -2.363908	 -0.234727	 0.000005
O	 -1.158738	 0.454634	 -0.000087
H	 -2.464314	 -0.863616	 -0.882153
H	 -2.464327	 -0.863359	 0.882345
C	 -0.028611	 -0.359694	 0.000037
C	 1.212847	 0.509314	 -0.000053
H	 -0.034155	 -1.007047	 -0.877198
H	 -0.034195	 -1.006836	 0.877430
C	 2.174522	 0.151022	 1.127404
H	 1.707047	 0.405550	 -0.959702
H	 0.908319	 1.546666	 0.084293
H	 2.511182	 -0.877305	 1.048103
H	 3.051393	 0.786282	 1.103664
H	 1.707224	 0.271721	 2.099069

	symmetry c1
}
set optking {
	frozen_dihedral = ("
		11 7 6 8
	")
}

ee = optimize('scf')
oeprop('DIPOLE', 'QUADRUPOLE', 'MULLIKEN_CHARGES')
f=open( 'psi4out.xyz', 'w' )
f.write( "15  " )
f.write( str(ee) + "\n" )
f.write( MOL.save_string_xyz() )
f.close()
--------------------------------------------------------------------------

    Molecular point group: c1
  Charge       = 0
  Multiplicity = 1
  Basis Set: CC-PVTZ
  Basis Set:
  @DF-RHF Final Energy:  -232.22218348035932
    Total Energy =                       -232.2221834803593765
    Molecular point group: c1
  Basis Set: CC-PVTZ
  Basis Set:
  Basis Set: CC-PVTZ
  Basis Set:
  @DF-RHF Final Energy:  -232.22253642963469
    Total Energy =                       -232.2225364296347720
  Basis Set: CC-PVTZ
  Basis Set:
  Basis Set: CC-PVTZ
  Basis Set:
  @DF-RHF Final Energy:  -232.22264541387148
    Total Energy =                       -232.2226454138713621
  Basis Set: CC-PVTZ
  Basis Set:
  Basis Set: CC-PVTZ
  Basis Set:
  @DF-RHF Final Energy:  -232.22264708109853
    Total Energy =                       -232.2226470810985006
  Basis Set: CC-PVTZ
  Basis Set:
  Charge       = 0
  Multiplicity = 1
  Basis Set: CC-PVTZ
  Basis Set:

    Orbital Energies (a.u.)
    -----------------------

    Doubly Occupied:

       1A    -20.547429     2A    -11.264773     3A    -11.261340
       4A    -11.212606     5A    -11.209070     6A     -1.380833
       7A     -1.054613     8A     -0.954879     9A     -0.878394
      10A     -0.809239    11A     -0.672939    12A     -0.658154
      13A     -0.633210    14A     -0.596998    15A     -0.571617
      16A     -0.545716    17A     -0.494153    18A     -0.490161
      19A     -0.480330    20A     -0.462412    21A     -0.414293

  @DF-RHF Final Energy:  -232.22264744254861

   => Energetics <=

    Nuclear Repulsion Energy =            190.1192355992382375
    One-Electron Energy =                -691.4974441779106655
    Two-Electron Energy =                 269.1555611361236515
    DFT Exchange-Correlation Energy =       0.0000000000000000
    Empirical Dispersion Energy =           0.0000000000000000
    PCM Polarization Energy =               0.0000000000000000
    EFP Energy =                            0.0000000000000000
    Total Energy =                       -232.2226474425488050
    Molecular point group: c1
  Basis Set: CC-PVTZ
  Basis Set:

  -Total Gradient:
     Atom            X                  Y                   Z
    ------   -----------------  -----------------  -----------------
       1       -0.000009927479    -0.000006846445     0.000001547812
       2       -0.000041826500    -0.000001694907    -0.000001794868
       3        0.000083272808    -0.000051669327    -0.000001617723
       4       -0.000004107333     0.000000645553     0.000002964129
       5       -0.000004733083     0.000001080083    -0.000002148971
       6        0.001311116668    -0.001842302846     0.001243964410
       7       -0.001338090137     0.002003093108    -0.000963388302
       8       -0.000879373740     0.001256820738    -0.000893007614
       9       -0.000002066139     0.000006302986    -0.000002706256
      10       -0.000021813342    -0.000000377787     0.000001917789
      11        0.000912946295    -0.001371762033     0.000625473437
      12       -0.000003972201     0.000003781407     0.000002509010
      13       -0.000006337945    -0.000000101389     0.000000753815
      14       -0.000003138355     0.000002030951    -0.000010414313
      15        0.000008050480     0.000000999908    -0.000004052356

  **** Optimization is complete! (in 5 steps) ****
    Final optimized geometry and variables:
    Molecular point group: c1

    Geometry (in Angstrom), charge = 0, multiplicity = 1:

    H           -3.108901496643     0.396584054122    -0.246874127247
    C           -2.309190201245    -0.330000784384    -0.245180795727
    O           -1.105371146364     0.360565108569    -0.224946366968
    H           -2.399167986669    -0.950618336422    -1.134491550771
    H           -2.418957650245    -0.968114799163     0.629456752404
    C            0.026426705908    -0.458101641238    -0.214842370678
    C            1.284879585086     0.415057610927    -0.220491140163
    H            0.003250216953    -1.107598633618    -1.087905781599
    H            0.005771697772    -1.096137244095     0.667185335571
    C            2.269149390062     0.063383537672     0.891422459639
    H            1.789265795877     0.324908307697    -1.175891980012
    H            0.970151682101     1.445385985187    -0.121563198873
    H            2.600603982461    -0.967223830777     0.814450174971
    H            3.148707889162     0.694912588264     0.846284031080
    H            1.815577830509     0.192555755652     1.868165181205

  Mulliken Charges: (a.u.)
   Center  Symbol    Alpha    Beta     Spin     Total
       1     H     0.44704  0.44704  0.00000  0.10592
       2     C     3.02910  3.02910  0.00000 -0.05821
       3     O     4.17192  4.17192  0.00000 -0.34383
       4     H     0.47226  0.47226  0.00000  0.05547
       5     H     0.47341  0.47341  0.00000  0.05319
       6     C     2.96340  2.96340  0.00000  0.07321
       7     C     3.08661  3.08661  0.00000 -0.17322
       8     H     0.47360  0.47360  0.00000  0.05279
       9     H     0.47413  0.47413  0.00000  0.05173
      10     C     3.15244  3.15244  0.00000 -0.30488
      11     H     0.45307  0.45307  0.00000  0.09386
      12     H     0.44428  0.44428  0.00000  0.11145
      13     H     0.45667  0.45667  0.00000  0.08665
      14     H     0.44894  0.44894  0.00000  0.10211
      15     H     0.45312  0.45312  0.00000  0.09375

   Total alpha = 21.00000, Total beta = 21.00000, Total charge =  0.00000
