                              Psi4 1.0.54 Driver

  ==> Input File <==

--------------------------------------------------------------------------
set {
	reference rhf
	basis cc-pvtz
}

set_num_threads( 4 )
memory 2 gb

molecule MOL {
0 1

H	 3.083659	 -1.378387	 0.000000
O	 2.179005	 -1.633391	 0.000000
C	 1.366950	 -0.558201	 0.000000
C	 -0.014834	 -0.673767	 0.000000
C	 1.954113	 0.690502	 -0.000000
H	 -0.470564	 -1.647286	 0.000000
C	 -0.805206	 0.457722	 0.000000
H	 3.021012	 0.783076	 -0.000000
C	 1.154528	 1.819231	 -0.000000
H	 -1.873143	 0.356068	 0.000000
C	 -0.225694	 1.710553	 -0.000000
C	 1.774552	 3.170138	 -0.000000
H	 -0.837710	 2.592214	 -0.000000
O	 2.939226	 3.377391	 -0.000000
H	 1.061656	 4.000426	 -0.000000

	symmetry c1
}
set optking {
	frozen_dihedral = ("
		4 3 2 1
	")
}

ee,wfn = optimize('scf', return_wfn=True)
oeprop( wfn, 'DIPOLE', 'QUADRUPOLE', 'MULLIKEN_CHARGES')
f=open( 'psi4out.xyz', 'w' )
f.write( "15  " )
f.write( str(ee) + "\n" )
f.write( MOL.save_string_xyz() )
f.close()
--------------------------------------------------------------------------

    Molecular point group: c1
  Charge       = 0
  Multiplicity = 1
  Basis Set: CC-PVTZ
  Basis Set:
  @DF-RHF Final Energy:  -418.43816605596714
    Total Energy =                       -418.4381660559674856
    Molecular point group: c1
  Basis Set: CC-PVTZ
  Basis Set:
  Basis Set: CC-PVTZ
  Basis Set:
  @DF-RHF Final Energy:  -418.44012411521743
    Total Energy =                       -418.4401241152172588
  Basis Set: CC-PVTZ
  Basis Set:
  Basis Set: CC-PVTZ
  Basis Set:
  @DF-RHF Final Energy:  -418.44029571577892
    Total Energy =                       -418.4402957157788023
  Basis Set: CC-PVTZ
  Basis Set:
  Basis Set: CC-PVTZ
  Basis Set:
  @DF-RHF Final Energy:  -418.44032409982566
    Total Energy =                       -418.4403240998256024
  Basis Set: CC-PVTZ
  Basis Set:
  Basis Set: CC-PVTZ
  Basis Set:
  @DF-RHF Final Energy:  -418.44032593677196
    Total Energy =                       -418.4403259367720693
  Basis Set: CC-PVTZ
  Basis Set:
  Basis Set: CC-PVTZ
  Basis Set:
  @DF-RHF Final Energy:  -418.44023957508296
    Total Energy =                       -418.4402395750827282
  Basis Set: CC-PVTZ
  Basis Set:
  Charge       = 0
  Multiplicity = 1
  Basis Set: CC-PVTZ
  Basis Set:

    Orbital Energies (a.u.)
    -----------------------

    Doubly Occupied:

       1A    -20.595679     2A    -20.556703     3A    -11.330049
       4A    -11.311784     5A    -11.252171     6A    -11.249294
       7A    -11.244412     8A    -11.242912     9A    -11.241433
      10A     -1.427450    11A     -1.412285    12A     -1.174522
      13A     -1.053325    14A     -1.029569    15A     -0.904263
      16A     -0.857841    17A     -0.799746    18A     -0.759313
      19A     -0.704285    20A     -0.671896    21A     -0.665886
      22A     -0.633770    23A     -0.616414    24A     -0.608973
      25A     -0.580234    26A     -0.559478    27A     -0.539736
      28A     -0.521271    29A     -0.492562    30A     -0.429263
      31A     -0.358269    32A     -0.331570

  @DF-RHF Final Energy:  -418.44032845994855

   => Energetics <=

    Nuclear Repulsion Energy =            404.2591313967124051
    One-Electron Energy =               -1371.0862017816211846
    Two-Electron Energy =                 548.3867419249604609
    DFT Exchange-Correlation Energy =       0.0000000000000000
    Empirical Dispersion Energy =           0.0000000000000000
    PCM Polarization Energy =               0.0000000000000000
    EFP Energy =                            0.0000000000000000
    Total Energy =                       -418.4403284599483186
    Molecular point group: c1
  Basis Set: CC-PVTZ
  Basis Set:

  -Total Gradient:
     Atom            X                  Y                   Z
    ------   -----------------  -----------------  -----------------
       1       -0.000006618463    -0.000015251697    -0.000000007968
       2        0.000039264916    -0.000017428539    -0.000000070467
       3       -0.000025401628    -0.000025696996     0.000000153152
       4       -0.000053536835     0.000028841402     0.000000769722
       5        0.000028193752     0.000010490957    -0.000000388145
       6        0.000019923654    -0.000011098195    -0.000000287110
       7        0.000006147516     0.000009712696    -0.000001047100
       8       -0.000009855157     0.000010822960     0.000000087160
       9       -0.000011179832    -0.000001337323     0.000000116607
      10        0.000000966813    -0.000008078234     0.000000382791
      11       -0.000009685257    -0.000025300334     0.000000907674
      12       -0.000221496371    -0.000148873297    -0.000000915436
      13        0.000017632951     0.000014239458    -0.000000487298
      14        0.000278180817     0.000079161112     0.000000484034
      15       -0.000052536875     0.000099796041     0.000000302382

  **** Optimization is complete! (in 7 steps) ****
    Final optimized geometry and variables:
    Molecular point group: c1

    Geometry (in Angstrom), charge = 0, multiplicity = 1:

    H            1.824698083528    -2.411596129198    -0.000001132402
    O            0.902929121435    -2.598212124236     0.000002038805
    C            0.178499094999    -1.462661148930     0.000000820619
    C           -1.206603254168    -1.592442489019     0.000004458763
    C            0.751974419092    -0.212627766735    -0.000004388763
    H           -1.632784225768    -2.576376035430     0.000004998113
    C           -2.002154804217    -0.471946643908    -0.000001796116
    H            1.818272557015    -0.089320344858    -0.000004172262
    C           -0.059748343811     0.914876294824    -0.000004917092
    H           -3.069394954309    -0.580841595241     0.000003467600
    C           -1.432657312086     0.792808158030    -0.000003643030
    C            0.552781645138     2.267281099158     0.000001117583
    H           -2.053926981033     1.668075317466    -0.000012687932
    O            1.717719149354     2.478104836394     0.000004013548
    H           -0.163368409632     3.094720610395     0.000012870272

  Mulliken Charges: (a.u.)
   Center  Symbol    Alpha    Beta     Spin     Total
       1     H     0.38475  0.38475  0.00000  0.23051
       2     O     4.17248  4.17248  0.00000 -0.34497
       3     C     2.83991  2.83991  0.00000  0.32019
       4     C     3.10193  3.10193  0.00000 -0.20386
       5     C     3.14381  3.14381  0.00000 -0.28762
       6     H     0.41551  0.41551  0.00000  0.16898
       7     C     3.05611  3.05611  0.00000 -0.11221
       8     H     0.41785  0.41785  0.00000  0.16430
       9     C     2.97998  2.97998  0.00000  0.04005
      10     H     0.41938  0.41938  0.00000  0.16124
      11     C     3.10858  3.10858  0.00000 -0.21716
      12     C     2.90932  2.90932  0.00000  0.18136
      13     H     0.42312  0.42312  0.00000  0.15376
      14     O     4.17233  4.17233  0.00000 -0.34466
      15     H     0.45495  0.45495  0.00000  0.09010

   Total alpha = 32.00000, Total beta = 32.00000, Total charge =  0.00000

*** Psi4 exiting successfully. Buy a developer a beer!
