  ==> Input File <==

--------------------------------------------------------------------------
set {
	reference rhf
	basis cc-pvtz
}

set_num_threads( 4 )
memory 2 gb

molecule MOL {
0 1

H	 1.502610	 -1.791177	 0.611795
O	 0.828997	 -1.220026	 0.292285
C	 1.135873	 0.113391	 0.608264
C	 0.027642	 1.012027	 0.090274
H	 2.074957	 0.405350	 0.144961
H	 1.253496	 0.231221	 1.681922
C	 -1.138737	 0.285728	 -0.581921
H	 0.464661	 1.708096	 -0.618252
H	 -0.340737	 1.603071	 0.925246
C	 -1.933983	 -0.631436	 0.343653
H	 -0.763151	 -0.285569	 -1.422081
H	 -1.808359	 1.035291	 -0.992333
H	 -2.789188	 -1.049673	 -0.174718
H	 -1.335629	 -1.461368	 0.700418
H	 -2.305435	 -0.092167	 1.209725

	symmetry c1
}
set optking {
	frozen_dihedral = ("
		2 3 4 8
	")
}

ee = optimize('scf')
oeprop('DIPOLE', 'QUADRUPOLE', 'MULLIKEN_CHARGES')
f=open( 'psi4out.xyz', 'w' )
f.write( "15  " )
f.write( str(ee) + "\n" )
f.write( MOL.save_string_xyz() )
f.close()
--------------------------------------------------------------------------

    Molecular point group: c1
  Charge       = 0
  Multiplicity = 1
  Basis Set: CC-PVTZ
  Basis Set:
  @DF-RHF Final Energy:  -232.22529897788195
    Total Energy =                       -232.2252989778821757
    Molecular point group: c1
  Basis Set: CC-PVTZ
  Basis Set:
  Basis Set: CC-PVTZ
  Basis Set:
  @DF-RHF Final Energy:  -232.22837788028997
    Total Energy =                       -232.2283778802900542
  Basis Set: CC-PVTZ
  Basis Set:
  Basis Set: CC-PVTZ
  Basis Set:
  @DF-RHF Final Energy:  -232.22892465547429
    Total Energy =                       -232.2289246554739748
  Basis Set: CC-PVTZ
  Basis Set:
  Basis Set: CC-PVTZ
  Basis Set:
  @DF-RHF Final Energy:  -232.22902277120838
    Total Energy =                       -232.2290227712084061
  Basis Set: CC-PVTZ
  Basis Set:
  Basis Set: CC-PVTZ
  Basis Set:
  @DF-RHF Final Energy:  -232.22904472454223
    Total Energy =                       -232.2290447245423479
  Basis Set: CC-PVTZ
  Basis Set:
  Basis Set: CC-PVTZ
  Basis Set:
  @DF-RHF Final Energy:  -232.22904611372371
    Total Energy =                       -232.2290461137235411
  Basis Set: CC-PVTZ
  Basis Set:
  Charge       = 0
  Multiplicity = 1
  Basis Set: CC-PVTZ
  Basis Set:

    Orbital Energies (a.u.)
    -----------------------

    Doubly Occupied:

       1A    -20.547438     2A    -11.267584     3A    -11.211781
       4A    -11.205469     5A    -11.193770     6A     -1.365327
       7A     -1.058881     8A     -0.968138     9A     -0.864574
      10A     -0.775259    11A     -0.705480    12A     -0.649676
      13A     -0.608472    14A     -0.574856    15A     -0.555360
      16A     -0.530840    17A     -0.507627    18A     -0.477341
      19A     -0.463003    20A     -0.449232    21A     -0.426241

  @DF-RHF Final Energy:  -232.22904619853890

   => Energetics <=

    Nuclear Repulsion Energy =            193.0958270389236020
    One-Electron Energy =                -697.8370403276212528
    Two-Electron Energy =                 272.5121670901589823
    DFT Exchange-Correlation Energy =       0.0000000000000000
    Empirical Dispersion Energy =           0.0000000000000000
    PCM Polarization Energy =               0.0000000000000000
    EFP Energy =                            0.0000000000000000
    Total Energy =                       -232.2290461985386401
    Molecular point group: c1
  Basis Set: CC-PVTZ
  Basis Set:

  -Total Gradient:
     Atom            X                  Y                   Z
    ------   -----------------  -----------------  -----------------
       1        0.000000881893     0.000007815525    -0.000002542911
       2       -0.000879802593    -0.000331356464     0.001550836177
       3        0.001230837759     0.000734633152    -0.001660154697
       4       -0.000666273118    -0.001813493849    -0.001693118365
       5       -0.000000331694     0.000004258317     0.000001465019
       6        0.000001167252     0.000002152415     0.000002975169
       7       -0.000000228143    -0.000002648803    -0.000006959812
       8        0.000311441694     0.001399271659     0.001804006584
       9        0.000000792709    -0.000001870280    -0.000001400595
      10        0.000007462152     0.000000307371     0.000014289901
      11       -0.000000829768     0.000001659024    -0.000000658652
      12       -0.000001346727    -0.000004992595     0.000003153871
      13        0.000001186621    -0.000001508268     0.000000180948
      14       -0.000007323872     0.000007062037    -0.000008230760
      15        0.000002365834    -0.000001289241    -0.000003841876

  **** Optimization is complete! (in 7 steps) ****
    Final optimized geometry and variables:
    Molecular point group: c1

    Geometry (in Angstrom), charge = 0, multiplicity = 1:

    H            1.917640210738    -1.610424981974     0.332255105143
    O            1.173462565180    -1.106455266549     0.059934522919
    C            1.348498662279     0.235135832857     0.439971695828
    C            0.169069165879     1.110779132989    -0.035026226103
    H            2.273432717909     0.617509896874     0.019232809668
    H            1.438323301912     0.297161763494     1.520406863774
    C           -0.986505492930     0.390633311834    -0.735050906680
    H            0.558466998913     1.878601758396    -0.694117367426
    H           -0.229913787652     1.644645795157     0.821976871665
    C           -1.879483442931    -0.417974589880     0.202148357120
    H           -0.599866965969    -0.251636019605    -1.515651379168
    H           -1.591778253967     1.147136080063    -1.225624069898
    H           -2.694271714955    -0.878303283174    -0.345992465419
    H           -1.323346937779    -1.203485656116     0.694715804948
    H           -2.316968916459     0.219011654363     0.965156483033

  Mulliken Charges: (a.u.)
   Center  Symbol    Alpha    Beta     Spin     Total
       1     H     0.39820  0.39820  0.00000  0.20361
       2     O     4.19182  4.19182  0.00000 -0.38364
       3     C     2.97079  2.97079  0.00000  0.05843
       4     C     3.10892  3.10892  0.00000 -0.21784
       5     H     0.46673  0.46673  0.00000  0.06653
       6     H     0.46997  0.46997  0.00000  0.06006
       7     C     3.08280  3.08280  0.00000 -0.16560
       8     H     0.44771  0.44771  0.00000  0.10459
       9     H     0.45465  0.45465  0.00000  0.09069
      10     C     3.14911  3.14911  0.00000 -0.29822
      11     H     0.44946  0.44946  0.00000  0.10108
      12     H     0.45044  0.45044  0.00000  0.09912
      13     H     0.45117  0.45117  0.00000  0.09766
      14     H     0.44808  0.44808  0.00000  0.10384
      15     H     0.46015  0.46015  0.00000  0.07969

   Total alpha = 21.00000, Total beta = 21.00000, Total charge = -0.00000
