  ==> Input File <==

--------------------------------------------------------------------------
set {
	reference rhf
	basis 6-31G*
}

set_num_threads( 1 )
memory 2 gb

molecule MOL {
0 1

H	 3.729471	 -0.928294	 -0.070608
O	 2.826016	 -1.159218	 0.122261
C	 2.077727	 -0.067559	 -0.035091
C	 0.624473	 -0.343591	 0.253101
O	 2.542965	 0.974826	 -0.363729
C	 -0.265902	 0.883932	 0.072916
H	 0.324016	 -1.163849	 -0.390541
H	 0.565024	 -0.726111	 1.268924
C	 -1.728698	 0.646073	 0.462102
H	 -0.209144	 1.219470	 -0.958188
H	 0.135059	 1.692851	 0.673903
C	 -2.525149	 -0.220878	 -0.517193
H	 -2.217429	 1.614155	 0.544084
H	 -1.772837	 0.201292	 1.455268
C	 -3.999998	 -0.337226	 -0.132796
H	 -2.444919	 0.201914	 -1.516620
H	 -2.095671	 -1.217888	 -0.571057
H	 -4.542806	 -0.956905	 -0.839670
H	 -4.477716	 0.638064	 -0.112220
H	 -4.114349	 -0.781255	 0.852089

	symmetry c1
}
set optking {
	frozen_dihedral = ("
		16 12 9 6,
		7 4 6 10,
		5 3 4 7,
		1 2 3 5
	")
}

ee = energy('scf')
oeprop('DIPOLE', 'QUADRUPOLE', 'MULLIKEN_CHARGES')
f=open( 'psi4out.xyz', 'w' )
f.write( "20  " )
f.write( str(ee) + "\n" )
f.write( MOL.save_string_xyz() )
f.close()
--------------------------------------------------------------------------

    Molecular point group: c1

    Geometry (in Angstrom), charge = 0, multiplicity = 1:

       Center              X                  Y                   Z               Mass
    ------------   -----------------  -----------------  -----------------  -----------------
           H          3.739717457830    -0.959060632048    -0.050899778902     1.007825032070
           O          2.836262457830    -1.189984632048     0.141969221098    15.994914619560
           C          2.087973457830    -0.098325632048    -0.015382778902    12.000000000000
           C          0.634719457830    -0.374357632048     0.272809221098    12.000000000000
           O          2.553211457830     0.944059367952    -0.344020778902    15.994914619560
           C         -0.255655542170     0.853165367952     0.092624221098    12.000000000000
           H          0.334262457830    -1.194615632048    -0.370832778902     1.007825032070
           H          0.575270457830    -0.756877632048     1.288632221098     1.007825032070
           C         -1.718451542170     0.615306367952     0.481810221098    12.000000000000
           H         -0.198897542170     1.188703367952    -0.938479778902     1.007825032070
           H          0.145305457830     1.662084367952     0.693611221098     1.007825032070
           C         -2.514902542170    -0.251644632048    -0.497484778902    12.000000000000
           H         -2.207182542170     1.583388367952     0.563792221098     1.007825032070
           H         -1.762590542170     0.170525367952     1.474976221098     1.007825032070
           C         -3.989751542170    -0.367992632048    -0.113087778902    12.000000000000
           H         -2.434672542170     0.171147367952    -1.496911778902     1.007825032070
           H         -2.085424542170    -1.248654632048    -0.551348778902     1.007825032070
           H         -4.532559542170    -0.987671632048    -0.819961778902     1.007825032070
           H         -4.467469542170     0.607297367952    -0.092511778902     1.007825032070
           H         -4.104102542170    -0.812021632048     0.871797221098     1.007825032070

  Charge       = 0
  Multiplicity = 1
  Basis Set: 6-31G*
  Basis Set:

    Orbital Energies (a.u.)
    -----------------------

    Doubly Occupied:

       1A    -20.612549     2A    -20.551668     3A    -11.381220
       4A    -11.240349     5A    -11.222817     6A    -11.220571
       7A    -11.219982     8A    -11.212264     9A     -1.474624
      10A     -1.365681    11A     -1.095942    12A     -1.041257
      13A     -0.961094    14A     -0.868755    15A     -0.814946
      16A     -0.778465    17A     -0.699586    18A     -0.689952
      19A     -0.663536    20A     -0.635551    21A     -0.603567
      22A     -0.593770    23A     -0.574466    24A     -0.556147
      25A     -0.540780    26A     -0.511362    27A     -0.496173
      28A     -0.479289    29A     -0.470903    30A     -0.467667
      31A     -0.456963    32A     -0.443584

  @DF-RHF Final Energy:  -383.94859261712793

   => Energetics <=

    Nuclear Repulsion Energy =            375.4186458823256771
    One-Electron Energy =               -1266.8436194854598398
    Two-Electron Energy =                 507.4763809860065749
    DFT Exchange-Correlation Energy =       0.0000000000000000
    Empirical Dispersion Energy =           0.0000000000000000
    PCM Polarization Energy =               0.0000000000000000
    EFP Energy =                            0.0000000000000000
    Total Energy =                       -383.9485926171275878

  Mulliken Charges: (a.u.)
   Center  Symbol    Alpha    Beta     Spin     Total
       1     H     0.26786  0.26786  0.00000  0.46428
       2     O     4.35160  4.35160  0.00000 -0.70320
       3     C     2.62238  2.62238  0.00000  0.75523
       4     C     3.21223  3.21223  0.00000 -0.42446
       5     O     4.27926  4.27926  0.00000 -0.55853
       6     C     3.15479  3.15479  0.00000 -0.30958
       7     H     0.39716  0.39716  0.00000  0.20568
       8     H     0.39893  0.39893  0.00000  0.20213
       9     C     3.15601  3.15601  0.00000 -0.31202
      10     H     0.41205  0.41205  0.00000  0.17589
      11     H     0.40794  0.40794  0.00000  0.18412
      12     C     3.15399  3.15399  0.00000 -0.30798
      13     H     0.41785  0.41785  0.00000  0.16429
      14     H     0.42383  0.42383  0.00000  0.15234
      15     C     3.23939  3.23939  0.00000 -0.47878
      16     H     0.42121  0.42121  0.00000  0.15757
      17     H     0.42314  0.42314  0.00000  0.15371
      18     H     0.41833  0.41833  0.00000  0.16335
      19     H     0.42064  0.42064  0.00000  0.15873
      20     H     0.42138  0.42138  0.00000  0.15723

   Total alpha = 32.00000, Total beta = 32.00000, Total charge = -0.00000
