                              Psi4 1.0.54 Driver

  ==> Input File <==

--------------------------------------------------------------------------
set {
	reference rhf
	basis cc-pvtz
}

set_num_threads( 4 )
memory 2 gb

molecule MOL {
0 1

O	 1.216922	 1.303481	 -0.056023
C	 1.121787	 0.124983	 0.000110
C	 -0.170912	 -0.649867	 -0.000147
O	 2.166651	 -0.683387	 0.072040
C	 -1.413045	 0.229353	 0.001137
H	 -0.152877	 -1.303435	 -0.866175
H	 -0.152278	 -1.305116	 0.864586
C	 -2.702562	 -0.586401	 0.000228
H	 -1.390744	 0.882001	 -0.864365
H	 -1.390549	 0.879837	 0.868264
C	 -3.953810	 0.284959	 -0.000782
H	 -2.717793	 -1.238567	 -0.869075
H	 -2.719108	 -1.238472	 0.869576
H	 -3.983727	 0.924403	 -0.876454
H	 -4.852989	 -0.320147	 -0.001515
H	 -3.985140	 0.924399	 0.874841
C	 3.448338	 -0.087972	 0.080909
H	 3.611549	 0.479321	 -0.823397
H	 4.153653	 -0.900732	 0.142714
H	 3.558683	 0.566963	 0.932441

	symmetry c1
}
set optking {
	frozen_dihedral = ("
		1 2 3 6
	")
}

ee,wfn = optimize('scf', return_wfn=True)
oeprop( wfn, 'DIPOLE', 'QUADRUPOLE', 'MULLIKEN_CHARGES')
f=open( 'psi4out.xyz', 'w' )
f.write( "20  " )
f.write( str(ee) + "\n" )
f.write( MOL.save_string_xyz() )
f.close()
--------------------------------------------------------------------------

    Molecular point group: c1
  Charge       = 0
  Multiplicity = 1
  Basis Set: CC-PVTZ
  Basis Set:
  @DF-RHF Final Energy:  -384.08326602632513
    Total Energy =                       -384.0832660263248499
    Molecular point group: c1
  Basis Set: CC-PVTZ
  Basis Set:
  Basis Set: CC-PVTZ
  Basis Set:
  @DF-RHF Final Energy:  -384.08321790029652
    Total Energy =                       -384.0832179002962903
  Basis Set: CC-PVTZ
  Basis Set:
  Basis Set: CC-PVTZ
  Basis Set:
  @DF-RHF Final Energy:  -384.08327048108561
    Total Energy =                       -384.0832704810851510
  Basis Set: CC-PVTZ
  Basis Set:
  Basis Set: CC-PVTZ
  Basis Set:
  @DF-RHF Final Energy:  -384.08327166668556
    Total Energy =                       -384.0832716666851638
  Basis Set: CC-PVTZ
  Basis Set:
  Charge       = 0
  Multiplicity = 1
  Basis Set: CC-PVTZ
  Basis Set:

    Orbital Energies (a.u.)
    -----------------------

    Doubly Occupied:

       1A    -20.596444     2A    -20.534234     3A    -11.364723
       4A    -11.278571     5A    -11.233965     6A    -11.218448
       7A    -11.217314     8A    -11.208763     9A     -1.472341
      10A     -1.365912    11A     -1.090017    12A     -1.025528
      13A     -0.969973    14A     -0.886428    15A     -0.804590
      16A     -0.769602    17A     -0.699101    18A     -0.686902
      19A     -0.675912    20A     -0.647118    21A     -0.598984
      22A     -0.592560    23A     -0.580208    24A     -0.540641
      25A     -0.538466    26A     -0.524187    27A     -0.501267
      28A     -0.478955    29A     -0.474993    30A     -0.471657
      31A     -0.459380    32A     -0.440176

  @DF-RHF Final Energy:  -384.08327169498023

   => Energetics <=

    Nuclear Repulsion Energy =            381.7247764671293453
    One-Electron Energy =               -1279.7213743256986618
    Two-Electron Energy =                 513.9133261635893177
    DFT Exchange-Correlation Energy =       0.0000000000000000
    Empirical Dispersion Energy =           0.0000000000000000
    PCM Polarization Energy =               0.0000000000000000
    EFP Energy =                            0.0000000000000000
    Total Energy =                       -384.0832716949799988
    Molecular point group: c1
  Basis Set: CC-PVTZ
  Basis Set:

  -Total Gradient:
     Atom            X                  Y                   Z
    ------   -----------------  -----------------  -----------------
       1        0.000008785633    -0.000014685130    -0.000144050645
       2       -0.000021198965     0.000035328146     0.000208076714
       3        0.000066295912    -0.000114966845     0.000004290940
       4       -0.000000148449     0.000001032166     0.000005868134
       5       -0.000002981186     0.000000936747     0.000013058061
       6       -0.000059293765     0.000086578056    -0.000070832749
       7        0.000005604792     0.000006111371    -0.000002179976
       8        0.000001139388     0.000000372687    -0.000011155242
       9        0.000001670839    -0.000003030430    -0.000002374029
      10       -0.000001489047     0.000003285253    -0.000002332281
      11        0.000000442389    -0.000000104953     0.000009452713
      12       -0.000001197048    -0.000000819302    -0.000002934900
      13        0.000000332306    -0.000000451796    -0.000001384950
      14        0.000001542168    -0.000002742413    -0.000000894882
      15       -0.000000560202    -0.000000554585     0.000002646245
      16       -0.000001146091     0.000003405013     0.000000460216
      17        0.000001452605    -0.000000991274    -0.000012079221
      18        0.000003632648     0.000002534399     0.000002224871
      19        0.000002659105    -0.000000795892     0.000002201075
      20       -0.000005543030    -0.000000441216     0.000001939907

  **** Optimization is complete! (in 5 steps) ****
    Final optimized geometry and variables:
    Molecular point group: c1

    Geometry (in Angstrom), charge = 0, multiplicity = 1:

    O            1.216861665274     1.303634874357    -0.050139902357
    C            1.121835230025     0.125129001407     0.005749712780
    C           -0.170471364298    -0.650357070583    -0.006536198253
    O            2.166617922716    -0.682972437440     0.081936184192
    C           -1.412761300000     0.228570103235    -0.025216838527
    H           -0.140750530242    -1.303430703312    -0.873029817465
    H           -0.163657661995    -1.305391373080     0.858060232891
    C           -2.701955986225    -0.587524754802    -0.043157140090
    H           -1.377685223337     0.879698962060    -0.891195888582
    H           -1.403383656644     0.880575316592     0.841255741448
    C           -3.953357953444     0.283482481362    -0.060037423150
    H           -2.705592410567    -1.239221102190    -0.912949857485
    H           -2.729709612467    -1.240118896761     0.825506547561
    H           -3.972160377247     0.923167067415    -0.935830213397
    H           -4.852283218073    -0.321867361851    -0.072499319010
    H           -3.996215677622     0.922678183049     0.815289624424
    C            3.448202180062    -0.087453652641     0.091844053419
    H            3.613181377574     0.477751889513    -0.813467868128
    H            4.153499640409    -0.899978008932     0.156962426583
    H            3.556791454263     0.569503250322     0.942034024421

  Mulliken Charges: (a.u.)
   Center  Symbol    Alpha    Beta     Spin     Total
       1     O     4.19685  4.19685  0.00000 -0.39371
       2     C     2.80668  2.80668  0.00000  0.38665
       3     C     3.10010  3.10010  0.00000 -0.20020
       4     O     4.14652  4.14652  0.00000 -0.29303
       5     C     3.08122  3.08122  0.00000 -0.16244
       6     H     0.44068  0.44068  0.00000  0.11865
       7     H     0.43988  0.43988  0.00000  0.12023
       8     C     3.08691  3.08691  0.00000 -0.17383
       9     H     0.44614  0.44614  0.00000  0.10773
      10     H     0.44748  0.44748  0.00000  0.10505
      11     C     3.14922  3.14922  0.00000 -0.29844
      12     H     0.45521  0.45521  0.00000  0.08958
      13     H     0.45530  0.45530  0.00000  0.08940
      14     H     0.45381  0.45381  0.00000  0.09238
      15     H     0.44838  0.44838  0.00000  0.10325
      16     H     0.45393  0.45393  0.00000  0.09215
      17     C     3.03767  3.03767  0.00000 -0.07534
      18     H     0.45436  0.45436  0.00000  0.09128
      19     H     0.44534  0.44534  0.00000  0.10932
      20     H     0.45434  0.45434  0.00000  0.09132

   Total alpha = 32.00000, Total beta = 32.00000, Total charge = -0.00000

*** Psi4 exiting successfully. Buy a developer a beer!
