                              Psi4 1.0.54 Driver

  ==> Input File <==

--------------------------------------------------------------------------
set {
	reference rhf
	basis cc-pvtz
}

set_num_threads( 4 )
memory 2 gb

molecule MOL {
0 1

H	 2.419314	 0.217619	 -0.781900
C	 1.886907	 -0.553127	 -0.236324
N	 0.526300	 -0.128137	 0.000000
H	 2.395755	 -0.697759	 0.708237
H	 1.963830	 -1.478427	 -0.811193
C	 -0.247113	 0.037112	 -1.209233
H	 0.070302	 -0.771207	 0.610071
H	 -0.996493	 -0.743733	 -1.271440
H	 0.397975	 -0.057351	 -2.073512
H	 -0.763794	 0.997171	 -1.271673

	symmetry c1
}
set optking {
	frozen_dihedral = ("
		2 3 6 8
	")
}

ee,wfn = optimize('scf', return_wfn=True)
oeprop( wfn, 'DIPOLE', 'QUADRUPOLE', 'MULLIKEN_CHARGES')
f=open( 'psi4out.xyz', 'w' )
f.write( "10  " )
f.write( str(ee) + "\n" )
f.write( MOL.save_string_xyz() )
f.close()
--------------------------------------------------------------------------

    Molecular point group: c1
  Charge       = 0
  Multiplicity = 1
  Basis Set: CC-PVTZ
  Basis Set:
  @DF-RHF Final Energy:  -134.28738524469023
    Total Energy =                       -134.2873852446901992
    Molecular point group: c1
  Basis Set: CC-PVTZ
  Basis Set:
  Basis Set: CC-PVTZ
  Basis Set:
  @DF-RHF Final Energy:  -134.28814417016622
    Total Energy =                       -134.2881441701661913
  Basis Set: CC-PVTZ
  Basis Set:
  Basis Set: CC-PVTZ
  Basis Set:
  @DF-RHF Final Energy:  -134.28823895186821
    Total Energy =                       -134.2882389518683226
  Basis Set: CC-PVTZ
  Basis Set:
  Basis Set: CC-PVTZ
  Basis Set:
  @DF-RHF Final Energy:  -134.28824199494201
    Total Energy =                       -134.2882419949419841
  Basis Set: CC-PVTZ
  Basis Set:
  Charge       = 0
  Multiplicity = 1
  Basis Set: CC-PVTZ
  Basis Set:

    Orbital Energies (a.u.)
    -----------------------

    Doubly Occupied:

       1A    -15.528761     2A    -11.234393     3A    -11.233843
       4A     -1.195716     5A     -0.947996     6A     -0.855279
       7A     -0.660911     8A     -0.608931     9A     -0.588750
      10A     -0.545134    11A     -0.511745    12A     -0.506859
      13A     -0.357398

  @DF-RHF Final Energy:  -134.28824252616954

   => Energetics <=

    Nuclear Repulsion Energy =             84.4627960487001701
    One-Electron Energy =                -347.9506450833844156
    Two-Electron Energy =                 129.1996065085147052
    DFT Exchange-Correlation Energy =       0.0000000000000000
    Empirical Dispersion Energy =           0.0000000000000000
    PCM Polarization Energy =               0.0000000000000000
    EFP Energy =                            0.0000000000000000
    Total Energy =                       -134.2882425261695403
    Molecular point group: c1
  Basis Set: CC-PVTZ
  Basis Set:

  -Total Gradient:
     Atom            X                  Y                   Z
    ------   -----------------  -----------------  -----------------
       1       -0.000009975688    -0.000000666306     0.000000807848
       2        0.000346005583     0.000996104842    -0.000049566709
       3       -0.000667177391    -0.001217378937     0.000305405464
       4        0.000002385149     0.000001729126     0.000000611995
       5       -0.000021220751     0.000013932554     0.000010416797
       6        0.001227622234    -0.000559518418    -0.000991625718
       7        0.000000449485    -0.000013911934    -0.000003675219
       8       -0.000888125425     0.000790441489     0.000693320904
       9        0.000004479218    -0.000004494393     0.000030372527
      10        0.000005557586    -0.000006238022     0.000003932111

  **** Optimization is complete! (in 5 steps) ****
    Final optimized geometry and variables:
    Molecular point group: c1

    Geometry (in Angstrom), charge = 0, multiplicity = 1:

    H            1.718714251634     0.456001757276    -0.223932818818
    C            1.168462856708    -0.318157380950     0.297615753921
    N           -0.203711670347     0.095798249243     0.480057837535
    H            1.636945379474    -0.455038866741     1.264312894642
    H            1.282438099136    -1.245384908833    -0.267641207797
    C           -0.968262452233     0.272716684940    -0.743573921400
    H           -0.672788792976    -0.522152642247     1.102152025197
    H           -1.729648251755    -0.491775659360    -0.871155391811
    H           -0.319860954848     0.233662194647    -1.610827240922
    H           -1.469110347610     1.234688277846    -0.753052504001

  Mulliken Charges: (a.u.)
   Center  Symbol    Alpha    Beta     Spin     Total
       1     H     0.45664  0.45664  0.00000  0.08672
       2     C     3.08198  3.08198  0.00000 -0.16396
       3     N     3.63508  3.63508  0.00000 -0.27016
       4     H     0.45330  0.45330  0.00000  0.09340
       5     H     0.47443  0.47443  0.00000  0.05113
       6     C     3.07804  3.07804  0.00000 -0.15608
       7     H     0.43918  0.43918  0.00000  0.12165
       8     H     0.46319  0.46319  0.00000  0.07362
       9     H     0.46240  0.46240  0.00000  0.07520
      10     H     0.45576  0.45576  0.00000  0.08849

   Total alpha = 13.00000, Total beta = 13.00000, Total charge = -0.00000

*** Psi4 exiting successfully. Buy a developer a beer!
