  ==> Input File <==

--------------------------------------------------------------------------
set {
	reference rhf
	basis cc-pvtz
}

set_num_threads( 4 )
memory 2 gb

molecule MOL {
0 1

H	 -2.576835	 -0.628571	 -0.764950
O	 -2.346257	 -0.289210	 0.080372
C	 -1.183935	 0.486039	 -0.009831
C	 0.062853	 -0.375310	 0.027457
H	 -1.178881	 1.094526	 -0.908634
H	 -1.184406	 1.155156	 0.838676
O	 1.172093	 0.457955	 -0.054438
H	 0.052476	 -1.081302	 -0.804627
H	 0.076323	 -0.955658	 0.947560
C	 2.395478	 -0.199028	 -0.000366
H	 2.505946	 -0.901710	 -0.823354
H	 3.174616	 0.545641	 -0.071768
H	 2.513730	 -0.742241	 0.934223

	symmetry c1
}
set optking {
	frozen_dihedral = ("
		1 2 3 5
	")
}

ee = optimize('scf')
oeprop('DIPOLE', 'QUADRUPOLE', 'MULLIKEN_CHARGES')
f=open( 'psi4out.xyz', 'w' )
f.write( "13  " )
f.write( str(ee) + "\n" )
f.write( MOL.save_string_xyz() )
f.close()
--------------------------------------------------------------------------

    Molecular point group: c1
  Charge       = 0
  Multiplicity = 1
  Basis Set: CC-PVTZ
  Basis Set:
  @DF-RHF Final Energy:  -268.06221399236995
    Total Energy =                       -268.0622139923701184
    Molecular point group: c1
  Basis Set: CC-PVTZ
  Basis Set:
  Basis Set: CC-PVTZ
  Basis Set:
  @DF-RHF Final Energy:  -268.06222308919263
    Total Energy =                       -268.0622230891926847
  Basis Set: CC-PVTZ
  Basis Set:
  Charge       = 0
  Multiplicity = 1
  Basis Set: CC-PVTZ
  Basis Set:

    Orbital Energies (a.u.)
    -----------------------

    Doubly Occupied:

       1A    -20.555287     2A    -20.552745     3A    -11.268183
       4A    -11.267494     5A    -11.267221     6A     -1.391256
       7A     -1.369060     8A     -1.019472     9A     -0.913642
      10A     -0.841068    11A     -0.713527    12A     -0.676461
      13A     -0.660677    14A     -0.640391    15A     -0.598603
      16A     -0.567396    17A     -0.547463    18A     -0.489256
      19A     -0.485455    20A     -0.441214    21A     -0.423971

  @DF-RHF Final Energy:  -268.06222623156373

   => Energetics <=

    Nuclear Repulsion Energy =            190.4620259969746314
    One-Electron Energy =                -743.6688197374146512
    Two-Electron Energy =                 285.1445675088760936
    DFT Exchange-Correlation Energy =       0.0000000000000000
    Empirical Dispersion Energy =           0.0000000000000000
    PCM Polarization Energy =               0.0000000000000000
    EFP Energy =                            0.0000000000000000
    Total Energy =                       -268.0622262315639546
    Molecular point group: c1
  Basis Set: CC-PVTZ
  Basis Set:

  -Total Gradient:
     Atom            X                  Y                   Z
    ------   -----------------  -----------------  -----------------
       1       -0.000311083059     0.000502730449    -0.000075265030
       2        0.000493847322    -0.000713753425     0.000070558723
       3       -0.000479574452     0.000571450761     0.000225143373
       4       -0.000011835127     0.000044623825     0.000014291817
       5        0.000280210294    -0.000359459260    -0.000263102992
       6        0.000013949865    -0.000003380600     0.000008647333
       7       -0.000032275640    -0.000016399060     0.000002485202
       8       -0.000011560573     0.000008085292     0.000015455564
       9        0.000022960068    -0.000040589067     0.000001563520
      10        0.000037631097     0.000005984570    -0.000000077515
      11       -0.000003065233     0.000001218044     0.000003278126
      12        0.000006568224    -0.000004155727     0.000000685975
      13       -0.000005772782     0.000003644197    -0.000003664097

  **** Optimization is complete! (in 3 steps) ****
    Final optimized geometry and variables:
    Molecular point group: c1

    Geometry (in Angstrom), charge = 0, multiplicity = 1:

    H           -2.571640963705    -0.638098456995    -0.759455336829
    O           -2.342853303996    -0.292762773274     0.083341234887
    C           -1.183107758652     0.487126120940    -0.010034214484
    C            0.062543172143    -0.375974830875     0.024692649805
    H           -1.178769859756     1.090685658182    -0.911846319727
    H           -1.178701139241     1.159504087154     0.836150170908
    O            1.172752180173     0.456892674800    -0.053149137256
    H            0.050898621360    -1.078776799676    -0.809413453251
    H            0.074814215300    -0.959456242539     0.942843824644
    C            2.395455683137    -0.201227040577     0.000526618566
    H            2.506331453796    -0.901822305042    -0.824186392403
    H            3.175483859601     0.542837219599    -0.067783033701
    H            2.512027891258    -0.747217274145     0.933714205916

  Mulliken Charges: (a.u.)
   Center  Symbol    Alpha    Beta     Spin     Total
       1     H     0.39330  0.39330  0.00000  0.21339
       2     O     4.20303  4.20303  0.00000 -0.40606
       3     C     2.97482  2.97482  0.00000  0.05035
       4     C     2.96278  2.96278  0.00000  0.07444
       5     H     0.46683  0.46683  0.00000  0.06634
       6     H     0.45310  0.45310  0.00000  0.09380
       7     O     4.17583  4.17583  0.00000 -0.35167
       8     H     0.48148  0.48148  0.00000  0.03704
       9     H     0.46998  0.46998  0.00000  0.06004
      10     C     3.03162  3.03162  0.00000 -0.06325
      11     H     0.47126  0.47126  0.00000  0.05748
      12     H     0.44611  0.44611  0.00000  0.10778
      13     H     0.46985  0.46985  0.00000  0.06030

   Total alpha = 21.00000, Total beta = 21.00000, Total charge = -0.00000
