  ==> Input File <==

--------------------------------------------------------------------------
set {
	reference rhf
	basis 6-31G*
}

set_num_threads( 1 )
memory 2 gb

molecule MOL {
0 1

H	 -2.418887	 -1.559835	 0.330951
O	 -2.310168	 -0.871793	 -0.309793
C	 -2.026376	 0.340750	 0.341611
C	 -0.673256	 0.843270	 -0.132153
H	 -2.792215	 1.080697	 0.115987
H	 -2.013526	 0.200402	 1.421792
C	 0.486613	 -0.083066	 0.235839
H	 -0.715586	 0.970948	 -1.210718
H	 -0.508072	 1.829858	 0.297090
C	 1.840406	 0.433480	 -0.254303
H	 0.300215	 -1.068318	 -0.178947
H	 0.519509	 -0.203625	 1.318070
C	 3.000220	 -0.489290	 0.118523
H	 1.809207	 0.553576	 -1.335192
H	 2.021860	 1.424500	 0.157276
H	 2.864959	 -1.479103	 -0.307933
H	 3.946603	 -0.099227	 -0.243630
H	 3.080049	 -0.602997	 1.196117

	symmetry c1
}
set optking {
	frozen_dihedral = ("
		14 10 7 11,
		10 7 4 8,
		2 3 4 8
	")
}

ee = energy('scf')
oeprop('DIPOLE', 'QUADRUPOLE', 'MULLIKEN_CHARGES')
f=open( 'psi4out.xyz', 'w' )
f.write( "18  " )
f.write( str(ee) + "\n" )
f.write( MOL.save_string_xyz() )
f.close()
--------------------------------------------------------------------------

    Molecular point group: c1

    Geometry (in Angstrom), charge = 0, multiplicity = 1:

       Center              X                  Y                   Z               Mass
    ------------   -----------------  -----------------  -----------------  -----------------
           H         -2.427084939049    -1.555890585915     0.327180166912     1.007825032070
           O         -2.318365939049    -0.867848585915    -0.313563833088    15.994914619560
           C         -2.034573939049     0.344694414085     0.337840166912    12.000000000000
           C         -0.681453939049     0.847214414085    -0.135923833088    12.000000000000
           H         -2.800412939049     1.084641414085     0.112216166912     1.007825032070
           H         -2.021723939049     0.204346414085     1.418021166912     1.007825032070
           C          0.478415060951    -0.079121585915     0.232068166912    12.000000000000
           H         -0.723783939049     0.974892414085    -1.214488833088     1.007825032070
           H         -0.516269939049     1.833802414085     0.293319166912     1.007825032070
           C          1.832208060951     0.437424414085    -0.258073833088    12.000000000000
           H          0.292017060951    -1.064373585915    -0.182717833088     1.007825032070
           H          0.511311060951    -0.199680585915     1.314299166912     1.007825032070
           C          2.992022060951    -0.485345585915     0.114752166912    12.000000000000
           H          1.801009060951     0.557520414085    -1.338962833088     1.007825032070
           H          2.013662060951     1.428444414085     0.153505166912     1.007825032070
           H          2.856761060951    -1.475158585915    -0.311703833088     1.007825032070
           H          3.938405060951    -0.095282585915    -0.247400833088     1.007825032070
           H          3.071851060951    -0.599052585915     1.192346166912     1.007825032070

  Charge       = 0
  Multiplicity = 1
  Basis Set: 6-31G*
  Basis Set:

    Orbital Energies (a.u.)
    -----------------------

    Doubly Occupied:

       1A    -20.552816     2A    -11.268590     3A    -11.213356
       4A    -11.210557     5A    -11.209934     6A    -11.207037
       7A     -1.360393     8A     -1.076536     9A     -1.009508
      10A     -0.916105    11A     -0.820774    12A     -0.785830
      13A     -0.705974    14A     -0.637263    15A     -0.628608
      16A     -0.582919    17A     -0.572286    18A     -0.565206
      19A     -0.523443    20A     -0.500195    21A     -0.479646
      22A     -0.475141    23A     -0.462446    24A     -0.459574
      25A     -0.421655

  @DF-RHF Final Energy:  -271.17777026740214

   => Energetics <=

    Nuclear Repulsion Energy =            249.4827082529859297
    One-Electron Energy =                -862.0294127514953288
    Two-Electron Energy =                 341.3689342311072892
    DFT Exchange-Correlation Energy =       0.0000000000000000
    Empirical Dispersion Energy =           0.0000000000000000
    PCM Polarization Energy =               0.0000000000000000
    EFP Energy =                            0.0000000000000000
    Total Energy =                       -271.1777702674020816

  Mulliken Charges: (a.u.)
   Center  Symbol    Alpha    Beta     Spin     Total
       1     H     0.27902  0.27902  0.00000  0.44195
       2     O     4.36974  4.36974  0.00000 -0.73949
       3     C     3.00199  3.00199  0.00000 -0.00399
       4     C     3.15550  3.15550  0.00000 -0.31100
       5     H     0.42055  0.42055  0.00000  0.15890
       6     H     0.43229  0.43229  0.00000  0.13542
       7     C     3.15546  3.15546  0.00000 -0.31093
       8     H     0.41511  0.41511  0.00000  0.16979
       9     H     0.42691  0.42691  0.00000  0.14619
      10     C     3.15109  3.15109  0.00000 -0.30219
      11     H     0.41389  0.41389  0.00000  0.17221
      12     H     0.42962  0.42962  0.00000  0.14076
      13     C     3.23913  3.23913  0.00000 -0.47825
      14     H     0.42150  0.42150  0.00000  0.15700
      15     H     0.42422  0.42422  0.00000  0.15156
      16     H     0.42140  0.42140  0.00000  0.15719
      17     H     0.41963  0.41963  0.00000  0.16074
      18     H     0.42293  0.42293  0.00000  0.15414

   Total alpha = 25.00000, Total beta = 25.00000, Total charge = -0.00000
