  ==> Input File <==

--------------------------------------------------------------------------
set {
	reference rhf
	basis 6-31G*
}

set_num_threads( 4 )
memory 2 gb

molecule MOL {
0 1

O	 1.806193	 1.321330	 -1.609016
C	 0.787246	 1.169666	 -0.989785
C	 -0.360456	 2.147146	 -1.161249
N	 0.623947	 0.147590	 -0.102813
H	 -0.616395	 2.628094	 -0.223556
H	 -0.042036	 2.897549	 -1.868744
H	 -1.249674	 1.655629	 -1.541097
C	 1.665360	 -0.855771	 0.000151
C	 -0.643436	 -0.211794	 0.494537
H	 2.465253	 -0.618490	 -0.692587
H	 1.257730	 -1.821716	 -0.242189
H	 2.081488	 -0.891645	 1.004627
H	 -0.466775	 -0.615472	 1.484422
H	 -1.288820	 0.645400	 0.602394
H	 -1.167022	 -0.968047	 -0.087487

	symmetry c1
}
set optking {
	frozen_dihedral = ("
		2 4 8 10
	")
}

ee = optimize('scf')
oeprop('DIPOLE', 'QUADRUPOLE', 'MULLIKEN_CHARGES')
f=open( 'psi4out.xyz', 'w' )
f.write( "15  " )
f.write( str(ee) + "\n" )
f.write( MOL.save_string_xyz() )
f.close()
--------------------------------------------------------------------------

    Molecular point group: c1
  Charge       = 0
  Multiplicity = 1
  Basis Set: 6-31G*
  Basis Set:
  @DF-RHF Final Energy:  -286.02907359994936
    Total Energy =                       -286.0290735999494132
    Molecular point group: c1
  Basis Set: 6-31G*
  Basis Set:
  Basis Set: 6-31G*
  Basis Set:
  @DF-RHF Final Energy:  -286.02948394141288
    Total Energy =                       -286.0294839414126500
  Basis Set: 6-31G*
  Basis Set:
  Basis Set: 6-31G*
  Basis Set:
  @DF-RHF Final Energy:  -286.02951441039113
    Total Energy =                       -286.0295144103912435
  Basis Set: 6-31G*
  Basis Set:
  Basis Set: 6-31G*
  Basis Set:
  @DF-RHF Final Energy:  -286.02958585926933
    Total Energy =                       -286.0295858592693321
  Basis Set: 6-31G*
  Basis Set:
  @DF-RHF Final Energy:  -286.02963245123271
    Total Energy =                       -286.0296324512326578
  @DF-RHF Final Energy:  -286.02965314126743
    Total Energy =                       -286.0296531412673744
  @DF-RHF Final Energy:  -286.02966095738122
    Total Energy =                       -286.0296609573811679
  @DF-RHF Final Energy:  -286.02966468489461
    Total Energy =                       -286.0296646848944420
  @DF-RHF Final Energy:  -286.02966803299404
    Total Energy =                       -286.0296680329942092
  @DF-RHF Final Energy:  -286.02967115714046
    Total Energy =                       -286.0296711571405694
  @DF-RHF Final Energy:  -286.02967406744102
    Total Energy =                       -286.0296740674409079
  @DF-RHF Final Energy:  -286.02968163758749
    Total Energy =                       -286.0296816375873732
  @DF-RHF Final Energy:  -286.02968770038245
    Total Energy =                       -286.0296877003827376
  @DF-RHF Final Energy:  -286.02969244301278
    Total Energy =                       -286.0296924430126637
  Basis Set: 6-31G*
  Basis Set:
  @DF-RHF Final Energy:  -286.02969589391046
    Total Energy =                       -286.0296958939103433
  Basis Set: 6-31G*
  Basis Set:
  Basis Set: 6-31G*
  Basis Set:
  @DF-RHF Final Energy:  -286.02970133614360
    Total Energy =                       -286.0297013361438303
  Basis Set: 6-31G*
  Basis Set:
  Basis Set: 6-31G*
  Basis Set:
  @DF-RHF Final Energy:  -286.02970259673708
    Total Energy =                       -286.0297025967371951
  Basis Set: 6-31G*
  Basis Set:
  Charge       = 0
  Multiplicity = 1
  Basis Set: 6-31G*
  Basis Set:

    Orbital Energies (a.u.)
    -----------------------

    Doubly Occupied:

       1A    -20.512036     2A    -15.584798     3A    -11.342102
       4A    -11.266728     5A    -11.247685     6A    -11.228269
       7A     -1.382745     8A     -1.244097     9A     -1.014181
      10A     -0.973182    11A     -0.920491    12A     -0.738741
      13A     -0.681279    14A     -0.659493    15A     -0.651462
      16A     -0.590409    17A     -0.575701    18A     -0.566321
      19A     -0.560601    20A     -0.547569    21A     -0.529834
      22A     -0.504020    23A     -0.408833    24A     -0.365086

  @DF-RHF Final Energy:  -286.02970280866208

   => Energetics <=

    Nuclear Repulsion Energy =            252.1979357928216245
    One-Electron Energy =                -888.2639526452842347
    Two-Electron Energy =                 350.0363140438004734
    DFT Exchange-Correlation Energy =       0.0000000000000000
    Empirical Dispersion Energy =           0.0000000000000000
    PCM Polarization Energy =               0.0000000000000000
    EFP Energy =                            0.0000000000000000
    Total Energy =                       -286.0297028086620799
    Molecular point group: c1
  Basis Set: 6-31G*
  Basis Set:

  -Total Gradient:
     Atom            X                  Y                   Z
    ------   -----------------  -----------------  -----------------
       1        0.000005201030     0.000020161504    -0.000017707311
       2        0.000029409770     0.000026776058     0.000087967758
       3        0.000008565911     0.000005649150    -0.000003032994
       4       -0.000069671039    -0.000088937254    -0.000130386502
       5        0.000001206640     0.000001769996    -0.000001210173
       6       -0.000003044999     0.000003835112    -0.000002378994
       7        0.000004970513    -0.000002797218     0.000000589887
       8        0.000063620630     0.000091361758     0.000159440950
       9        0.000002355033    -0.000009030108    -0.000001326725
      10       -0.000036200645    -0.000059422132    -0.000097825134
      11        0.000000398272     0.000008383921     0.000002842609
      12        0.000001054436     0.000001638436    -0.000000037137
      13       -0.000002329139    -0.000005787550     0.000002503380
      14       -0.000002228455     0.000003032346     0.000004853103
      15       -0.000003307960     0.000003365977    -0.000004292717

  **** Optimization is complete! (in 18 steps) ****
    Final optimized geometry and variables:
    Molecular point group: c1

    Geometry (in Angstrom), charge = 0, multiplicity = 1:

    O            1.182257448750     0.752688302112    -1.008438835827
    C            0.144920548494     0.566468049842    -0.429116413239
    C           -0.994566232651     1.557617289243    -0.581269755103
    N           -0.051741917596    -0.514201675244     0.373909106935
    H           -1.256701712245     2.011880314434     0.368102487649
    H           -0.660032955772     2.327834906540    -1.259307590327
    H           -1.883299539152     1.087734199843    -0.987932793682
    C            1.005369697203    -1.492902525019     0.525679072326
    C           -1.271682712522    -0.821023831388     1.084864221588
    H            1.854634989764    -1.197092187438    -0.064712257813
    H            0.663683630215    -2.470626839247     0.196860257832
    H            1.301705955334    -1.569870807799     1.568057738133
    H           -1.059470487207    -0.972901626122     2.138966613297
    H           -1.993905241999    -0.025927948674     1.003202817872
    H           -1.723448914319    -1.731836923713     0.700226679875

  Mulliken Charges: (a.u.)
   Center  Symbol    Alpha    Beta     Spin     Total
       1     O     4.30650  4.30650  0.00000 -0.61300
       2     C     2.62207  2.62207  0.00000  0.75586
       3     C     3.29928  3.29928  0.00000 -0.59857
       4     N     3.82499  3.82499  0.00000 -0.64997
       5     H     0.40731  0.40731  0.00000  0.18539
       6     H     0.38995  0.38995  0.00000  0.22010
       7     H     0.40778  0.40778  0.00000  0.18445
       8     C     3.14645  3.14645  0.00000 -0.29291
       9     C     3.14081  3.14081  0.00000 -0.28162
      10     H     0.38172  0.38172  0.00000  0.23655
      11     H     0.41992  0.41992  0.00000  0.16016
      12     H     0.41921  0.41921  0.00000  0.16157
      13     H     0.41318  0.41318  0.00000  0.17363
      14     H     0.40635  0.40635  0.00000  0.18730
      15     H     0.41447  0.41447  0.00000  0.17106

   Total alpha = 24.00000, Total beta = 24.00000, Total charge =  0.00000
