                              Psi4 1.0.54 Driver

  ==> Input File <==

--------------------------------------------------------------------------
set {
	reference rhf
	basis cc-pvtz
}

set_num_threads( 4 )
memory 2 gb

molecule MOL {
0 1

O	 -2.374409	 1.338660	 -0.336961
C	 -2.104891	 0.204655	 -0.107126
C	 -0.881910	 -0.448129	 -0.720509
C	 -2.949910	 -0.638219	 0.818225
C	 -0.959691	 -0.433012	 -2.252359
H	 -0.845487	 -1.471377	 -0.368730
H	 0.019539	 0.058120	 -0.391927
C	 0.252618	 -1.097897	 -2.901002
H	 -1.872021	 -0.933709	 -2.550997
H	 -1.035259	 0.592629	 -2.605416
C	 0.256388	 -1.060053	 -4.430205
H	 0.313675	 -2.130903	 -2.567610
H	 1.153389	 -0.608419	 -2.540963
C	 -0.851681	 -1.876611	 -5.090733
H	 1.215950	 -1.429960	 -4.777648
H	 0.192218	 -0.027550	 -4.763602
H	 -0.814987	 -2.912823	 -4.770567
H	 -0.747684	 -1.861216	 -6.169491
H	 -1.836423	 -1.492574	 -4.853925
H	 -3.440322	 -1.417144	 0.243099
H	 -3.694377	 -0.025850	 1.303346
H	 -2.331085	 -1.129829	 1.560495

	symmetry c1
}
set optking {
	frozen_dihedral = ("
		6 3 2 1
	")
}

ee,wfn = optimize('scf', return_wfn=True)
oeprop( wfn, 'DIPOLE', 'QUADRUPOLE', 'MULLIKEN_CHARGES')
f=open( 'psi4out.xyz', 'w' )
f.write( "22  " )
f.write( str(ee) + "\n" )
f.write( MOL.save_string_xyz() )
f.close()
--------------------------------------------------------------------------

    Molecular point group: c1
  Charge       = 0
  Multiplicity = 1
  Basis Set: CC-PVTZ
  Basis Set:
  @DF-RHF Final Energy:  -348.22242626465788
    Total Energy =                       -348.2224262646575426
    Molecular point group: c1
  Basis Set: CC-PVTZ
  Basis Set:
  Basis Set: CC-PVTZ
  Basis Set:
  @DF-RHF Final Energy:  -348.22225466814024
    Total Energy =                       -348.2222546681396693
  Basis Set: CC-PVTZ
  Basis Set:
  Basis Set: CC-PVTZ
  Basis Set:
  @DF-RHF Final Energy:  -348.22243895802490
    Total Energy =                       -348.2224389580250659
  Basis Set: CC-PVTZ
  Basis Set:
  Basis Set: CC-PVTZ
  Basis Set:
  @DF-RHF Final Energy:  -348.22332542844174
    Total Energy =                       -348.2233254284413988
  Basis Set: CC-PVTZ
  Basis Set:
  @DF-RHF Final Energy:  -348.22337615306697
    Total Energy =                       -348.2233761530671359
  @DF-RHF Final Energy:  -348.22339034185472
    Total Energy =                       -348.2233903418544401
  Basis Set: CC-PVTZ
  Basis Set:
  @DF-RHF Final Energy:  -348.22338371611011
    Total Energy =                       -348.2233837161103338
  Basis Set: CC-PVTZ
  Basis Set:
  Basis Set: CC-PVTZ
  Basis Set:
  @DF-RHF Final Energy:  -348.22339188707980
    Total Energy =                       -348.2233918870798561
  Basis Set: CC-PVTZ
  Basis Set:
  Basis Set: CC-PVTZ
  Basis Set:
  @DF-RHF Final Energy:  -348.22339354784168
    Total Energy =                       -348.2233935478416811
  Basis Set: CC-PVTZ
  Basis Set:
  Charge       = 0
  Multiplicity = 1
  Basis Set: CC-PVTZ
  Basis Set:

    Orbital Energies (a.u.)
    -----------------------

    Doubly Occupied:

       1A    -20.536925     2A    -11.320169     3A    -11.228309
       4A    -11.227415     5A    -11.221755     6A    -11.217897
       7A    -11.216606     8A    -11.208955     9A     -1.397612
      10A     -1.094134    11A     -1.044150    12A     -1.002106
      13A     -0.937531    14A     -0.856643    15A     -0.784507
      16A     -0.733429    17A     -0.659759    18A     -0.650685
      19A     -0.629358    20A     -0.614996    21A     -0.602670
      22A     -0.584858    23A     -0.557839    24A     -0.550229
      25A     -0.528094    26A     -0.520744    27A     -0.501097
      28A     -0.484569    29A     -0.467005    30A     -0.463393
      31A     -0.462073    32A     -0.398941

  @DF-RHF Final Energy:  -348.22339374399257

   => Energetics <=

    Nuclear Repulsion Energy =            373.0973533853901927
    One-Electron Energy =               -1211.2325967332963046
    Two-Electron Energy =                 489.9118496039131969
    DFT Exchange-Correlation Energy =       0.0000000000000000
    Empirical Dispersion Energy =           0.0000000000000000
    PCM Polarization Energy =               0.0000000000000000
    EFP Energy =                            0.0000000000000000
    Total Energy =                       -348.2233937439929150
    Molecular point group: c1
  Basis Set: CC-PVTZ
  Basis Set:

  -Total Gradient:
     Atom            X                  Y                   Z
    ------   -----------------  -----------------  -----------------
       1        0.000286601844     0.000114374246     0.000396955006
       2       -0.000335467001    -0.000177913683    -0.000439910849
       3       -0.000244427438    -0.000110536672    -0.000363628374
       4       -0.000002681114     0.000027689160     0.000004518197
       5        0.000005323857    -0.000012402539     0.000003159503
       6        0.000283690203     0.000173992068     0.000376306944
       7        0.000007386326    -0.000008646116    -0.000000894489
       8        0.000007558599    -0.000010210253     0.000004732504
       9        0.000009579585     0.000004603239     0.000009081852
      10        0.000002862811    -0.000012955076     0.000012387298
      11       -0.000006004180     0.000006145236     0.000003574611
      12       -0.000001467451     0.000011522807     0.000000553436
      13       -0.000009353588    -0.000005015639    -0.000000879671
      14       -0.000002674536    -0.000000237911     0.000000147331
      15       -0.000006383539     0.000002503407     0.000006250193
      16        0.000000103135    -0.000004221768    -0.000003897103
      17       -0.000000155436     0.000008505802    -0.000001509523
      18       -0.000000839487    -0.000000752224     0.000001843586
      19        0.000008586180    -0.000004311907    -0.000001779381
      20       -0.000000958072     0.000002031613    -0.000008188039
      21       -0.000001103634    -0.000006476267     0.000004010170
      22       -0.000000177064     0.000002312476    -0.000002833197

  **** Optimization is complete! (in 10 steps) ****
    Final optimized geometry and variables:
    Molecular point group: c1

    Geometry (in Angstrom), charge = 0, multiplicity = 1:

    O           -1.175147165741     1.824308799111     1.524126065868
    C           -0.926093964092     0.691470511147     1.780264117314
    C            0.272391339733    -0.004446264058     1.158204998404
    C           -1.772926931722    -0.108284150732     2.739142814362
    C            0.239026530643     0.041086102015    -0.370637825284
    H            0.338826993238    -1.028420900269     1.508021863237
    H            1.155177997085     0.514750834025     1.519059840934
    C            1.476023163945    -0.597270164643    -0.998378692072
    H           -0.657748010038    -0.461162034169    -0.719124815346
    H            0.157270074118     1.074813131193    -0.683658660577
    C            1.530996878777    -0.510430349330    -2.524565786891
    H            1.539060232734    -1.640697027286    -0.697266515061
    H            2.359252053942    -0.110922375804    -0.593636496032
    C            0.453674634999    -1.313954445808    -3.248924310758
    H            2.505012126385    -0.861016509546    -2.851338471603
    H            1.467493035111     0.531581545122    -2.825504004593
    H            0.487128986343    -2.359742446485    -2.960066153441
    H            0.595482286646    -1.264639051471    -4.322332164200
    H           -0.541671788952    -0.943039732880    -3.036451892702
    H           -2.169298799799    -0.984469775247     2.236264252336
    H           -2.582796400509     0.496576992789     3.116947652790
    H           -1.161234685081    -0.462650780685     3.562348920965

  Mulliken Charges: (a.u.)
   Center  Symbol    Alpha    Beta     Spin     Total
       1     O     4.17629  4.17629  0.00000 -0.35258
       2     C     2.85858  2.85858  0.00000  0.28285
       3     C     3.10294  3.10294  0.00000 -0.20587
       4     C     3.15318  3.15318  0.00000 -0.30636
       5     C     3.09565  3.09565  0.00000 -0.19130
       6     H     0.44753  0.44753  0.00000  0.10493
       7     H     0.44236  0.44236  0.00000  0.11529
       8     C     3.09675  3.09675  0.00000 -0.19350
       9     H     0.45223  0.45223  0.00000  0.09554
      10     H     0.43815  0.43815  0.00000  0.12369
      11     C     3.09039  3.09039  0.00000 -0.18079
      12     H     0.45426  0.45426  0.00000  0.09147
      13     H     0.44819  0.44819  0.00000  0.10362
      14     C     3.15276  3.15276  0.00000 -0.30552
      15     H     0.44809  0.44809  0.00000  0.10383
      16     H     0.45243  0.45243  0.00000  0.09513
      17     H     0.45560  0.45560  0.00000  0.08879
      18     H     0.44559  0.44559  0.00000  0.10882
      19     H     0.45287  0.45287  0.00000  0.09425
      20     H     0.45052  0.45052  0.00000  0.09896
      21     H     0.43644  0.43644  0.00000  0.12712
      22     H     0.44918  0.44918  0.00000  0.10163

   Total alpha = 32.00000, Total beta = 32.00000, Total charge = -0.00000

*** Psi4 exiting successfully. Buy a developer a beer!
